
 Working directory              : /wrk/irikura/molpro.n2qvC616WP/
 Global scratch directory       : /wrk/irikura/molpro.n2qvC616WP/
 Wavefunction directory         : /home/irikura/wfu/
 Main file repository           : /wrk/irikura/molpro.n2qvC616WP/

 id        : nistki

 Nodes            nprocs
 pn112695.nist.gov   12
 GA implementation: MPI file
 GA implementation (serial work in mppx): MPI file

 Using customized tuning parameters: mindgm=1; mindgv=20; mindgc=4; mindgr=1; noblas=0; minvec=7
 default implementation of scratch files=sf  


 Variables initialized (1040), CPU time= 0.01 sec
 ***,As SO-CI
                                                                                 ! Rydberg functions
 memory,1500,M;
 
 gprint,orbitals,civector,basis;
 
 symmetry,xyz
 geometry={As};
 
 basis=AWCVTZ-X2C
 basis={
 spdfg,as,AWCVTZ-X2C;C;
 spdf,1,even,nprim=1,ratio=3.0;
 }
 
 set,dkho=101
 
 NQ=9
 ND=8
 PAR=2                                                                           ! parity even (1) or odd (2)
 
 {rhf;wf,charge=0,sym=2,spin=3}
 
 {multi
     closed,8,6
     occ,9,12
     wf,charge=0,sym=PAR,spin=3;state,NQ;
     wf,charge=0,sym=PAR,spin=1;state,ND;
     expec2,lxx,lyy,lzz;
 }
 table, energy, ll
 title, Energies and &lt;L**2&gt; values
 
 core,2,3
 
 {ci;wf,sym=PAR,spin=3;state,NQ; save,5302.2}
                                                                                 !hlsdiag = energd4
 hlsdiag(1) = energd
 {ci;wf,sym=PAR,spin=1;state,ND; save,5102.2}
 hlsdiag(NQ+1) = energd4
 
 table,hlsdiag
 
 lsint
 {ci;hlsmat,ls,5302.2,5102.2;print,vls=0,hls=0}                                  !compute and diagonalize SO matrix
 Commands initialized (846), CPU time= 0.01 sec, 717 directives.
 Default parameters read. Elapsed time= 0.21 sec

 Checking input...
 Passed
1


                                         ***  PROGRAM SYSTEM MOLPRO  ***
                                       Copyright, TTI GmbH Stuttgart, 2015
                                    Version 2023.2 linked Fri Sep 22 03:27:09 2023


 **********************************************************************************************************************************
 LABEL *   As SO-CI                                                                                                                                                      
  (32 PROC) 64 bit mpp version                                                           DATE: 29-Aug-24          TIME: 11:47:37  
 **********************************************************************************************************************************

 SHA1:             3c61bfe44d37c8635c785372c339f5cbdd4e4b59
 **********************************************************************************************************************************

 Memory per process:      1500 MW
 Total memory per node:  18000 MW

 GA preallocation disabled
 GA check disabled

 Variable memory set to 1500.0 MW


 ZSYMEL=XYZ

 SETTING BASIS          =    AWCVTZ-X2C
 SETTING BASIS          =    USERDEF
 SETTING DKHO           =       101.00000000                                  
 SETTING NQ             =         9.00000000                                  
 SETTING ND             =         8.00000000                                  
 SETTING PAR            =         2.00000000                                  


 Recomputing integrals since basis changed


 Using spherical harmonics

 Library entry AS     S AWCVTZ-X2C           selected for orbital group  1
 Even tempered As S diffuse               selected for group 1    nprim= 1    centre=  0.011    ratio= 3.000    dratio= 1.000
 Library entry AS     P AWCVTZ-X2C           selected for orbital group  1
 Even tempered As P diffuse               selected for group 1    nprim= 1    centre=  0.009    ratio= 3.000    dratio= 1.000
 Library entry AS     D AWCVTZ-X2C           selected for orbital group  1
 Even tempered As D diffuse               selected for group 1    nprim= 1    centre=  0.023    ratio= 3.000    dratio= 1.000
 Library entry AS     F AWCVTZ-X2C           selected for orbital group  1
 Even tempered As F diffuse               selected for group 1    nprim= 1    centre=  0.056    ratio= 3.000    dratio= 1.000
 Library entry AS     G AWCVTZ-X2C           selected for orbital group  1


 PROGRAM * SEWARD (Integral evaluation for generally contracted gaussian basis sets)     Author: Roland Lindh, 1990

 Geometry written to block  1 of record 700

 Orientation using atomic masses  
 Molecule type: Atom
 User-specified symmetry elements: XYZ
 Symmetry elements: XYZ
 Rotational constants:       0.0000000      0.0000000      0.0000000 GHz  (calculated with average atomic masses)

 Point group  Ci  



 ATOMIC COORDINATES

 NR  ATOM    CHARGE       X              Y              Z

   1  AS     33.00    0.000000000    0.000000000    0.000000000


 BASIS DATA

   Nr Sym  Nuc  Type         Exponents   Contraction coefficients

    1.1 Ag    1  1s     8482339.600000     0.000157   -0.000050    0.000020   -0.000005    0.000000    0.000000
    2.1 Ag              1270150.900000     0.000429   -0.000138    0.000054   -0.000015    0.000000    0.000000
    3.1 Ag               289056.960000     0.001159   -0.000373    0.000146   -0.000040    0.000000    0.000000
    4.1 Ag                81879.849000     0.002966   -0.000958    0.000375   -0.000104    0.000000    0.000000
    5.1 Ag                26716.564000     0.007592   -0.002468    0.000967   -0.000267    0.000000    0.000000
    6.1 Ag                 9647.584200     0.019207   -0.006298    0.002469   -0.000684    0.000000    0.000000
                           3764.119500     0.047313   -0.015889    0.006249   -0.001729    0.000000    0.000000
                           1561.565600     0.109028   -0.038149    0.015078   -0.004184    0.000000    0.000000
                            680.814670     0.218375   -0.084357    0.033795   -0.009368    0.000000    0.000000
                            309.241190     0.333319   -0.154391    0.063377   -0.017710    0.000000    0.000000
                            145.257360     0.304265   -0.198094    0.085592   -0.023901    0.000000    0.000000
                             69.739048     0.111653   -0.033680    0.014512   -0.004397    0.000000    0.000000
                             31.770325     0.007455    0.437718   -0.262220    0.078098    0.000000    0.000000
                             15.391757     0.000305    0.558599   -0.501802    0.155229    0.000000    0.000000
                              7.341526    -0.000143    0.155644   -0.019824    0.004240    0.000000    0.000000
                              3.323716     0.000020    0.005006    0.722818   -0.302636    0.000000    0.000000
                              1.485867    -0.000033    0.001680    0.493990   -0.369075    0.000000    0.000000
                              0.421086     0.000013   -0.000360    0.029041    0.305343    1.000000    0.000000
                              0.211500    -0.000008    0.000228   -0.008787    0.632987    0.000000    0.000000
                              0.088974     0.000002   -0.000065    0.001829    0.281018    0.000000    1.000000
    7.1 Ag    1  1s           2.384800     1.000000
    8.1 Ag    1  1s           3.805800     1.000000
    9.1 Ag    1  1s           0.033407     1.000000
   10.1 Ag    1  1s           0.011136     1.000000
   11.1 Ag    1  3d0        321.019610     0.001819
                             96.249305     0.014420
                             36.644963     0.062889
                             15.493965     0.177633
                              6.891138     0.319577
                              3.054831     0.376096
                              1.314241     0.277771
                              0.513430     0.083772
                              0.187700     0.002619
   12.1 Ag    1  3d2-       321.019610     0.001819
                             96.249305     0.014420
                             36.644963     0.062889
                             15.493965     0.177633
                              6.891138     0.319577
                              3.054831     0.376096
                              1.314241     0.277771
                              0.513430     0.083772
                              0.187700     0.002619
   13.1 Ag    1  3d1+       321.019610     0.001819
                             96.249305     0.014420
                             36.644963     0.062889
                             15.493965     0.177633
                              6.891138     0.319577
                              3.054831     0.376096
                              1.314241     0.277771
                              0.513430     0.083772
                              0.187700     0.002619
   14.1 Ag    1  3d2+       321.019610     0.001819
                             96.249305     0.014420
                             36.644963     0.062889
                             15.493965     0.177633
                              6.891138     0.319577
                              3.054831     0.376096
                              1.314241     0.277771
                              0.513430     0.083772
                              0.187700     0.002619
   15.1 Ag    1  3d1-       321.019610     0.001819
                             96.249305     0.014420
                             36.644963     0.062889
                             15.493965     0.177633
                              6.891138     0.319577
                              3.054831     0.376096
                              1.314241     0.277771
                              0.513430     0.083772
                              0.187700     0.002619
   16.1 Ag    1  3d0        321.019610     0.000000
                             96.249305     0.000000
                             36.644963     0.000000
                             15.493965     0.000000
                              6.891138     0.000000
                              3.054831     0.000000
                              1.314241     0.000000
                              0.513430     1.000000
                              0.187700     0.000000
   17.1 Ag    1  3d2-       321.019610     0.000000
                             96.249305     0.000000
                             36.644963     0.000000
                             15.493965     0.000000
                              6.891138     0.000000
                              3.054831     0.000000
                              1.314241     0.000000
                              0.513430     1.000000
                              0.187700     0.000000
   18.1 Ag    1  3d1+       321.019610     0.000000
                             96.249305     0.000000
                             36.644963     0.000000
                             15.493965     0.000000
                              6.891138     0.000000
                              3.054831     0.000000
                              1.314241     0.000000
                              0.513430     1.000000
                              0.187700     0.000000
   19.1 Ag    1  3d2+       321.019610     0.000000
                             96.249305     0.000000
                             36.644963     0.000000
                             15.493965     0.000000
                              6.891138     0.000000
                              3.054831     0.000000
                              1.314241     0.000000
                              0.513430     1.000000
                              0.187700     0.000000
   20.1 Ag    1  3d1-       321.019610     0.000000
                             96.249305     0.000000
                             36.644963     0.000000
                             15.493965     0.000000
                              6.891138     0.000000
                              3.054831     0.000000
                              1.314241     0.000000
                              0.513430     1.000000
                              0.187700     0.000000
   21.1 Ag    1  3d0        321.019610     0.000000
                             96.249305     0.000000
                             36.644963     0.000000
                             15.493965     0.000000
                              6.891138     0.000000
                              3.054831     0.000000
                              1.314241     0.000000
                              0.513430     0.000000
                              0.187700     1.000000
   22.1 Ag    1  3d2-       321.019610     0.000000
                             96.249305     0.000000
                             36.644963     0.000000
                             15.493965     0.000000
                              6.891138     0.000000
                              3.054831     0.000000
                              1.314241     0.000000
                              0.513430     0.000000
                              0.187700     1.000000
   23.1 Ag    1  3d1+       321.019610     0.000000
                             96.249305     0.000000
                             36.644963     0.000000
                             15.493965     0.000000
                              6.891138     0.000000
                              3.054831     0.000000
                              1.314241     0.000000
                              0.513430     0.000000
                              0.187700     1.000000
   24.1 Ag    1  3d2+       321.019610     0.000000
                             96.249305     0.000000
                             36.644963     0.000000
                             15.493965     0.000000
                              6.891138     0.000000
                              3.054831     0.000000
                              1.314241     0.000000
                              0.513430     0.000000
                              0.187700     1.000000
   25.1 Ag    1  3d1-       321.019610     0.000000
                             96.249305     0.000000
                             36.644963     0.000000
                             15.493965     0.000000
                              6.891138     0.000000
                              3.054831     0.000000
                              1.314241     0.000000
                              0.513430     0.000000
                              0.187700     1.000000
   26.1 Ag    1  3d0          1.438600     1.000000
   27.1 Ag    1  3d2-         1.438600     1.000000
   28.1 Ag    1  3d1+         1.438600     1.000000
   29.1 Ag    1  3d2+         1.438600     1.000000
   30.1 Ag    1  3d1-         1.438600     1.000000
   31.1 Ag    1  3d0          3.771100     1.000000
   32.1 Ag    1  3d2-         3.771100     1.000000
   33.1 Ag    1  3d1+         3.771100     1.000000
   34.1 Ag    1  3d2+         3.771100     1.000000
   35.1 Ag    1  3d1-         3.771100     1.000000
   36.1 Ag    1  3d0          0.070000     1.000000
   37.1 Ag    1  3d2-         0.070000     1.000000
   38.1 Ag    1  3d1+         0.070000     1.000000
   39.1 Ag    1  3d2+         0.070000     1.000000
   40.1 Ag    1  3d1-         0.070000     1.000000
   41.1 Ag    1  3d0          0.023333     1.000000
   42.1 Ag    1  3d2-         0.023333     1.000000
   43.1 Ag    1  3d1+         0.023333     1.000000
   44.1 Ag    1  3d2+         0.023333     1.000000
   45.1 Ag    1  3d1-         0.023333     1.000000
   46.1 Ag    1  5g0          1.901800     1.000000
   47.1 Ag    1  5g2-         1.901800     1.000000
   48.1 Ag    1  5g1+         1.901800     1.000000
   49.1 Ag    1  5g4+         1.901800     1.000000
   50.1 Ag    1  5g1-         1.901800     1.000000
   51.1 Ag    1  5g2+         1.901800     1.000000
   52.1 Ag    1  5g4-         1.901800     1.000000
   53.1 Ag    1  5g3+         1.901800     1.000000
   54.1 Ag    1  5g3-         1.901800     1.000000
    1.2 Au    1  2px       7423.861400     0.000905
                           1759.516600     0.005119
                            570.229160     0.024095
                            216.579970     0.086769
                             90.734252     0.228280
                             40.308791     0.392034
                             18.555502     0.348936
                              8.396543     0.101838
                              3.767367     0.003273
                              1.629701     0.001773
                              0.568263    -0.000424
                              0.222503     0.000217
                              0.080405    -0.000068
    2.2 Au    1  2py       7423.861400     0.000905
                           1759.516600     0.005119
                            570.229160     0.024095
                            216.579970     0.086769
                             90.734252     0.228280
                             40.308791     0.392034
                             18.555502     0.348936
                              8.396543     0.101838
                              3.767367     0.003273
                              1.629701     0.001773
                              0.568263    -0.000424
                              0.222503     0.000217
                              0.080405    -0.000068
    3.2 Au    1  2pz       7423.861400     0.000905
                           1759.516600     0.005119
                            570.229160     0.024095
                            216.579970     0.086769
                             90.734252     0.228280
                             40.308791     0.392034
                             18.555502     0.348936
                              8.396543     0.101838
                              3.767367     0.003273
                              1.629701     0.001773
                              0.568263    -0.000424
                              0.222503     0.000217
                              0.080405    -0.000068
    4.2 Au    1  2px       7423.861400    -0.000356
                           1759.516600    -0.002024
                            570.229160    -0.009608
                            216.579970    -0.035621
                             90.734252    -0.097616
                             40.308791    -0.179701
                             18.555502    -0.141487
                              8.396543     0.204370
                              3.767367     0.537805
                              1.629701     0.378748
                              0.568263     0.045287
                              0.222503    -0.005040
                              0.080405     0.001435
    5.2 Au    1  2py       7423.861400    -0.000356
                           1759.516600    -0.002024
                            570.229160    -0.009608
                            216.579970    -0.035621
                             90.734252    -0.097616
                             40.308791    -0.179701
                             18.555502    -0.141487
                              8.396543     0.204370
                              3.767367     0.537805
                              1.629701     0.378748
                              0.568263     0.045287
                              0.222503    -0.005040
                              0.080405     0.001435
    6.2 Au    1  2pz       7423.861400    -0.000356
                           1759.516600    -0.002024
                            570.229160    -0.009608
                            216.579970    -0.035621
                             90.734252    -0.097616
                             40.308791    -0.179701
                             18.555502    -0.141487
                              8.396543     0.204370
                              3.767367     0.537805
                              1.629701     0.378748
                              0.568263     0.045287
                              0.222503    -0.005040
                              0.080405     0.001435
    7.2 Au    1  2px       7423.861400     0.000079
                           1759.516600     0.000451
                            570.229160     0.002140
                            216.579970     0.007971
                             90.734252     0.021911
                             40.308791     0.040820
                             18.555502     0.031109
                              8.396543    -0.056698
                              3.767367    -0.151769
                              1.629701    -0.120905
                              0.568263     0.213643
                              0.222503     0.582517
                              0.080405     0.363222
    8.2 Au    1  2py       7423.861400     0.000079
                           1759.516600     0.000451
                            570.229160     0.002140
                            216.579970     0.007971
                             90.734252     0.021911
                             40.308791     0.040820
                             18.555502     0.031109
                              8.396543    -0.056698
                              3.767367    -0.151769
                              1.629701    -0.120905
                              0.568263     0.213643
                              0.222503     0.582517
                              0.080405     0.363222
    9.2 Au    1  2pz       7423.861400     0.000079
                           1759.516600     0.000451
                            570.229160     0.002140
                            216.579970     0.007971
                             90.734252     0.021911
                             40.308791     0.040820
                             18.555502     0.031109
                              8.396543    -0.056698
                              3.767367    -0.151769
                              1.629701    -0.120905
                              0.568263     0.213643
                              0.222503     0.582517
                              0.080405     0.363222
   10.2 Au    1  2px       7423.861400     0.000000
                           1759.516600     0.000000
                            570.229160     0.000000
                            216.579970     0.000000
                             90.734252     0.000000
                             40.308791     0.000000
                             18.555502     0.000000
                              8.396543     0.000000
                              3.767367     0.000000
                              1.629701     0.000000
                              0.568263     1.000000
                              0.222503     0.000000
                              0.080405     0.000000
   11.2 Au    1  2py       7423.861400     0.000000
                           1759.516600     0.000000
                            570.229160     0.000000
                            216.579970     0.000000
                             90.734252     0.000000
                             40.308791     0.000000
                             18.555502     0.000000
                              8.396543     0.000000
                              3.767367     0.000000
                              1.629701     0.000000
                              0.568263     1.000000
                              0.222503     0.000000
                              0.080405     0.000000
   12.2 Au    1  2pz       7423.861400     0.000000
                           1759.516600     0.000000
                            570.229160     0.000000
                            216.579970     0.000000
                             90.734252     0.000000
                             40.308791     0.000000
                             18.555502     0.000000
                              8.396543     0.000000
                              3.767367     0.000000
                              1.629701     0.000000
                              0.568263     1.000000
                              0.222503     0.000000
                              0.080405     0.000000
   13.2 Au    1  2px       7423.861400     0.000000
                           1759.516600     0.000000
                            570.229160     0.000000
                            216.579970     0.000000
                             90.734252     0.000000
                             40.308791     0.000000
                             18.555502     0.000000
                              8.396543     0.000000
                              3.767367     0.000000
                              1.629701     0.000000
                              0.568263     0.000000
                              0.222503     0.000000
                              0.080405     1.000000
   14.2 Au    1  2py       7423.861400     0.000000
                           1759.516600     0.000000
                            570.229160     0.000000
                            216.579970     0.000000
                             90.734252     0.000000
                             40.308791     0.000000
                             18.555502     0.000000
                              8.396543     0.000000
                              3.767367     0.000000
                              1.629701     0.000000
                              0.568263     0.000000
                              0.222503     0.000000
                              0.080405     1.000000
   15.2 Au    1  2pz       7423.861400     0.000000
                           1759.516600     0.000000
                            570.229160     0.000000
                            216.579970     0.000000
                             90.734252     0.000000
                             40.308791     0.000000
                             18.555502     0.000000
                              8.396543     0.000000
                              3.767367     0.000000
                              1.629701     0.000000
                              0.568263     0.000000
                              0.222503     0.000000
                              0.080405     1.000000
   16.2 Au    1  2px          1.563000     1.000000
   17.2 Au    1  2py          1.563000     1.000000
   18.2 Au    1  2pz          1.563000     1.000000
   19.2 Au    1  2px          3.422100     1.000000
   20.2 Au    1  2py          3.422100     1.000000
   21.2 Au    1  2pz          3.422100     1.000000
   22.2 Au    1  2px          0.026799     1.000000
   23.2 Au    1  2py          0.026799     1.000000
   24.2 Au    1  2pz          0.026799     1.000000
   25.2 Au    1  2px          0.008933     1.000000
   26.2 Au    1  2py          0.008933     1.000000
   27.2 Au    1  2pz          0.008933     1.000000
   28.2 Au    1  4f1+         0.415800     1.000000
   29.2 Au    1  4f1-         0.415800     1.000000
   30.2 Au    1  4f0          0.415800     1.000000
   31.2 Au    1  4f3+         0.415800     1.000000
   32.2 Au    1  4f2-         0.415800     1.000000
   33.2 Au    1  4f3-         0.415800     1.000000
   34.2 Au    1  4f2+         0.415800     1.000000
   35.2 Au    1  4f1+         1.598100     1.000000
   36.2 Au    1  4f1-         1.598100     1.000000
   37.2 Au    1  4f0          1.598100     1.000000
   38.2 Au    1  4f3+         1.598100     1.000000
   39.2 Au    1  4f2-         1.598100     1.000000
   40.2 Au    1  4f3-         1.598100     1.000000
   41.2 Au    1  4f2+         1.598100     1.000000
   42.2 Au    1  4f1+         6.102500     1.000000
   43.2 Au    1  4f1-         6.102500     1.000000
   44.2 Au    1  4f0          6.102500     1.000000
   45.2 Au    1  4f3+         6.102500     1.000000
   46.2 Au    1  4f2-         6.102500     1.000000
   47.2 Au    1  4f3-         6.102500     1.000000
   48.2 Au    1  4f2+         6.102500     1.000000
   49.2 Au    1  4f1+         0.169000     1.000000
   50.2 Au    1  4f1-         0.169000     1.000000
   51.2 Au    1  4f0          0.169000     1.000000
   52.2 Au    1  4f3+         0.169000     1.000000
   53.2 Au    1  4f2-         0.169000     1.000000
   54.2 Au    1  4f3-         0.169000     1.000000
   55.2 Au    1  4f2+         0.169000     1.000000
   56.2 Au    1  4f1+         0.056333     1.000000
   57.2 Au    1  4f1-         0.056333     1.000000
   58.2 Au    1  4f0          0.056333     1.000000
   59.2 Au    1  4f3+         0.056333     1.000000
   60.2 Au    1  4f2-         0.056333     1.000000
   61.2 Au    1  4f3-         0.056333     1.000000
   62.2 Au    1  4f2+         0.056333     1.000000

 NUCLEAR CHARGE:                   33
 NUMBER OF PRIMITIVE AOS:         218
 NUMBER OF SYMMETRY AOS:          184
 NUMBER OF CONTRACTIONS:          116   (   54Ag  +   62Au  )
 NUMBER OF INNER CORE ORBITALS:     5   (    2Ag  +    3Au  )
 NUMBER OF OUTER CORE ORBITALS:     9   (    6Ag  +    3Au  )
 NUMBER OF VALENCE ORBITALS:        4   (    1Ag  +    3Au  )


 NUCLEAR REPULSION ENERGY    0.00000000

 One-electron integrals computed with SEWARD

 eXact-2-Component (X2C) method activated

 Computing Douglas-Kroll / X2C integrals

 AO integral compression algorithm  1   Integral accuracy      1.0D-11

     27.263 MB (compressed) written to integral file ( 14.7%)

     Node minimum: 1.573 MB, node maximum: 3.146 MB


 NUMBER OF SORTED TWO-ELECTRON INTEGRALS:     971658.     BUFFER LENGTH:  32768
 NUMBER OF SEGMENTS:   1  SEGMENT LENGTH:     971658      RECORD LENGTH: 524288

 Memory used in sort:       1.53 MW

 SORT1 READ    23841670. AND WROTE      189026. INTEGRALS IN      1 RECORDS. CPU TIME:     0.12 SEC, REAL TIME:     0.12 SEC
 SORT2 READ     2334228. AND WROTE    11712051. INTEGRALS IN     96 RECORDS. CPU TIME:     0.03 SEC, REAL TIME:     0.04 SEC

 Node minimum:      971088.  Node maximum:      978696. integrals

 OPERATOR DM      FOR CENTER  0  COORDINATES:    0.000000    0.000000    0.000000

 EXTRA SYMMETRY OF AOS IN SYMMETRY 1:   1 1 1 1 1 1 1 1 1 1   2 3 4 5 6 2 3 4 5 6   2 3 4 5 6 2 3 4 5 6   2 3 4 5 6 2 3 4 5 6
                                        2 3 4 5 6 7 8 91011  12131415
 EXTRA SYMMETRY OF AOS IN SYMMETRY 2:   1 2 3 1 2 3 1 2 3 1   2 3 1 2 3 1 2 3 1 2   3 1 2 3 1 2 3 4 5 6   7 8 910 4 5 6 7 8 9
                                       10 4 5 6 7 8 910 4 5   6 7 8 910 4 5 6 7 8   910

 Eigenvalues of metric

         1 0.139E-03 0.213E-02 0.149E-01 0.471E-01 0.476E-01 0.476E-01 0.476E-01 0.476E-01
         2 0.441E-02 0.441E-02 0.441E-02 0.138E-01 0.138E-01 0.138E-01 0.705E-01 0.705E-01


 **********************************************************************************************************************************
 DATASETS  * FILE   NREC   LENGTH (MB)   RECORD NAMES
              1      22       29.21       500      610      700      900      950      970     1000      129      960     1700   
                                          VAR    BASINP    GEOM    SYMINP    ZMAT    AOBASIS   BASIS     P2S    ABASIS    OPER   
                                         1101     1401     1411     1412     1650     1100     1400     1410     1200     1210   
                                          SR      EKINR    POTR     PVPR    MOLCAS      S      EKIN      POT      H0       H01  
                                         1080     1600   
                                         AOSYM     SMH  

 PROGRAMS   *        TOTAL       INT
 CPU TIMES  *         1.45      1.13
 REAL TIME  *         2.36 SEC
 DISK USED  *        29.56 MB (local),      415.90 MB (total)
 GA USED    *         0.00 MB       (max)       0.00 MB       (current)
 **********************************************************************************************************************************


 Program * Restricted Hartree-Fock


   Atom=AS basis=MINAO             lmin=0  lmax=2

 Orbital guess generated from atomic densities.

 Initial alpha occupancy:   9   9
 Initial beta  occupancy:   9   6

 NELEC=   33   SYM=2   MS2= 3   THRE=1.0D-08   THRD=3.2D-06   THRG=3.2D-06  HFMA2=F  DIIS_START=2   DIIS_MAX=10   DIIS_INCORE=F

 Level shifts:    0.00 (CLOSED)    0.00 (OPEN)    0.30 (GAP_MIN)

 ITER           ETOT              DE          GRAD        DDIFF     DIIS  NEXP   TIME(IT)  TIME(TOT)  DIAG
   1    -2259.07589217   -2259.07589217     0.00D+00     0.14D+00     0     0       0.01      0.02    start
   2    -2259.09075973      -0.01486757     0.81D-02     0.73D-02     1     0       0.00      0.02    diag2
   3    -2259.09385482      -0.00309509     0.49D-02     0.19D-02     2     0       0.01      0.03    diag2
   4    -2259.09412628      -0.00027146     0.48D-03     0.94D-03     3     0       0.01      0.04    diag2
   5    -2259.09415912      -0.00003284     0.15D-03     0.41D-03     4     0       0.01      0.05    diag2
   6    -2259.09416023      -0.00000112     0.24D-04     0.95D-04     5     0       0.01      0.06    diag2
   7    -2259.09416026      -0.00000002     0.35D-05     0.14D-04     6     0       0.00      0.06    diag2
   8    -2259.09416026      -0.00000000     0.23D-06     0.78D-06     7     0       0.01      0.07    fixocc
   9    -2259.09416026      -0.00000000     0.34D-07     0.14D-06     0     0       0.01      0.08    diag

 Final alpha occupancy:   9   9
 Final beta  occupancy:   9   6

 !RHF STATE 1.2 Energy              -2259.094160256924
  RHF One-electron energy           -3146.447871085845
  RHF Two-electron energy             887.353710828921
  RHF Kinetic energy                 2399.925828541628
  RHF Nuclear energy                    0.000000000000
  RHF Virial quotient                  -0.941318324671

 !RHF STATE 1.2 Dipole moment           0.00000000     0.00000000     0.00000000
 Dipole moment /Debye                   0.00000000     0.00000000     0.00000000

 ELECTRON ORBITALS
 =================

  Orbital  Occupation    Energy    Cen Mu Typ  Coefficients
    1.1     2.00000  -438.96410     1  1  s    1.00001
    2.1     2.00000   -57.77745     1  2  s    0.99975
    3.1     2.00000    -8.27496     1  3  s    0.99854
    4.1     2.00000    -2.06760     1  1  d2-  0.99991
    5.1     2.00000    -2.06760     1  1  d2+  0.99990
    6.1     2.00000    -2.06760     1  1  d1+  0.99855
    7.1     2.00000    -2.06760     1  1  d1-  0.99856
    8.1     2.00000    -2.06760     1  1  d0   0.99994
    9.1     2.00000    -0.70333     1  4  s    0.99679
    1.2     2.00000   -50.48634     1  1  py   0.99991
    2.2     2.00000   -50.48634     1  1  px   0.99993
    3.2     2.00000   -50.48634     1  1  pz   0.99991
    4.2     2.00000    -5.93361     1  2  py   0.99945
    5.2     2.00000    -5.93361     1  2  pz   0.99945
    6.2     2.00000    -5.93361     1  2  px   0.99953
    7.2     1.00000    -0.36836     1  3  px   1.00625
    8.2     1.00000    -0.36836     1  3  py   1.00625
    9.2     1.00000    -0.36836     1  3  pz   1.00625


 HOMO      9.2    -0.368359 =     -10.0236eV
 LUMO     10.1     0.017175 =       0.4674eV
 LUMO-HOMO         0.385534 =      10.4909eV

 Orbitals saved in record  2100.2


 **********************************************************************************************************************************
 DATASETS  * FILE   NREC   LENGTH (MB)   RECORD NAMES
              1      22       29.21       500      610      700      900      950      970     1000      129      960     1700   
                                          VAR    BASINP    GEOM    SYMINP    ZMAT    AOBASIS   BASIS     P2S    ABASIS    OPER   
                                         1101     1401     1411     1412     1650     1100     1400     1410     1200     1210   
                                          SR      EKINR    POTR     PVPR    MOLCAS      S      EKIN      POT      H0       H01  
                                         1080     1600   
                                         AOSYM     SMH  

              2       4        0.60       700     1000      520     2100   
                                         GEOM     BASIS   MCVARS     RHF  

 PROGRAMS   *        TOTAL   RHF-SCF       INT
 CPU TIMES  *         1.53      0.08      1.13
 REAL TIME  *         2.88 SEC
 DISK USED  *        30.74 MB (local),      430.05 MB (total)
 GA USED    *         0.00 MB       (max)       0.00 MB       (current)
 **********************************************************************************************************************************

 PROGRAM * MULTI (Direct Multiconfiguration SCF)       Authors: P.J. Knowles, H.-J. Werner (1984)
                                                                D.A. Kreplin, P.J. Knowles, H.-J. Werner (2019)

 Number of closed-shell orbitals:  14 (    8    6)
 Number of active  orbitals:        7 (    1    6)
 Number of external orbitals:      95 (   45   50)

 State symmetry 1

 Number of active electrons:   5    Spin symmetry=Quartet   Space symmetry=2
 Number of states:             9
 Number of CSFs:             104   (110 determinants, 245 intermediate states)

 State symmetry 2

 Number of active electrons:   5    Spin symmetry=Doublet   Space symmetry=2
 Number of states:             8
 Number of CSFs:             280   (390 determinants, 735 intermediate states)

 Molecular orbitals read from record     2100.2  Type=RHF/CANONICAL  
 *** IN SYMMETRY 1 ORBITAL  4 SYMMETRY CONTAMINATION OF 0.121D-01 HAS BEEN REMOVED
 *** IN SYMMETRY 1 ORBITAL  5 SYMMETRY CONTAMINATION OF 0.136D-01 HAS BEEN REMOVED
 *** IN SYMMETRY 1 ORBITAL  6 SYMMETRY CONTAMINATION OF 0.564D-01 HAS BEEN REMOVED
 *** IN SYMMETRY 1 ORBITAL  7 SYMMETRY CONTAMINATION OF 0.534D-01 HAS BEEN REMOVED
 *** IN SYMMETRY 1 ORBITAL  8 SYMMETRY CONTAMINATION OF 0.513D-03 HAS BEEN REMOVED

 EXTRA SYMMETRY OF MOS IN SYMMETRY 1:   1 1 1 3 5 4 6 2 1 1   6 4 3 5 2 1 4 6 3 5   2 1 4 6 3 5 2 3 5 4   6 2 1 2 3 5 6 4 812
                                        91114151013 7 1 2 5   3 6 4 1
 *** IN SYMMETRY 2 ORBITAL  1 SYMMETRY CONTAMINATION OF 0.103D-01 HAS BEEN REMOVED
 *** IN SYMMETRY 2 ORBITAL  2 SYMMETRY CONTAMINATION OF 0.716D-02 HAS BEEN REMOVED
 *** IN SYMMETRY 2 ORBITAL  3 SYMMETRY CONTAMINATION OF 0.106D-01 HAS BEEN REMOVED
 *** IN SYMMETRY 2 ORBITAL  4 SYMMETRY CONTAMINATION OF 0.123D-01 HAS BEEN REMOVED
 *** IN SYMMETRY 2 ORBITAL  5 SYMMETRY CONTAMINATION OF 0.123D-01 HAS BEEN REMOVED
 *** IN SYMMETRY 2 ORBITAL  7 SYMMETRY CONTAMINATION OF 0.436D-04 HAS BEEN REMOVED
 *** IN SYMMETRY 2 ORBITAL  8 SYMMETRY CONTAMINATION OF 0.226D-03 HAS BEEN REMOVED
 *** IN SYMMETRY 2 ORBITAL  9 SYMMETRY CONTAMINATION OF 0.225D-03 HAS BEEN REMOVED
 *** IN SYMMETRY 2 ORBITAL 11 SYMMETRY CONTAMINATION OF 0.115D-02 HAS BEEN REMOVED
 *** IN SYMMETRY 2 ORBITAL 12 SYMMETRY CONTAMINATION OF 0.115D-02 HAS BEEN REMOVED
 EXTRA SYMMETRY OF MOS IN SYMMETRY 2:   2 1 3 2 3 1 1 2 3 1   2 3 1 2 310 8 9 7 6   5 4 1 2 3 9 7 5 4 6   810 2 1 3 6 4 5 9 7
                                        810 810 6 4 5 7 9 2   1 3 6 7 910 8 5 4 1   2 3

 Wavefunction dump at record             2140.2

 Convergence thresholds  0.10E-04 (gradient)  0.10E-05 (energy)

 Weight factors for state symmetry  1:    0.05882   0.05882   0.05882   0.05882   0.05882   0.05882   0.05882   0.05882
                                          0.05882
 Weight factors for state symmetry  2:    0.05882   0.05882   0.05882   0.05882   0.05882   0.05882   0.05882   0.05882
 
 Number of orbital rotations:  1049  ( 44 closed/active, 660 closed/virtual, 0 active/active, 345 active/virtual )
 Total number of variables:    5159
 
 Second-order MCSCF: L-BFGS accelerated
 
 ITER  MIC  NCI  NEG     ENERGY(VAR)    ENERGY(PROJ) ENERGY CHANGE       GRAD(0)  GRAD(ORB)   GRAD(CI)      STEP      TIME
   1    8   14    0  -2258.91870422   -2258.93278581   -0.01408158    0.07844676 0.00052961 0.00000000  0.12E+01      1.23
   2    7   12    0  -2258.93245450   -2258.93247029   -0.00001579    0.00489191 0.00000002 0.00000000  0.22E-01      2.37
   3    6   12    0  -2258.93247031   -2258.93247031   -0.00000000    0.00000813 0.00000000 0.00000000  0.40E-04      3.48

 CONVERGENCE REACHED!  Final gradient:    0.00000002 ( 0.16E-07)
                       Final energy:  -2258.93247031
 
 Results for state 1.2 Quartet
 =============================
 !MCSCF STATE 1.2 Quartet Energy             -2259.092413435183
 Nuclear energy                                  0.00000000
 Kinetic energy                               2400.49061331
 One electron energy                         -3147.66399453
 Two electron energy                           888.57158109
 Virial ratio                                    1.94109612
 
 !MCSCF STATE 1.2 Quartet Dipole moment          0.00000000     0.00000000     0.00000000
 Dipole moment /Debye                            0.00000000     0.00000000     0.00000000
 
 Results for state 2.2 Quartet
 =============================
 !MCSCF STATE 2.2 Quartet Energy             -2258.830240805311
 Nuclear energy                                  0.00000000
 Kinetic energy                               2399.11828423
 One electron energy                         -3137.81081385
 Two electron energy                           878.98057305
 Virial ratio                                    1.94152517
 
 !MCSCF STATE 2.2 Quartet Dipole moment          0.00000000     0.00000000     0.00000000
 Dipole moment /Debye                            0.00000000     0.00000000     0.00000000
 
 Results for state 3.2 Quartet
 =============================
 !MCSCF STATE 3.2 Quartet Energy             -2258.830240805269
 Nuclear energy                                  0.00000000
 Kinetic energy                               2399.11828423
 One electron energy                         -3137.81081385
 Two electron energy                           878.98057305
 Virial ratio                                    1.94152517
 
 !MCSCF STATE 3.2 Quartet Dipole moment          0.00000000     0.00000000     0.00000000
 Dipole moment /Debye                            0.00000000     0.00000000     0.00000000
 
 Results for state 4.2 Quartet
 =============================
 !MCSCF STATE 4.2 Quartet Energy             -2258.830240805260
 Nuclear energy                                  0.00000000
 Kinetic energy                               2399.11828423
 One electron energy                         -3137.81081387
 Two electron energy                           878.98057307
 Virial ratio                                    1.94152517
 
 !MCSCF STATE 4.2 Quartet Dipole moment          0.00000000     0.00000000     0.00000000
 Dipole moment /Debye                            0.00000000     0.00000000     0.00000000
 
 Results for state 5.2 Quartet
 =============================
 !MCSCF STATE 5.2 Quartet Energy             -2258.830240805164
 Nuclear energy                                  0.00000000
 Kinetic energy                               2399.11828423
 One electron energy                         -3137.81081388
 Two electron energy                           878.98057307
 Virial ratio                                    1.94152517
 
 !MCSCF STATE 5.2 Quartet Dipole moment          0.00000000     0.00000000     0.00000000
 Dipole moment /Debye                            0.00000000     0.00000000     0.00000000
 
 Results for state 6.2 Quartet
 =============================
 !MCSCF STATE 6.2 Quartet Energy             -2258.830240805154
 Nuclear energy                                  0.00000000
 Kinetic energy                               2399.11828423
 One electron energy                         -3137.81081388
 Two electron energy                           878.98057307
 Virial ratio                                    1.94152517
 
 !MCSCF STATE 6.2 Quartet Dipole moment          0.00000000     0.00000000     0.00000000
 Dipole moment /Debye                            0.00000000     0.00000000     0.00000000
 
 Results for state 7.2 Quartet
 =============================
 !MCSCF STATE 7.2 Quartet Energy             -2258.825471571720
 Nuclear energy                                  0.00000000
 Kinetic energy                               2399.11779684
 One electron energy                         -3137.80905486
 Two electron energy                           878.98358328
 Virial ratio                                    1.94152337
 
 !MCSCF STATE 7.2 Quartet Dipole moment          0.00000000     0.00000000     0.00000000
 Dipole moment /Debye                            0.00000000     0.00000000     0.00000000
 
 Results for state 8.2 Quartet
 =============================
 !MCSCF STATE 8.2 Quartet Energy             -2258.825471571684
 Nuclear energy                                  0.00000000
 Kinetic energy                               2399.11779684
 One electron energy                         -3137.80905488
 Two electron energy                           878.98358330
 Virial ratio                                    1.94152337
 
 !MCSCF STATE 8.2 Quartet Dipole moment          0.00000000     0.00000000     0.00000000
 Dipole moment /Debye                            0.00000000     0.00000000     0.00000000
 
 Results for state 9.2 Quartet
 =============================
 !MCSCF STATE 9.2 Quartet Energy             -2258.825471571553
 Nuclear energy                                  0.00000000
 Kinetic energy                               2399.11779684
 One electron energy                         -3137.80905488
 Two electron energy                           878.98358331
 Virial ratio                                    1.94152337
 
 !MCSCF STATE 9.2 Quartet Dipole moment          0.00000000     0.00000000     0.00000000
 Dipole moment /Debye                            0.00000000     0.00000000     0.00000000
 
 Results for state 1.2 Doublet
 =============================
 !MCSCF STATE 1.2 Doublet Energy             -2259.025859773726
 Nuclear energy                                  0.00000000
 Kinetic energy                               2400.35383987
 One electron energy                         -3147.07542756
 Two electron energy                           888.04956779
 Virial ratio                                    1.94112202
 
 !MCSCF STATE 1.2 Doublet Dipole moment          0.00000000     0.00000000     0.00000000
 Dipole moment /Debye                            0.00000000     0.00000000     0.00000000
 
 Results for state 2.2 Doublet
 =============================
 !MCSCF STATE 2.2 Doublet Energy             -2259.025859773679
 Nuclear energy                                  0.00000000
 Kinetic energy                               2400.35383987
 One electron energy                         -3147.07542757
 Two electron energy                           888.04956779
 Virial ratio                                    1.94112202
 
 !MCSCF STATE 2.2 Doublet Dipole moment          0.00000000     0.00000000     0.00000000
 Dipole moment /Debye                            0.00000000     0.00000000     0.00000000
 
 Results for state 3.2 Doublet
 =============================
 !MCSCF STATE 3.2 Doublet Energy             -2259.025859773677
 Nuclear energy                                  0.00000000
 Kinetic energy                               2400.35383987
 One electron energy                         -3147.07542756
 Two electron energy                           888.04956779
 Virial ratio                                    1.94112202
 
 !MCSCF STATE 3.2 Doublet Dipole moment          0.00000000     0.00000000     0.00000000
 Dipole moment /Debye                            0.00000000     0.00000000     0.00000000
 
 Results for state 4.2 Doublet
 =============================
 !MCSCF STATE 4.2 Doublet Energy             -2259.025859773666
 Nuclear energy                                  0.00000000
 Kinetic energy                               2400.35383987
 One electron energy                         -3147.07542756
 Two electron energy                           888.04956779
 Virial ratio                                    1.94112202
 
 !MCSCF STATE 4.2 Doublet Dipole moment          0.00000000     0.00000000     0.00000000
 Dipole moment /Debye                            0.00000000     0.00000000     0.00000000
 
 Results for state 5.2 Doublet
 =============================
 !MCSCF STATE 5.2 Doublet Energy             -2259.025859773633
 Nuclear energy                                  0.00000000
 Kinetic energy                               2400.35383987
 One electron energy                         -3147.07542757
 Two electron energy                           888.04956779
 Virial ratio                                    1.94112202
 
 !MCSCF STATE 5.2 Doublet Dipole moment          0.00000000     0.00000000     0.00000000
 Dipole moment /Debye                            0.00000000     0.00000000     0.00000000
 
 Results for state 6.2 Doublet
 =============================
 !MCSCF STATE 6.2 Doublet Energy             -2259.000888052040
 Nuclear energy                                  0.00000000
 Kinetic energy                               2400.25516586
 One electron energy                         -3146.66787372
 Two electron energy                           887.66698567
 Virial ratio                                    1.94115031
 
 !MCSCF STATE 6.2 Doublet Dipole moment          0.00000000     0.00000000     0.00000000
 Dipole moment /Debye                            0.00000000     0.00000000     0.00000000
 
 Results for state 7.2 Doublet
 =============================
 !MCSCF STATE 7.2 Doublet Energy             -2259.000888052035
 Nuclear energy                                  0.00000000
 Kinetic energy                               2400.25516586
 One electron energy                         -3146.66787372
 Two electron energy                           887.66698567
 Virial ratio                                    1.94115031
 
 !MCSCF STATE 7.2 Doublet Dipole moment          0.00000000     0.00000000     0.00000000
 Dipole moment /Debye                            0.00000000     0.00000000     0.00000000
 
 Results for state 8.2 Doublet
 =============================
 !MCSCF STATE 8.2 Doublet Energy             -2259.000888051969
 Nuclear energy                                  0.00000000
 Kinetic energy                               2400.25516586
 One electron energy                         -3146.66787372
 Two electron energy                           887.66698567
 Virial ratio                                    1.94115031
 
 !MCSCF STATE 8.2 Doublet Dipole moment          0.00000000     0.00000000     0.00000000
 Dipole moment /Debye                            0.00000000     0.00000000     0.00000000
 
 State-averaged charge density matrix saved on record 2140.2 (density set 1)
 
 No non-zero expectation values
 
 Expectation values for two-electron operators:
 
 ? Warning
 ? Transition properties are only calculated between states of the same symmetry
 ? The problem occurs in mu_properties_expec2

 !MCSCF expec      <1.2 Quartet|LXLX|1.2 Quartet>     0.000000000000
 !MCSCF expec      <2.2 Quartet|LXLX|2.2 Quartet>     2.874092261386
 !MCSCF expec      <3.2 Quartet|LXLX|3.2 Quartet>     1.000000184659
 !MCSCF expec      <4.2 Quartet|LXLX|4.2 Quartet>     4.000000000000
 !MCSCF expec      <5.2 Quartet|LXLX|5.2 Quartet>     1.125927364420
 !MCSCF expec      <6.2 Quartet|LXLX|6.2 Quartet>     1.000000074322
 !MCSCF expec      <7.2 Quartet|LXLX|7.2 Quartet>     0.999999997424
 !MCSCF expec      <8.2 Quartet|LXLX|8.2 Quartet>     0.000000002617
 !MCSCF expec      <9.2 Quartet|LXLX|9.2 Quartet>     0.999999999862
 !MCSCF expec      <1.2 Doublet|LXLX|1.2 Doublet>     3.078649787077
 !MCSCF expec      <2.2 Doublet|LXLX|2.2 Doublet>     3.999999989784
 !MCSCF expec      <3.2 Doublet|LXLX|3.2 Doublet>     0.999999141870
 !MCSCF expec      <4.2 Doublet|LXLX|4.2 Doublet>     0.921395434145
 !MCSCF expec      <5.2 Doublet|LXLX|5.2 Doublet>     1.000000111162
 !MCSCF expec      <6.2 Doublet|LXLX|6.2 Doublet>     0.999999999795
 !MCSCF expec      <7.2 Doublet|LXLX|7.2 Doublet>     0.000000000000
 !MCSCF expec      <8.2 Doublet|LXLX|8.2 Doublet>     0.999999999998
 
 !MCSCF expec      <1.2 Quartet|LYLY|1.2 Quartet>    -0.000000000000
 !MCSCF expec      <2.2 Quartet|LYLY|2.2 Quartet>     0.005079710823
 !MCSCF expec      <3.2 Quartet|LYLY|3.2 Quartet>     0.999999932630
 !MCSCF expec      <4.2 Quartet|LYLY|4.2 Quartet>     1.000000000000
 !MCSCF expec      <5.2 Quartet|LYLY|5.2 Quartet>     3.994918775469
 !MCSCF expec      <6.2 Quartet|LYLY|6.2 Quartet>     3.999999992763
 !MCSCF expec      <7.2 Quartet|LYLY|7.2 Quartet>     0.999999999818
 !MCSCF expec      <8.2 Quartet|LYLY|8.2 Quartet>     0.999999999862
 !MCSCF expec      <9.2 Quartet|LYLY|9.2 Quartet>     0.000000000320
 !MCSCF expec      <1.2 Doublet|LYLY|1.2 Doublet>     2.919231156166
 !MCSCF expec      <2.2 Doublet|LYLY|2.2 Doublet>     1.000000026125
 !MCSCF expec      <3.2 Doublet|LYLY|3.2 Doublet>     3.999993525840
 !MCSCF expec      <4.2 Doublet|LYLY|4.2 Doublet>     1.080729867349
 !MCSCF expec      <5.2 Doublet|LYLY|5.2 Doublet>     0.999999959330
 !MCSCF expec      <6.2 Doublet|LYLY|6.2 Doublet>     0.000000001436
 !MCSCF expec      <7.2 Doublet|LYLY|7.2 Doublet>     1.000000000000
 !MCSCF expec      <8.2 Doublet|LYLY|8.2 Doublet>     0.999999998661
 
 !MCSCF expec      <1.2 Quartet|LZLZ|1.2 Quartet>     0.000000000000
 !MCSCF expec      <2.2 Quartet|LZLZ|2.2 Quartet>     3.120828027791
 !MCSCF expec      <3.2 Quartet|LZLZ|3.2 Quartet>     3.999999882712
 !MCSCF expec      <4.2 Quartet|LZLZ|4.2 Quartet>     1.000000000000
 !MCSCF expec      <5.2 Quartet|LZLZ|5.2 Quartet>     0.879153860111
 !MCSCF expec      <6.2 Quartet|LZLZ|6.2 Quartet>     0.999999932915
 !MCSCF expec      <7.2 Quartet|LZLZ|7.2 Quartet>     0.000000002758
 !MCSCF expec      <8.2 Quartet|LZLZ|8.2 Quartet>     0.999999997521
 !MCSCF expec      <9.2 Quartet|LZLZ|9.2 Quartet>     0.999999999818
 !MCSCF expec      <1.2 Doublet|LZLZ|1.2 Doublet>     0.002119056757
 !MCSCF expec      <2.2 Doublet|LZLZ|2.2 Doublet>     0.999999984091
 !MCSCF expec      <3.2 Doublet|LZLZ|3.2 Doublet>     1.000007332290
 !MCSCF expec      <4.2 Doublet|LZLZ|4.2 Doublet>     3.997874698505
 !MCSCF expec      <5.2 Doublet|LZLZ|5.2 Doublet>     3.999999929508
 !MCSCF expec      <6.2 Doublet|LZLZ|6.2 Doublet>     0.999999998769
 !MCSCF expec      <7.2 Doublet|LZLZ|7.2 Doublet>     1.000000000000
 !MCSCF expec      <8.2 Doublet|LZLZ|8.2 Doublet>     0.000000001340
 
 !MCSCF expec      <1.2 Quartet|L**2|1.2 Quartet>     0.000000000000
 !MCSCF expec      <2.2 Quartet|L**2|2.2 Quartet>     6.000000000000
 !MCSCF expec      <3.2 Quartet|L**2|3.2 Quartet>     6.000000000000
 !MCSCF expec      <4.2 Quartet|L**2|4.2 Quartet>     6.000000000000
 !MCSCF expec      <5.2 Quartet|L**2|5.2 Quartet>     6.000000000000
 !MCSCF expec      <6.2 Quartet|L**2|6.2 Quartet>     6.000000000000
 !MCSCF expec      <7.2 Quartet|L**2|7.2 Quartet>     2.000000000000
 !MCSCF expec      <8.2 Quartet|L**2|8.2 Quartet>     2.000000000000
 !MCSCF expec      <9.2 Quartet|L**2|9.2 Quartet>     2.000000000000
 !MCSCF expec      <1.2 Doublet|L**2|1.2 Doublet>     6.000000000000
 !MCSCF expec      <2.2 Doublet|L**2|2.2 Doublet>     6.000000000000
 !MCSCF expec      <3.2 Doublet|L**2|3.2 Doublet>     6.000000000000
 !MCSCF expec      <4.2 Doublet|L**2|4.2 Doublet>     6.000000000000
 !MCSCF expec      <5.2 Doublet|L**2|5.2 Doublet>     6.000000000000
 !MCSCF expec      <6.2 Doublet|L**2|6.2 Doublet>     2.000000000000
 !MCSCF expec      <7.2 Doublet|L**2|7.2 Doublet>     2.000000000000
 !MCSCF expec      <8.2 Doublet|L**2|8.2 Doublet>     2.000000000000
 
 EXTRA SYMMETRY OF MOS IN SYMMETRY 1:   1 1 1 6 2 4 3 5 1 1   6 4 2 5 3 1 3 5 4 6   2 1 6 2 4 3 5 6 2 4   3 5 1 6 2 4 3 511 7
                                        812 914151013 1 6 2   4 5 3 1
 EXTRA SYMMETRY OF MOS IN SYMMETRY 2:   3 2 1 3 2 1 1 2 3 3   2 1 1 3 2 9 710 8 4   6 5 1 3 2 5 6 4 810   9 7 3 2 1 5 6 4 810
                                        9 7 5 6 4 810 7 9 3   2 1 5 6 410 8 7 9 3   2 1
 
  NATURAL ORBITALS (STATE AVERAGED)
  =================================

  Orbital  Occupation    Energy    Cen Mu Typ  Coefficients
    1.1     2.00000  -439.08383     1  1  s    1.00001
    2.1     2.00000   -57.89571     1  2  s    0.99976
    3.1     2.00000    -8.39251     1  3  s    0.99855
    4.1     2.00000    -2.18483     1  1  d1-  1.00034
    5.1     2.00000    -2.18483     1  1  d0   1.00034
    6.1     2.00000    -2.18483     1  1  d1+  1.00034
    7.1     2.00000    -2.18483     1  1  d2-  1.00034
    8.1     2.00000    -2.18483     1  1  d2+  1.00034
    9.1     1.97954    -0.79070     1  4  s    1.04951
    1.2     2.00000   -50.60449     1  1  pz   0.99994
    2.2     2.00000   -50.60449     1  1  py   0.99994
    3.2     2.00000   -50.60449     1  1  px   0.99994
    4.2     2.00000    -6.05055     1  2  pz   0.99944
    5.2     2.00000    -6.05055     1  2  py   0.99944
    6.2     2.00000    -6.05055     1  2  px   0.99944
    7.2     0.84698    -0.20930     1  3  px   1.02172
    8.2     0.84698    -0.20930     1  3  py   1.02172
    9.2     0.84698    -0.20930     1  3  pz   1.02172
   10.2     0.15984     0.04453     1  3  pz  -0.48846    1  8  pz   0.71546    1  9  pz   0.41625
   11.2     0.15984     0.04453     1  3  py  -0.48846    1  8  py   0.71546    1  9  py   0.41625
   12.2     0.15984     0.04453     1  3  px  -0.48846    1  8  px   0.71546    1  9  px   0.41625
 
 Natural orbital dump (state averaged) at molpro section 2140.2 (Orbital set 2)
 
 Transform the CI vectors
 
 CI Coefficients of symmetry 2 (Quartet)
 =======================================

 State:              1               2               3               4               5               6               7
 2 aaa000       0.99914166     -0.00000006     -0.00000000     -0.00000000      0.00000009     -0.00000000     -0.00000000
 2 a0a0a0       0.00611544      0.80814469      0.00018390      0.00001522      0.02881721     -0.00004000      0.00000000
 2 aa0a00      -0.00611543      0.37911588      0.00011353      0.00000714      0.71428231     -0.00044838     -0.00000000
 2 aa00a0      -0.00000000     -0.00001319     -0.00001167      0.70031869     -0.00000000      0.00000001      0.00003554
 2 0aa0a0       0.00000000      0.00015840     -0.70031864     -0.00001166      0.00002727      0.00003618      0.70021671
 2 a0aa00      -0.00000000      0.00001319      0.00001167     -0.70031863      0.00000000     -0.00000001      0.00003554
 2 a0a00a       0.00000000     -0.00015840      0.70031863      0.00001166     -0.00002727     -0.00003618      0.70021673
 2 aa000a      -0.00000000      0.00001934      0.00003620     -0.00000001      0.00042934      0.70031854      0.00000945
 2 0aaa00      -0.00000000      0.00001934      0.00003620     -0.00000001      0.00042934      0.70031850     -0.00000945
 2 0aa00a      -0.00611530      0.42902878      0.00007037      0.00000808     -0.68546511      0.00040838      0.00000000
 0 a2a0a0       0.01896870     -0.08383519     -0.00001908     -0.00000158     -0.00298943      0.00000415     -0.00000000
 0 aa2a00      -0.01896870     -0.03932866     -0.00001178     -0.00000074     -0.07409811      0.00004651      0.00000000
 0 2aaa00       0.00000000     -0.00000201     -0.00000376      0.00000000     -0.00004454     -0.07264954      0.00000099
 0 a2aa00      -0.00000000     -0.00000137     -0.00000121      0.07264955     -0.00000000      0.00000000     -0.00000373
 0 2aa0a0      -0.00000000     -0.00001643      0.07264955      0.00000121     -0.00000283     -0.00000375     -0.07357943
 0 a2a00a      -0.00000000      0.00001643     -0.07264954     -0.00000121      0.00000283      0.00000375     -0.07357943
 0 aa20a0      -0.00000000      0.00000137      0.00000121     -0.07264955      0.00000000     -0.00000000     -0.00000373
 0 aa200a       0.00000000     -0.00000201     -0.00000376      0.00000000     -0.00004454     -0.07264954     -0.00000099
 0 2aa00a      -0.01896870     -0.04450652     -0.00000730     -0.00000084      0.07110867     -0.00004236     -0.00000000
 2 0a0a0a      -0.01223084     -0.07057132     -0.00001606     -0.00000133     -0.00251637      0.00000349     -0.00000000
 2 00a0aa       0.01223084     -0.03310625     -0.00000991     -0.00000062     -0.06237482      0.00003915     -0.00000000
 2 0a0aa0      -0.00000000     -0.00001383      0.06115544      0.00000102     -0.00000238     -0.00000316     -0.06114912
 2 a00a0a      -0.00000000      0.00001383     -0.06115544     -0.00000102      0.00000238      0.00000316     -0.06114912
 2 a000aa      -0.00000000     -0.00000169     -0.00000316      0.00000000     -0.00003749     -0.06115543     -0.00000083
 2 00aaa0       0.00000000     -0.00000169     -0.00000316      0.00000000     -0.00003749     -0.06115543      0.00000083
 2 0a00aa      -0.00000000      0.00000115      0.00000102     -0.06115535      0.00000000     -0.00000000     -0.00000310
 2 00aa0a      -0.00000000     -0.00000115     -0.00000102      0.06115535     -0.00000000      0.00000000     -0.00000310
 2 a00aa0       0.01223084     -0.03746501     -0.00000614     -0.00000071      0.05985836     -0.00003566     -0.00000000
 
 Energy:    -2259.09241344  -2258.83024081  -2258.83024081  -2258.83024081  -2258.83024081  -2258.83024081  -2258.82547157

 State:              8               9
 2 aaa000       0.00000000      0.00000000
 2 a0a0a0       0.00000000      0.00000000
 2 aa0a00       0.00000000     -0.00000000
 2 aa00a0       0.70021670      0.00000821
 2 0aa0a0      -0.00003554     -0.00000945
 2 a0aa00       0.70021675      0.00000821
 2 a0a00a      -0.00003554     -0.00000945
 2 aa000a      -0.00000821      0.70021670
 2 0aaa00       0.00000821     -0.70021674
 2 0aa00a       0.00000000      0.00000000
 0 a2a0a0      -0.00000000     -0.00000000
 0 aa2a00      -0.00000000      0.00000000
 0 2aaa00      -0.00000086      0.07357944
 0 a2aa00      -0.07357943     -0.00000086
 0 2aa0a0       0.00000373      0.00000099
 0 a2a00a       0.00000373      0.00000099
 0 aa20a0      -0.07357943     -0.00000086
 0 aa200a       0.00000086     -0.07357943
 0 2aa00a      -0.00000000     -0.00000000
 2 0a0a0a      -0.00000000     -0.00000000
 2 00a0aa      -0.00000000      0.00000000
 2 0a0aa0       0.00000310      0.00000083
 2 a00a0a       0.00000310      0.00000083
 2 a000aa       0.00000072     -0.06114912
 2 00aaa0      -0.00000072      0.06114913
 2 0a00aa      -0.06114903     -0.00000072
 2 00aa0a      -0.06114903     -0.00000072
 2 a00aa0      -0.00000000     -0.00000000
 
 Energy:    -2258.82547157  -2258.82547157
 
 
 CI Coefficients of symmetry 2 (Doublet)
 =======================================

 State:              1               2               3               4               5               6               7
 2 aab000       0.81355312      0.00002843      0.00013960     -0.01872969     -0.00009168      0.00000000      0.00000000
 2 baa000      -0.39055602     -0.00000367     -0.00117336      0.71392165     -0.00009198     -0.00000000     -0.00000000
 2 a02000       0.00002486     -0.70474438      0.00000556      0.00000998     -0.00000223      0.00000994      0.69477326
 2 a20000      -0.00002486      0.70474437     -0.00000556     -0.00000998      0.00000223      0.00000994      0.69477327
 2 02a000      -0.00008255      0.00000223      0.00002605     -0.00013592     -0.70474436     -0.00002438      0.00000000
 2 20a000       0.00008255     -0.00000223     -0.00002605      0.00013592      0.70474435     -0.00002438      0.00000000
 2 0a2000       0.00009547     -0.00000557     -0.70474351     -0.00110605     -0.00002584      0.69477326     -0.00000994
 2 2a0000      -0.00009547      0.00000557      0.70474349      0.00110605      0.00002584      0.69477326     -0.00000994
 2 aba000      -0.42299710     -0.00002476      0.00103375     -0.69519196      0.00018366     -0.00000000     -0.00000000
 0 22a000       0.00000000     -0.00000000     -0.00000000      0.00000000      0.00000000      0.00000529     -0.00000000
 0 2a2000      -0.00000000      0.00000000      0.00000001      0.00000000      0.00000000     -0.15085456      0.00000216
 0 a22000       0.00000000      0.00000000      0.00000000      0.00000000      0.00000000     -0.00000216     -0.15085455
 2 aa000b       0.00000480     -0.00000028     -0.03546999     -0.00005567     -0.00000130     -0.05423846      0.00000078
 2 a0a00b      -0.00000415      0.00000011      0.00000131     -0.00000684     -0.03547004      0.00000190     -0.00000000
 2 a0ab00       0.00000125     -0.03546994      0.00000028      0.00000050     -0.00000011      0.00000078      0.05423836
 2 0aab00       0.00000480     -0.00000028     -0.03546990     -0.00005567     -0.00000130      0.05423836     -0.00000078
 2 aa00b0      -0.00000125      0.03546994     -0.00000028     -0.00000050      0.00000011      0.00000078      0.05423836
 2 0aa0b0       0.00000415     -0.00000011     -0.00000131      0.00000684      0.03546994      0.00000190     -0.00000000
 
 Energy:    -2259.02585977  -2259.02585977  -2259.02585977  -2259.02585977  -2259.02585977  -2259.00088805  -2259.00088805

 State:              8
 2 aab000      -0.00000000
 2 baa000       0.00000000
 2 a02000       0.00000000
 2 a20000       0.00000000
 2 02a000       0.69477326
 2 20a000       0.69477325
 2 0a2000       0.00002438
 2 2a0000       0.00002438
 2 aba000      -0.00000000
 0 22a000      -0.15085456
 0 2a2000      -0.00000529
 0 a22000      -0.00000000
 2 aa000b      -0.00000190
 2 a0a00b      -0.05423846
 2 a0ab00       0.00000000
 2 0aab00       0.00000190
 2 aa00b0       0.00000000
 2 0aa0b0      -0.05423836
 
 Energy:    -2259.00088805
 


 **********************************************************************************************************************************
 DATASETS  * FILE   NREC   LENGTH (MB)   RECORD NAMES
              1      24       47.32       500      610      700      900      950      970     1000      129      960     1700   
                                          VAR    BASINP    GEOM    SYMINP    ZMAT    AOBASIS   BASIS     P2S    ABASIS    OPER   
                                         1101     1401     1411     1412     1650     1100     1400     1410     1200     1210   
                                          SR      EKINR    POTR     PVPR    MOLCAS      S      EKIN      POT      H0       H01  
                                         1080     1600     1380     1700(1)
                                         AOSYM     SMH     JKOP     OPER   

              2       5        0.93       700     1000      520     2100     2140   
                                         GEOM     BASIS   MCVARS     RHF     MCSCF   

 PROGRAMS   *        TOTAL     MULTI   RHF-SCF       INT
 CPU TIMES  *         5.01      3.48      0.08      1.13
 REAL TIME  *         6.88 SEC
 DISK USED  *        48.34 MB (local),      641.32 MB (total)
 SF USED    *        45.74 MB
 GA USED    *         0.00 MB       (max)       0.00 MB       (current)
 **********************************************************************************************************************************

 Energies and &lt;L**2&gt; values

          ENERGY    LL
    -2259.092413   0.0
    -2258.830241   6.0
    -2258.830241   6.0
    -2258.830241   6.0
    -2258.830241   6.0
    -2258.830241   6.0
    -2258.825472   2.0
    -2258.825472   2.0
    -2258.825472   2.0
    -2259.025860   6.0
    -2259.025860   6.0
    -2259.025860   6.0
    -2259.025860   6.0
    -2259.025860   6.0
    -2259.000888   2.0
    -2259.000888   2.0
    -2259.000888   2.0
                                                  


 PROGRAM * CI (Multireference internally contracted CI)     Authors: H.-J. Werner, P.J. Knowles, 1987


 Convergence thresholds:  THRVAR = 1.00D-08  THRDEN = 1.00D-06

 Number of optimized states: 9  Roots:    1   2   3   4   5   6   7   8   9
 Number of reference states: 9  Roots:    1   2   3   4   5   6   7   8   9

 Reference symmetry:                   2   Quartet 
 Number of electrons:                 33
 Maximum number of shells:             5
 Maximum number of spin couplings:   165

 Reference space:       86 conf      104 CSFs
 N elec internal:    18764 conf    67760 CSFs
 N-1 el internal:    14189 conf   101369 CSFs
 N-2 el internal:     4931 conf    61610 CSFs

 Number of electrons in valence space:                     23
 Maximum number of open shell orbitals in reference space:  5
 Maximum number of open shell orbitals in internal spaces: 11


 Number of core orbitals:           5 (   2   3 )
 Number of closed-shell orbitals:   9 (   6   3 )
 Number of active  orbitals:        7 (   1   6 )
 Number of external orbitals:      95 (  45  50 )

 Molecular orbitals read from record     2140.2  Type=MCSCF/NATURAL (state averaged)

 Integral transformation finished. Total CPU:   0.13 sec, npass=  1  Memory used:   1.17 MW


 Number of p-space configurations:  10

 Reference wavefunction optimized for reference space (refopt=1)

 State     Reference Energy 
     1     -2259.09241344
     2     -2258.83024081
     3     -2258.83024081
     4     -2258.83024081
     5     -2258.83024081
     6     -2258.83024081
     7     -2258.82547157
     8     -2258.82547157
     9     -2258.82547157

 ?WARNING: SMALL EIGENVALUE OF PAIR OVERLAP MATRIX:  0.1743D-06

 ?WARNING: SMALL EIGENVALUE OF PAIR OVERLAP MATRIX:  0.1054D-06

 Number of blocks in overlap matrix:   913   Smallest eigenvalue:  0.11D-06
 Number of N-2 electron functions:    1994
 Number of N-1 electron functions:  101369

 Number of internal configurations:                33680
 Number of singly external configurations:       4815210
 Number of doubly external configurations:       4499175
 Total number of contracted configurations:      9348065
 Total number of uncontracted configurations:  143206415

 Diagonal Coupling coefficients finished.               Storage:  20919763 words, CPU-Time:     43.59 seconds.
 Energy denominators for pairs finished in 1 passes.    Storage:   1660164 words, CPU-time:      0.20 seconds.

  ITER. STATE  ROOT     SQ.NORM     CORR.ENERGY   TOTAL ENERGY   ENERGY CHANGE       DEN1      VAR(S)    VAR(P)      TIME
    1     1     1     1.00000000     0.00000000 -2259.09241344    -0.00000000    -0.90805187  0.44D-01  0.59D-01    54.12
    1     2     2     1.00000000     0.00000000 -2258.83024081     0.00000000    -0.88164941  0.38D-01  0.55D-01    54.12
    1     3     3     1.00000000     0.00000000 -2258.83024081     0.00000000    -0.88167194  0.38D-01  0.55D-01    54.12
    1     4     4     1.00000000     0.00000000 -2258.83024081     0.00000000    -0.88192035  0.38D-01  0.55D-01    54.12
    1     5     5     1.00000000     0.00000000 -2258.83024081     0.00000000    -0.88131511  0.38D-01  0.55D-01    54.12
    1     6     6     1.00000000     0.00000000 -2258.83024081     0.00000000    -0.88187701  0.38D-01  0.55D-01    54.12
    1     7     7     1.00000000     0.00000000 -2258.82547157     0.00000000    -0.88243004  0.39D-01  0.56D-01    54.12
    1     8     8     1.00000000     0.00000000 -2258.82547157    -0.00000000    -0.88263442  0.39D-01  0.56D-01    54.12
    1     9     9     1.00000000     0.00000000 -2258.82547157     0.00000000    -0.88256857  0.39D-01  0.56D-01    54.12
    2     1     1     1.06792186    -0.73652184 -2259.82893527    -0.73652184    -0.01829141  0.28D-02  0.88D-03   383.95
    2     2     2     1.06224660    -0.72380786 -2259.55404866    -0.72380786    -0.01629027  0.20D-02  0.77D-03   383.95
    2     3     3     1.06247192    -0.72372101 -2259.55396182    -0.72372101    -0.01635695  0.20D-02  0.77D-03   383.95
    2     4     4     1.06256948    -0.72365872 -2259.55389953    -0.72365872    -0.01640831  0.20D-02  0.78D-03   383.95
    2     5     5     1.06266427    -0.72362168 -2259.55386248    -0.72362168    -0.01645520  0.21D-02  0.78D-03   383.95
    2     6     6     1.06244659    -0.72360134 -2259.55384214    -0.72360134    -0.01648132  0.20D-02  0.78D-03   383.95
    2     7     7     1.06313898    -0.72379494 -2259.54926651    -0.72379494    -0.01659283  0.22D-02  0.78D-03   383.95
    2     8     8     1.06323463    -0.72373731 -2259.54920888    -0.72373731    -0.01664329  0.22D-02  0.78D-03   383.95
    2     9     9     1.06328603    -0.72371943 -2259.54919100    -0.72371943    -0.01666662  0.22D-02  0.78D-03   383.95
    3     1     1     1.05961107    -0.75430683 -2259.84672026    -0.01778499    -0.00059366  0.75D-04  0.58D-04   713.14
    3     2     2     1.05730256    -0.73892532 -2259.56916613    -0.01511747    -0.00049526  0.64D-04  0.39D-04   713.14
    3     3     3     1.05730463    -0.73891909 -2259.56915990    -0.01519808    -0.00049988  0.64D-04  0.40D-04   713.14
    3     4     4     1.05724183    -0.73891766 -2259.56915846    -0.01525893    -0.00050066  0.64D-04  0.40D-04   713.14
    3     5     5     1.05730526    -0.73891731 -2259.56915811    -0.01529563    -0.00050148  0.64D-04  0.40D-04   713.14
    3     6     6     1.05729557    -0.73891466 -2259.56915547    -0.01531333    -0.00050230  0.64D-04  0.41D-04   713.14
    3     7     7     1.05750545    -0.73926458 -2259.56473616    -0.01546965    -0.00051752  0.69D-04  0.42D-04   713.14
    3     8     8     1.05750573    -0.73926325 -2259.56473482    -0.01552594    -0.00051864  0.69D-04  0.43D-04   713.14
    3     9     9     1.05749815    -0.73925914 -2259.56473071    -0.01553971    -0.00051996  0.69D-04  0.43D-04   713.14
    4     1     1     1.05922314    -0.75494148 -2259.84735492    -0.00063465    -0.00004363  0.34D-05  0.62D-05  1046.61
    4     2     2     1.05695391    -0.73942785 -2259.56966865    -0.00050253    -0.00003599  0.32D-05  0.51D-05  1046.61
    4     3     3     1.05694627    -0.73942712 -2259.56966793    -0.00050803    -0.00003665  0.32D-05  0.52D-05  1046.61
    4     4     4     1.05694301    -0.73942697 -2259.56966778    -0.00050932    -0.00003680  0.32D-05  0.53D-05  1046.61
    4     5     5     1.05693624    -0.73942614 -2259.56966695    -0.00050884    -0.00003687  0.32D-05  0.53D-05  1046.61
    4     6     6     1.05693737    -0.73942585 -2259.56966665    -0.00051118    -0.00003730  0.32D-05  0.54D-05  1046.61
    4     7     7     1.05713530    -0.73979214 -2259.56526372    -0.00052756    -0.00003932  0.33D-05  0.58D-05  1046.61
    4     8     8     1.05713249    -0.73979196 -2259.56526353    -0.00052871    -0.00003947  0.33D-05  0.58D-05  1046.61
    4     9     9     1.05712645    -0.73979028 -2259.56526185    -0.00053113    -0.00004025  0.33D-05  0.60D-05  1046.61
    5     1     1     1.05968465    -0.75499143 -2259.84740486    -0.00004995    -0.00000519  0.32D-06  0.71D-06  1377.62
    5     2     2     1.05716665    -0.73947140 -2259.56971220    -0.00004355    -0.00000494  0.20D-06  0.82D-06  1377.62
    5     3     3     1.05716718    -0.73947137 -2259.56971218    -0.00004425    -0.00000496  0.20D-06  0.83D-06  1377.62
    5     4     4     1.05716768    -0.73947137 -2259.56971217    -0.00004439    -0.00000488  0.20D-06  0.81D-06  1377.62
    5     5     5     1.05716623    -0.73947110 -2259.56971191    -0.00004496    -0.00000512  0.21D-06  0.85D-06  1377.62
    5     6     6     1.05716966    -0.73947096 -2259.56971176    -0.00004511    -0.00000512  0.21D-06  0.85D-06  1377.62
    5     7     7     1.05738920    -0.73983998 -2259.56531155    -0.00004784    -0.00000533  0.22D-06  0.87D-06  1377.62
    5     8     8     1.05738961    -0.73983995 -2259.56531152    -0.00004799    -0.00000535  0.22D-06  0.87D-06  1377.62
    5     9     9     1.05738824    -0.73983956 -2259.56531113    -0.00004928    -0.00000559  0.23D-06  0.90D-06  1377.62
    6     1     1     1.05976327    -0.75499773 -2259.84741116    -0.00000630    -0.00000057  0.33D-07  0.69D-07  1709.92
    6     2     2     1.05724153    -0.73947812 -2259.56971892    -0.00000672    -0.00000069  0.38D-07  0.94D-07  1709.92
    6     3     3     1.05724155    -0.73947812 -2259.56971892    -0.00000674    -0.00000069  0.38D-07  0.94D-07  1709.92
    6     4     4     1.05724182    -0.73947808 -2259.56971888    -0.00000671    -0.00000072  0.39D-07  0.97D-07  1709.92
    6     5     5     1.05724160    -0.73947801 -2259.56971882    -0.00000691    -0.00000068  0.37D-07  0.91D-07  1709.92
    6     6     6     1.05724234    -0.73947797 -2259.56971877    -0.00000701    -0.00000072  0.39D-07  0.95D-07  1709.92
    6     7     7     1.05746985    -0.73984713 -2259.56531870    -0.00000715    -0.00000071  0.39D-07  0.96D-07  1709.92
    6     8     8     1.05746959    -0.73984713 -2259.56531870    -0.00000718    -0.00000071  0.39D-07  0.96D-07  1709.92
    6     9     9     1.05746967    -0.73984708 -2259.56531865    -0.00000752    -0.00000075  0.41D-07  0.10D-06  1709.92
    7     1     1     1.05974947    -0.75499836 -2259.84741180    -0.00000064    -0.00000006  0.34D-08  0.83D-08  2041.66
    7     2     2     1.05723335    -0.73947893 -2259.56971973    -0.00000081    -0.00000010  0.79D-08  0.14D-07  2041.66
    7     3     3     1.05723333    -0.73947893 -2259.56971973    -0.00000081    -0.00000010  0.79D-08  0.14D-07  2041.66
    7     4     4     1.05723306    -0.73947892 -2259.56971973    -0.00000084    -0.00000011  0.82D-08  0.14D-07  2041.66
    7     5     5     1.05723344    -0.73947881 -2259.56971962    -0.00000080    -0.00000010  0.77D-08  0.13D-07  2041.66
    7     6     6     1.05723299    -0.73947880 -2259.56971961    -0.00000084    -0.00000010  0.81D-08  0.14D-07  2041.66
    7     7     7     1.05746113    -0.73984796 -2259.56531953    -0.00000083    -0.00000010  0.81D-08  0.14D-07  2041.66
    7     8     8     1.05746112    -0.73984796 -2259.56531953    -0.00000083    -0.00000010  0.81D-08  0.14D-07  2041.66
    7     9     9     1.05746069    -0.73984795 -2259.56531952    -0.00000087    -0.00000011  0.86D-08  0.15D-07  2041.66
    8     1     1     1.05975467    -0.75499843 -2259.84741186    -0.00000007    -0.00000001  0.82D-09  0.11D-08  2372.43
    8     2     2     1.05723706    -0.73947904 -2259.56971984    -0.00000011    -0.00000002  0.14D-08  0.27D-08  2372.43
    8     3     3     1.05723707    -0.73947904 -2259.56971984    -0.00000011    -0.00000002  0.13D-08  0.26D-08  2372.43
    8     4     4     1.05723701    -0.73947904 -2259.56971984    -0.00000011    -0.00000002  0.14D-08  0.27D-08  2372.43
    8     5     5     1.05723704    -0.73947892 -2259.56971972    -0.00000011    -0.00000002  0.13D-08  0.26D-08  2372.43
    8     6     6     1.05723693    -0.73947892 -2259.56971972    -0.00000011    -0.00000002  0.14D-08  0.27D-08  2372.43
    8     7     7     1.05746555    -0.73984807 -2259.56531964    -0.00000011    -0.00000002  0.13D-08  0.27D-08  2372.43
    8     8     8     1.05746558    -0.73984807 -2259.56531964    -0.00000011    -0.00000002  0.13D-08  0.27D-08  2372.43
    8     9     9     1.05746532    -0.73984807 -2259.56531964    -0.00000012    -0.00000002  0.14D-08  0.29D-08  2372.43


 =====================================
 Analysis of CPU times by interactions
 =====================================

       I      S      P

 I   1.2%
 S   0.8%  13.4%
 P   0.3%  51.2%  25.0%

 Initialization:   1.9%
 Other:            6.2%

 Total CPU:     2372.4 seconds
 =====================================



 Wavefunction saved on  5302.2

 Reference coefficients greater than 0.0500000
 =============================================
 2222222222///000           0.9705497  -0.0000000   0.0000000   0.0000000  -0.0000001   0.0000001   0.0000000  -0.0000000
                            0.0000000
 2222222222//0/00          -0.0116249   0.0063653  -0.0101388  -0.0012321   0.0089669   0.7866885   0.0000003  -0.0000006
                           -0.0000001
 2222222222/0/0/0           0.0116249   0.0036694  -0.0054173   0.0011046   0.6858534   0.3855721  -0.0000002  -0.0000009
                           -0.0000002
 22222222220//0/0          -0.0000000  -0.1178746   0.6702545  -0.0331804   0.0006193   0.0095327   0.6812293   0.0000021
                            0.0000003
[...]
   23    5.2  1.5 -0.5   0.003%   0.000%   0.004%  10.028%   0.000%   8.352%   6.709%   0.027%   3.457%   0.203%
   24    6.2  1.5 -0.5  19.141%   0.252%   0.078%   8.314%   0.118%   9.874%   3.051%   0.062%   4.379%   0.226%
   25    7.2  1.5 -0.5   0.983%   0.014%   0.003%   0.236%   0.003%   0.296%   2.184%   0.051%   3.616%   0.174%
   26    8.2  1.5 -0.5   0.003%   0.246%   3.683%   0.012%   0.060%   0.012%   0.014%   0.806%   0.073%   0.997%
   27    9.2  1.5 -0.5   0.003%   0.246%   0.002%   0.010%   3.743%   0.012%   0.011%   0.704%   0.036%   1.071%
   28    1.2  1.5 -1.5   0.000%   0.000%   0.000%   0.000%   0.000%   0.000%   0.000%   0.000%   0.000%   0.000%
   29    2.2  1.5 -1.5   5.035%   0.250%   0.173%   7.969%   0.186%  10.057%  32.345%   0.218%   0.738%   0.447%
   30    3.2  1.5 -1.5   0.030%  18.898%   8.067%   0.130%  10.060%   0.126%   1.165%   2.730%   0.464%   4.215%
   31    4.2  1.5 -1.5   4.764%   0.120%   0.038%   8.109%   0.059%  10.179%   0.662%   0.093%  31.608%   1.796%
   32    5.2  1.5 -1.5   0.276%  19.122%   8.262%   0.090%   9.923%   0.109%   0.062%   2.808%   0.208%   4.626%
   33    6.2  1.5 -1.5   0.001%   0.006%   9.989%   0.003%   8.390%   0.001%   0.003%   3.288%   0.159%   1.924%
   34    7.2  1.5 -1.5   0.000%   0.000%   2.696%   0.001%   2.147%   0.000%   0.000%   0.279%   0.015%   0.173%
   35    8.2  1.5 -1.5   0.737%   0.010%   0.008%   0.708%   0.009%   0.890%   2.409%   0.017%   2.322%   0.178%
   36    9.2  1.5 -1.5   0.737%   0.010%   0.008%   0.708%   0.009%   0.889%   3.564%   0.003%   1.339%   0.049%
   37    1.2  0.5  0.5   0.000%   0.000%   0.001%   0.000%   0.001%   0.000%   0.000%   0.002%   0.000%   0.001%
   38    2.2  0.5  0.5   0.000%   0.000%   0.001%   0.000%   0.001%   0.000%   0.000%   0.001%   0.000%   0.000%
   39    3.2  0.5  0.5   0.000%   0.000%   0.000%   0.001%   0.000%   0.000%   0.000%   0.001%   0.001%   0.001%
   40    4.2  0.5  0.5   0.000%   0.000%   0.000%   0.001%   0.000%   0.000%   0.000%   0.000%   0.000%   0.001%
   41    5.2  0.5  0.5   0.000%   0.000%   0.000%   0.000%   0.000%   0.001%   0.001%   0.000%   0.000%   0.000%
   42    6.2  0.5  0.5   0.002%   0.000%   0.000%   0.002%   0.000%   0.000%   0.000%   0.000%   0.000%   0.000%
   43    7.2  0.5  0.5   0.000%   0.002%   0.001%   0.000%   0.001%   0.000%   0.000%   0.000%   0.000%   0.000%
   44    8.2  0.5  0.5   0.002%   0.000%   0.000%   0.000%   0.000%   0.002%   0.000%   0.000%   0.000%   0.000%
   45    1.2  0.5 -0.5   0.000%   0.000%   0.000%   0.001%   0.000%   0.001%   0.002%   0.000%   0.001%   0.000%
   46    2.2  0.5 -0.5   0.000%   0.000%   0.000%   0.001%   0.000%   0.001%   0.001%   0.000%   0.000%   0.000%
   47    3.2  0.5 -0.5   0.000%   0.000%   0.001%   0.000%   0.000%   0.000%   0.001%   0.000%   0.001%   0.001%
   48    4.2  0.5 -0.5   0.000%   0.000%   0.001%   0.000%   0.000%   0.000%   0.000%   0.000%   0.001%   0.000%
   49    5.2  0.5 -0.5   0.000%   0.000%   0.000%   0.000%   0.001%   0.000%   0.000%   0.001%   0.000%   0.000%
   50    6.2  0.5 -0.5   0.000%   0.002%   0.002%   0.000%   0.000%   0.000%   0.000%   0.000%   0.000%   0.000%
   51    7.2  0.5 -0.5   0.002%   0.000%   0.000%   0.001%   0.000%   0.001%   0.000%   0.000%   0.000%   0.000%
   52    8.2  0.5 -0.5   0.000%   0.002%   0.000%   0.000%   0.002%   0.000%   0.000%   0.000%   0.000%   0.000%

   Nr   State  S   Sz      31       32       33       34       35       36       37       38       39       40

    1    1.2  1.5  1.5   0.000%   0.000%   0.000%   0.000%   0.004%   0.000%   0.002%   0.000%   0.000%   0.000%
    2    2.2  1.5  1.5   2.008%   0.003%   0.147%   0.016%   0.018%   0.499%   0.033%   1.065%  22.602%   2.919%
    3    3.2  1.5  1.5   0.073%   0.004%   0.026%   0.558%   0.502%   0.018%   1.056%   0.040%   0.615%   0.605%
    4    4.2  1.5  1.5   2.386%   0.009%   0.138%   0.013%   0.001%   0.514%   0.007%   1.092%  19.078%   2.608%
    5    5.2  1.5  1.5   0.000%   0.012%   0.023%   0.575%   0.532%   0.000%   1.081%   0.001%   0.000%   0.085%
    6    6.2  1.5  1.5   0.016%  40.857%   0.000%   0.000%   1.077%   0.000%   0.537%   0.000%   0.548%   3.600%
    7    7.2  1.5  1.5   0.002%   3.549%   0.000%   0.000%  37.535%   0.006%  17.604%   0.007%   0.000%   0.000%
    8    8.2  1.5  1.5   0.595%   0.002%  23.312%   0.940%   0.000%   5.870%   0.011%  12.503%   0.000%   0.000%
    9    9.2  1.5  1.5   0.566%   0.002%  23.311%   0.940%   0.000%   5.870%   0.011%  12.502%   0.000%   0.000%
   10    1.2  1.5  0.5   0.000%   0.000%   0.000%   0.000%   0.000%   0.002%   0.000%   0.004%   0.000%   0.000%
   11    2.2  1.5  0.5   0.210%   1.169%   0.017%   0.418%   1.066%   0.033%   0.504%   0.013%   0.001%   6.336%
   12    3.2  1.5  0.5   6.207%   0.031%   0.001%   0.014%   0.035%   1.060%   0.014%   0.505%  25.130%   2.092%
   13    4.2  1.5  0.5   0.023%   1.079%   0.018%   0.430%   1.098%   0.002%   0.514%   0.002%   0.409%   2.564%
   14    5.2  1.5  0.5  35.824%   0.037%   0.000%   0.000%   0.000%   1.081%   0.000%   0.532%   9.184%   1.231%
   15    6.2  1.5  0.5   0.005%   0.000%   0.574%   0.024%   0.000%   0.537%   0.001%   1.076%   0.344%   0.047%
   16    7.2  1.5  0.5   0.001%   0.000%  31.083%   1.254%   0.000%   1.956%   0.004%   4.168%   0.000%   0.000%
   17    8.2  1.5  0.5   0.001%   2.628%   0.313%   7.771%  40.122%   0.002%   2.765%   0.007%   0.000%   0.000%
   18    9.2  1.5  0.5   0.001%   2.695%   0.313%   7.770%   0.554%   0.003%  42.310%   0.027%   0.000%   0.000%
   19    1.2  1.5 -0.5   0.000%   0.000%   0.000%   0.000%   0.002%   0.000%   0.004%   0.000%   0.000%   0.000%
   20    2.2  1.5 -0.5   1.169%   0.210%   0.418%   0.017%   0.033%   1.066%   0.013%   0.504%   6.336%   0.001%
   21    3.2  1.5 -0.5   0.031%   6.207%   0.014%   0.001%   1.060%   0.035%   0.505%   0.014%   2.092%  25.130%
   22    4.2  1.5 -0.5   1.079%   0.023%   0.430%   0.018%   0.002%   1.098%   0.002%   0.514%   2.564%   0.409%
   23    5.2  1.5 -0.5   0.037%  35.824%   0.000%   0.000%   1.081%   0.000%   0.532%   0.000%   1.231%   9.184%
   24    6.2  1.5 -0.5   0.000%   0.005%   0.024%   0.574%   0.537%   0.000%   1.076%   0.001%   0.047%   0.344%
   25    7.2  1.5 -0.5   0.000%   0.001%   1.254%  31.083%   1.956%   0.000%   4.168%   0.004%   0.000%   0.000%
   26    8.2  1.5 -0.5   2.628%   0.001%   7.771%   0.313%   0.002%  40.122%   0.007%   2.765%   0.000%   0.000%
   27    9.2  1.5 -0.5   2.695%   0.001%   7.770%   0.313%   0.003%   0.554%   0.027%  42.310%   0.000%   0.000%
   28    1.2  1.5 -1.5   0.000%   0.000%   0.000%   0.000%   0.000%   0.004%   0.000%   0.002%   0.000%   0.000%
   29    2.2  1.5 -1.5   0.003%   2.008%   0.016%   0.147%   0.499%   0.018%   1.065%   0.033%   2.919%  22.602%
   30    3.2  1.5 -1.5   0.004%   0.073%   0.558%   0.026%   0.018%   0.502%   0.040%   1.056%   0.605%   0.615%
   31    4.2  1.5 -1.5   0.009%   2.386%   0.013%   0.138%   0.514%   0.001%   1.092%   0.007%   2.608%  19.078%
   32    5.2  1.5 -1.5   0.012%   0.000%   0.575%   0.023%   0.000%   0.532%   0.001%   1.081%   0.085%   0.000%
   33    6.2  1.5 -1.5  40.857%   0.016%   0.000%   0.000%   0.000%   1.077%   0.000%   0.537%   3.600%   0.548%
   34    7.2  1.5 -1.5   3.549%   0.002%   0.000%   0.000%   0.006%  37.535%   0.007%  17.604%   0.000%   0.000%
   35    8.2  1.5 -1.5   0.002%   0.595%   0.940%  23.312%   5.870%   0.000%  12.503%   0.011%   0.000%   0.000%
   36    9.2  1.5 -1.5   0.002%   0.566%   0.940%  23.311%   5.870%   0.000%  12.502%   0.011%   0.000%   0.000%
   37    1.2  0.5  0.5   0.000%   0.000%   0.000%   0.000%   0.000%   0.000%   0.000%   0.000%   0.000%   0.000%
   38    2.2  0.5  0.5   0.001%   0.000%   0.000%   0.000%   0.000%   0.000%   0.000%   0.000%   0.000%   0.000%
   39    3.2  0.5  0.5   0.000%   0.001%   0.000%   0.000%   0.000%   0.000%   0.000%   0.000%   0.000%   0.000%
   40    4.2  0.5  0.5   0.000%   0.001%   0.000%   0.000%   0.000%   0.000%   0.000%   0.000%   0.000%   0.000%
   41    5.2  0.5  0.5   0.000%   0.001%   0.000%   0.000%   0.000%   0.000%   0.000%   0.000%   0.000%   0.000%
   42    6.2  0.5  0.5   0.000%   0.000%   0.000%   0.000%   0.001%   0.000%   0.000%   0.000%   0.000%   0.000%
   43    7.2  0.5  0.5   0.000%   0.000%   0.000%   0.000%   0.000%   0.000%   0.000%   0.001%   0.000%   0.000%
   44    8.2  0.5  0.5   0.000%   0.000%   0.000%   0.000%   0.000%   0.000%   0.001%   0.000%   0.000%   0.000%
   45    1.2  0.5 -0.5   0.000%   0.000%   0.000%   0.000%   0.000%   0.000%   0.000%   0.000%   0.000%   0.000%
   46    2.2  0.5 -0.5   0.000%   0.001%   0.000%   0.000%   0.000%   0.000%   0.000%   0.000%   0.000%   0.000%
   47    3.2  0.5 -0.5   0.001%   0.000%   0.000%   0.000%   0.000%   0.000%   0.000%   0.000%   0.000%   0.000%
   48    4.2  0.5 -0.5   0.001%   0.000%   0.000%   0.000%   0.000%   0.000%   0.000%   0.000%   0.000%   0.000%
   49    5.2  0.5 -0.5   0.001%   0.000%   0.000%   0.000%   0.000%   0.000%   0.000%   0.000%   0.000%   0.000%
   50    6.2  0.5 -0.5   0.000%   0.000%   0.000%   0.000%   0.000%   0.001%   0.000%   0.000%   0.000%   0.000%
   51    7.2  0.5 -0.5   0.000%   0.000%   0.000%   0.000%   0.000%   0.000%   0.001%   0.000%   0.000%   0.000%
   52    8.2  0.5 -0.5   0.000%   0.000%   0.000%   0.000%   0.000%   0.000%   0.000%   0.001%   0.000%   0.000%

   Nr   State  S   Sz      41       42       43       44       45       46       47       48       49       50

    1    1.2  1.5  1.5   0.000%   0.000%   0.000%   0.000%   0.000%   0.000%   0.000%   0.000%   0.000%   0.000%
    2    2.2  1.5  1.5   1.369%   0.123%   3.781%   0.025%   3.867%   0.111%   0.949%   0.018%   0.043%   0.511%
    3    3.2  1.5  1.5  42.861%   4.863%   0.039%   1.273%   0.195%   0.417%   0.052%   0.536%   0.026%   0.034%
    4    4.2  1.5  1.5   0.356%   1.483%   4.377%   0.012%   6.327%   0.085%   1.923%   0.001%   0.085%   1.423%
    5    5.2  1.5  1.5  36.566%   4.085%   0.044%   2.226%   0.086%   8.335%   0.000%   0.543%   0.045%   0.001%
    6    6.2  1.5  1.5   0.321%   0.001%   0.068%  22.357%   0.009%   1.677%   0.002%   1.342%   2.508%   0.124%
    7    7.2  1.5  1.5   0.000%   0.000%   0.000%   0.000%   0.000%   0.000%   0.014%   9.174%  17.508%   0.883%
    8    8.2  1.5  1.5   0.000%   0.000%   0.000%   0.000%   0.000%   0.000%  14.057%   0.000%   1.280%  22.470%
    9    9.2  1.5  1.5   0.000%   0.000%   0.000%   0.000%   0.000%   0.000%   0.109%   0.002%   1.139%  15.467%
   10    1.2  1.5  0.5   0.000%   0.000%   0.000%   0.000%   0.000%   0.000%   0.000%   0.000%   0.000%   0.000%
   11    2.2  1.5  0.5   2.765%   0.162%   0.037%  27.586%   0.149%   8.163%   0.045%   1.391%   0.113%   0.005%
   12    3.2  1.5  0.5   0.198%   0.043%   0.538%   0.620%   0.104%   0.403%   1.502%   0.031%   0.022%   0.524%
   13    4.2  1.5  0.5   0.196%   0.087%   0.035%  18.039%   0.216%  24.126%   0.004%   0.990%   0.198%   0.002%
   14    5.2  1.5  0.5   0.047%   0.740%  16.478%   0.018%   0.864%   0.013%   0.143%   0.001%   0.230%   4.119%
   15    6.2  1.5  0.5   0.321%   3.412%   2.436%   0.010%  44.394%   0.460%   0.567%   0.000%   0.001%   0.026%
   16    7.2  1.5  0.5   0.000%   0.000%   0.000%   0.000%   0.000%   0.000%  35.210%   0.002%   0.060%   2.354%
   17    8.2  1.5  0.5   0.000%   0.000%   0.000%   0.000%   0.000%   0.000%   0.016%  31.242%   8.285%   0.543%
   18    9.2  1.5  0.5   0.000%   0.000%   0.000%   0.000%   0.000%   0.000%   0.006%   0.124%  19.156%   0.811%
   19    1.2  1.5 -0.5   0.000%   0.000%   0.000%   0.000%   0.000%   0.000%   0.000%   0.000%   0.000%   0.000%
   20    2.2  1.5 -0.5   0.162%   2.765%  27.586%   0.037%   8.163%   0.149%   1.391%   0.045%   0.005%   0.113%
   21    3.2  1.5 -0.5   0.043%   0.198%   0.620%   0.538%   0.403%   0.104%   0.031%   1.502%   0.524%   0.022%
   22    4.2  1.5 -0.5   0.087%   0.196%  18.039%   0.035%  24.126%   0.216%   0.990%   0.004%   0.002%   0.198%
   23    5.2  1.5 -0.5   0.740%   0.047%   0.018%  16.478%   0.013%   0.864%   0.001%   0.143%   4.119%   0.230%
   24    6.2  1.5 -0.5   3.412%   0.321%   0.010%   2.436%   0.460%  44.394%   0.000%   0.567%   0.026%   0.001%
   25    7.2  1.5 -0.5   0.000%   0.000%   0.000%   0.000%   0.000%   0.000%   0.002%  35.210%   2.354%   0.060%
   26    8.2  1.5 -0.5   0.000%   0.000%   0.000%   0.000%   0.000%   0.000%  31.242%   0.016%   0.543%   8.285%
   27    9.2  1.5 -0.5   0.000%   0.000%   0.000%   0.000%   0.000%   0.000%   0.124%   0.006%   0.811%  19.156%
   28    1.2  1.5 -1.5   0.000%   0.000%   0.000%   0.000%   0.000%   0.000%   0.000%   0.000%   0.000%   0.000%
   29    2.2  1.5 -1.5   0.123%   1.369%   0.025%   3.781%   0.111%   3.867%   0.018%   0.949%   0.511%   0.043%
   30    3.2  1.5 -1.5   4.863%  42.861%   1.273%   0.039%   0.417%   0.195%   0.536%   0.052%   0.034%   0.026%
   31    4.2  1.5 -1.5   1.483%   0.356%   0.012%   4.377%   0.085%   6.327%   0.001%   1.923%   1.423%   0.085%
   32    5.2  1.5 -1.5   4.085%  36.566%   2.226%   0.044%   8.335%   0.086%   0.543%   0.000%   0.001%   0.045%
   33    6.2  1.5 -1.5   0.001%   0.321%  22.357%   0.068%   1.677%   0.009%   1.342%   0.002%   0.124%   2.508%
   34    7.2  1.5 -1.5   0.000%   0.000%   0.000%   0.000%   0.000%   0.000%   9.174%   0.014%   0.883%  17.508%
   35    8.2  1.5 -1.5   0.000%   0.000%   0.000%   0.000%   0.000%   0.000%   0.000%  14.057%  22.470%   1.280%
   36    9.2  1.5 -1.5   0.000%   0.000%   0.000%   0.000%   0.000%   0.000%   0.002%   0.109%  15.467%   1.139%
   37    1.2  0.5  0.5   0.000%   0.000%   0.000%   0.000%   0.000%   0.000%   0.001%   0.000%   0.000%   0.000%
   38    2.2  0.5  0.5   0.000%   0.000%   0.000%   0.000%   0.000%   0.000%   0.000%   0.000%   0.000%   0.002%
   39    3.2  0.5  0.5   0.000%   0.000%   0.000%   0.000%   0.000%   0.000%   0.001%   0.000%   0.001%   0.000%
   40    4.2  0.5  0.5   0.000%   0.000%   0.000%   0.000%   0.000%   0.000%   0.001%   0.001%   0.001%   0.000%
   41    5.2  0.5  0.5   0.000%   0.000%   0.000%   0.000%   0.000%   0.000%   0.000%   0.002%   0.001%   0.000%
   42    6.2  0.5  0.5   0.000%   0.000%   0.000%   0.000%   0.000%   0.000%   0.000%   0.000%   0.000%   0.000%
   43    7.2  0.5  0.5   0.000%   0.000%   0.000%   0.000%   0.000%   0.000%   0.000%   0.000%   0.000%   0.000%
   44    8.2  0.5  0.5   0.000%   0.000%   0.000%   0.000%   0.000%   0.000%   0.000%   0.000%   0.000%   0.000%
   45    1.2  0.5 -0.5   0.000%   0.000%   0.000%   0.000%   0.000%   0.000%   0.000%   0.001%   0.000%   0.000%
   46    2.2  0.5 -0.5   0.000%   0.000%   0.000%   0.000%   0.000%   0.000%   0.000%   0.000%   0.002%   0.000%
   47    3.2  0.5 -0.5   0.000%   0.000%   0.000%   0.000%   0.000%   0.000%   0.000%   0.001%   0.000%   0.001%
   48    4.2  0.5 -0.5   0.000%   0.000%   0.000%   0.000%   0.000%   0.000%   0.001%   0.001%   0.000%   0.001%
   49    5.2  0.5 -0.5   0.000%   0.000%   0.000%   0.000%   0.000%   0.000%   0.002%   0.000%   0.000%   0.001%
   50    6.2  0.5 -0.5   0.000%   0.000%   0.000%   0.000%   0.000%   0.000%   0.000%   0.000%   0.000%   0.000%
   51    7.2  0.5 -0.5   0.000%   0.000%   0.000%   0.000%   0.000%   0.000%   0.000%   0.000%   0.000%   0.000%
   52    8.2  0.5 -0.5   0.000%   0.000%   0.000%   0.000%   0.000%   0.000%   0.000%   0.000%   0.000%   0.000%

   Nr   State  S   Sz      51       52

    1    1.2  1.5  1.5   0.000%   0.000%
    2    2.2  1.5  1.5   0.019%   2.450%
    3    3.2  1.5  1.5   0.254%   0.064%
    4    4.2  1.5  1.5   0.002%   0.646%
    5    5.2  1.5  1.5   0.272%   0.000%
    6    6.2  1.5  1.5   1.185%   0.001%
    7    7.2  1.5  1.5   8.393%   0.010%
    8    8.2  1.5  1.5   0.049%  11.618%
    9    9.2  1.5  1.5   0.074%  32.687%
   10    1.2  1.5  0.5   0.000%   0.000%
   11    2.2  1.5  0.5   0.397%   0.081%
   12    3.2  1.5  0.5   0.019%   2.960%
   13    4.2  1.5  0.5   0.742%   0.008%
   14    5.2  1.5  0.5   0.003%   0.667%
   15    6.2  1.5  0.5   0.000%   0.267%
   16    7.2  1.5  0.5   0.015%  16.332%
   17    8.2  1.5  0.5   0.391%   0.003%
   18    9.2  1.5  0.5  20.366%   0.019%
   19    1.2  1.5 -0.5   0.000%   0.000%
   20    2.2  1.5 -0.5   0.081%   0.397%
   21    3.2  1.5 -0.5   2.960%   0.019%
   22    4.2  1.5 -0.5   0.008%   0.742%
   23    5.2  1.5 -0.5   0.667%   0.003%
   24    6.2  1.5 -0.5   0.267%   0.000%
   25    7.2  1.5 -0.5  16.332%   0.015%
   26    8.2  1.5 -0.5   0.003%   0.391%
   27    9.2  1.5 -0.5   0.019%  20.366%
   28    1.2  1.5 -1.5   0.000%   0.000%
   29    2.2  1.5 -1.5   2.450%   0.019%
   30    3.2  1.5 -1.5   0.064%   0.254%
   31    4.2  1.5 -1.5   0.646%   0.002%
   32    5.2  1.5 -1.5   0.000%   0.272%
   33    6.2  1.5 -1.5   0.001%   1.185%
   34    7.2  1.5 -1.5   0.010%   8.393%
   35    8.2  1.5 -1.5  11.618%   0.049%
   36    9.2  1.5 -1.5  32.687%   0.074%
   37    1.2  0.5  0.5   0.000%   0.002%
   38    2.2  0.5  0.5   0.000%   0.001%
   39    3.2  0.5  0.5   0.001%   0.001%
   40    4.2  0.5  0.5   0.001%   0.000%
   41    5.2  0.5  0.5   0.000%   0.000%
   42    6.2  0.5  0.5   0.000%   0.000%
   43    7.2  0.5  0.5   0.000%   0.000%
   44    8.2  0.5  0.5   0.000%   0.000%
   45    1.2  0.5 -0.5   0.002%   0.000%
   46    2.2  0.5 -0.5   0.001%   0.000%
   47    3.2  0.5 -0.5   0.001%   0.001%
   48    4.2  0.5 -0.5   0.000%   0.001%
   49    5.2  0.5 -0.5   0.000%   0.000%
   50    6.2  0.5 -0.5   0.000%   0.000%
   51    7.2  0.5 -0.5   0.000%   0.000%
   52    8.2  0.5 -0.5   0.000%   0.000%


 Property matrices transformed in SO basis (not sym. adapted)
 ============================================================

 No matrix element <i|DMX|i> larger than 5E-7
 No matrix element <i|DMX|1> larger than 5E-7

 No matrix element <i|DMY|i> larger than 5E-7
 No matrix element <i|DMY|1> larger than 5E-7

 No matrix element <i|DMZ|i> larger than 5E-7
 No matrix element <i|DMZ|1> larger than 5E-7


 **********************************************************************************************************************************
 DATASETS  * FILE   NREC   LENGTH (MB)   RECORD NAMES
              1      24      265.21       500      610      700      900      950      970     1000      129      960     1700   
                                          VAR    BASINP    GEOM    SYMINP    ZMAT    AOBASIS   BASIS     P2S    ABASIS    OPER   
                                         1101     1401     1411     1412     1650     1100     1400     1410     1200     1210   
                                          SR      EKINR    POTR     PVPR    MOLCAS      S      EKIN      POT      H0       H01  
                                         1080     1600     1380     1700(1)
                                         AOSYM     SMH     JKOP     OPER   

              2       7     1285.03       700     1000      520     2100     2140     5302     5102   
                                         GEOM     BASIS   MCVARS     RHF     MCSCF    MRCI     MRCI   

 PROGRAMS   *        TOTAL        CI     LSINT        CI        CI     MULTI   RHF-SCF       INT
 CPU TIMES  *    102184.95  96391.77      8.04   2923.47   2856.60      3.48      0.08      1.13
 REAL TIME  *    103258.27 SEC
 DISK USED  *         1.30 GB (local),       16.42 GB (total)
 SF USED    *         6.81 GB
 GA USED    *         0.00 MB       (max)       0.00 MB       (current)
 **********************************************************************************************************************************

 CI/USERDEF energy=  -2259.605251011537

              CI              CI           MULTI         RHF-SCF
  -2259.75874086  -2259.56531964  -2259.00088805  -2259.09416026
 **********************************************************************************************************************************
 Molpro calculation terminated with 1 warning(s)
