
 Working directory              : /wrk/irikura/molpro.EhRI6wksUq/
 Global scratch directory       : /wrk/irikura/molpro.EhRI6wksUq/
 Wavefunction directory         : /home/irikura/wfu/
 Main file repository           : /wrk/irikura/molpro.EhRI6wksUq/

 id        : nistki

 Nodes            nprocs
 pn112695.nist.gov   12
 GA implementation: MPI file
 GA implementation (serial work in mppx): MPI file

 Using customized tuning parameters: mindgm=1; mindgv=20; mindgc=4; mindgr=1; noblas=0; minvec=7
 default implementation of scratch files=sf  


 Variables initialized (1040), CPU time= 0.01 sec
 ***,As SO-CI
                                                                                 ! extra spdf diffuse functions; 5p Rydberg states
 memory,1500,M;
 
 gprint,orbitals,civector;
 gprint,basis
 
 symmetry,xyz
 geometry={As};
 
 basis={
 ecp,as,ECP10MDF;
 spdfg,as,aug-cc-pwCVTZ-PP;C; spdf,1,even,nprim=1,ratio=3.0;
 }
 
 {rhf;wf,charge=0,sym=2,spin=3}
 
 PAR=2                                                                           ! parity even (1) or odd (2)
 NQ=9
 ND=8
 
 {multi
     closed,6,3
     occ,7,9
     wf,charge=0,sym=PAR,spin=3;state,NQ;
     wf,charge=0,sym=PAR,spin=1;state,ND;
     expec2,lxx,lyy,lzz;
 }
 table, energy, ll
 title, Energies and &lt;L**2&gt; values
 
 core,0,0
 
 {ci;wf,sym=PAR,spin=3;state,NQ; save,5302.2}
 if NQ.LT.2 then
   hlsdiag(1) = energd
 else
   hlsdiag = energd4
 endif
 
 {ci;wf,sym=PAR,spin=1;state,ND; save,5102.2}
 hlsdiag(NQ+1) = energd4
 
 table,hlsdiag
 
 {ci;hlsmat,ecp,5302.2,5102.2;print,vls=0,hls=0}                                 !compute and diagonalize SO matrix
 Commands initialized (846), CPU time= 0.01 sec, 717 directives.
 Default parameters read. Elapsed time= 0.12 sec

 Checking input...
 Passed
1


                                         ***  PROGRAM SYSTEM MOLPRO  ***
                                       Copyright, TTI GmbH Stuttgart, 2015
                                    Version 2023.2 linked Fri Sep 22 03:27:09 2023


 **********************************************************************************************************************************
 LABEL *   As SO-CI                                                                                                                                                      
  (32 PROC) 64 bit mpp version                                                           DATE: 09-Aug-24          TIME: 09:33:57  
 **********************************************************************************************************************************

 SHA1:             3c61bfe44d37c8635c785372c339f5cbdd4e4b59
 **********************************************************************************************************************************

 Memory per process:      1500 MW
 Total memory per node:  18000 MW

 GA preallocation disabled
 GA check disabled

 Variable memory set to 1500.0 MW



 ZSYMEL=XYZ

 SETTING BASIS          =    USERDEF


 Recomputing integrals since basis changed


 Using spherical harmonics

 Library entry As   ECP ECP10MDF                 selected for group  1
 Library entry AS     S AUG-CC-PWCVTZ-PP     selected for orbital group  1
 Even tempered As S diffuse               selected for group 1    nprim= 1    centre=  0.011    ratio= 3.000    dratio= 1.000
 Library entry AS     P AUG-CC-PWCVTZ-PP     selected for orbital group  1
 Even tempered As P diffuse               selected for group 1    nprim= 1    centre=  0.009    ratio= 3.000    dratio= 1.000
 Library entry AS     D AUG-CC-PWCVTZ-PP     selected for orbital group  1
 Even tempered As D diffuse               selected for group 1    nprim= 1    centre=  0.022    ratio= 3.000    dratio= 1.000
 Library entry AS     F AUG-CC-PWCVTZ-PP     selected for orbital group  1
 Even tempered As F diffuse               selected for group 1    nprim= 1    centre=  0.051    ratio= 3.000    dratio= 1.000
 Library entry AS     G AUG-CC-PWCVTZ-PP     selected for orbital group  1


 PROGRAM * SEWARD (Integral evaluation for generally contracted gaussian basis sets)     Author: Roland Lindh, 1990

 Geometry written to block  1 of record 700

 Orientation using atomic masses  
 Molecule type: Atom
 User-specified symmetry elements: XYZ
 Symmetry elements: XYZ
 Rotational constants:       0.0000000      0.0000000      0.0000000 GHz  (calculated with average atomic masses)

 Point group  Ci  



 ATOMIC COORDINATES

 NR  ATOM    CHARGE       X              Y              Z

   1  AS     23.00    0.000000000    0.000000000    0.000000000


          AS  CORE POTENTIAL

          g POTENTIAL

 POWERS             2
 EXPONENTIALS   1.000000    
 COEFFICIENTS   0.000000    

          s - g POTENTIAL

 POWERS             2              2
 EXPONENTIALS   28.72512       6.767681    
 COEFFICIENTS   370.1140       9.349296    

          p - g POTENTIAL

 POWERS             2              2              2              2
 EXPONENTIALS   45.33106       44.76741       19.53909       18.97347    
 COEFFICIENTS   99.14210       198.3079       28.38307       56.87146    

          d - g POTENTIAL

 POWERS             2              2              2              2              2              2
 EXPONENTIALS   51.05715       50.15134       16.10894       14.67222       3.851927       3.813502    
 COEFFICIENTS  -18.48514      -28.11353      -1.223895      -1.345765      0.1017570      0.1703380    

          f - g POTENTIAL

 POWERS             2              2
 EXPONENTIALS   11.94058       17.76116    
 COEFFICIENTS -0.7752300      -2.157259    


          AS  SPIN-ORBIT POTENTIAL

          p POTENTIAL

 POWERS             2              2              2              2
 EXPONENTIALS   45.33106       44.76741       19.53909       18.97347    
 COEFFICIENTS  -198.2842       198.3079      -56.76615       56.87146    

          d POTENTIAL

 POWERS             2              2              2              2              2              2
 EXPONENTIALS   51.05715       50.15134       16.10894       14.67222       3.851927       3.813502    
 COEFFICIENTS   18.48514      -18.74235       1.223895     -0.8971770     -0.1017570      0.1135580    

          f POTENTIAL

 POWERS             2              2
 EXPONENTIALS   11.94058       17.76116    
 COEFFICIENTS  0.5168200      -1.078629    


 BASIS DATA

   Nr Sym  Nuc  Type         Exponents   Contraction coefficients

    1.1 Ag    1  1s        9230.120000     0.000245   -0.000087    0.000000    0.000000    0.000000
    2.1 Ag                 1390.340000     0.001717   -0.000580    0.000000    0.000000    0.000000
    3.1 Ag                  310.185000     0.005989   -0.002216    0.000000    0.000000    0.000000
    4.1 Ag                   38.624200     0.090466   -0.028583    0.000000    0.000000    0.000000
    5.1 Ag                   16.288300    -0.411195    0.137907    0.000000    0.000000    0.000000
                              3.209010     0.704410   -0.309572    0.000000    0.000000    0.000000
                              1.447920     0.473557   -0.356448    0.000000    0.000000    0.000000
                              0.419217     0.028389    0.338345    1.000000    0.000000    0.000000
                              0.201024    -0.008256    0.633088    0.000000    1.000000    0.000000
                              0.086236     0.001913    0.251613    0.000000    0.000000    1.000000
    6.1 Ag    1  1s           5.985900     1.000000
    7.1 Ag    1  1s           1.173200     1.000000
    8.1 Ag    1  1s           0.033000     1.000000
    9.1 Ag    1  1s           0.011000     1.000000
   10.1 Ag    1  3d0        265.444000     0.001781
                             81.373400     0.018513
                             33.395600     0.076098
                             14.410700     0.193710
                              6.470320     0.324512
                              2.885820     0.368100
                              1.249190     0.260344
                              0.490426     0.076212
   11.1 Ag    1  3d2-       265.444000     0.001781
                             81.373400     0.018513
                             33.395600     0.076098
                             14.410700     0.193710
                              6.470320     0.324512
                              2.885820     0.368100
                              1.249190     0.260344
                              0.490426     0.076212
   12.1 Ag    1  3d1+       265.444000     0.001781
                             81.373400     0.018513
                             33.395600     0.076098
                             14.410700     0.193710
                              6.470320     0.324512
                              2.885820     0.368100
                              1.249190     0.260344
                              0.490426     0.076212
   13.1 Ag    1  3d2+       265.444000     0.001781
                             81.373400     0.018513
                             33.395600     0.076098
                             14.410700     0.193710
                              6.470320     0.324512
                              2.885820     0.368100
                              1.249190     0.260344
                              0.490426     0.076212
   14.1 Ag    1  3d1-       265.444000     0.001781
                             81.373400     0.018513
                             33.395600     0.076098
                             14.410700     0.193710
                              6.470320     0.324512
                              2.885820     0.368100
                              1.249190     0.260344
                              0.490426     0.076212
   15.1 Ag    1  3d0        265.444000     0.000000
                             81.373400     0.000000
                             33.395600     0.000000
                             14.410700     0.000000
                              6.470320     0.000000
                              2.885820     0.000000
                              1.249190     0.000000
                              0.490426     1.000000
   16.1 Ag    1  3d2-       265.444000     0.000000
                             81.373400     0.000000
                             33.395600     0.000000
                             14.410700     0.000000
                              6.470320     0.000000
                              2.885820     0.000000
                              1.249190     0.000000
                              0.490426     1.000000
   17.1 Ag    1  3d1+       265.444000     0.000000
                             81.373400     0.000000
                             33.395600     0.000000
                             14.410700     0.000000
                              6.470320     0.000000
                              2.885820     0.000000
                              1.249190     0.000000
                              0.490426     1.000000
   18.1 Ag    1  3d2+       265.444000     0.000000
                             81.373400     0.000000
                             33.395600     0.000000
                             14.410700     0.000000
                              6.470320     0.000000
                              2.885820     0.000000
                              1.249190     0.000000
                              0.490426     1.000000
   19.1 Ag    1  3d1-       265.444000     0.000000
                             81.373400     0.000000
                             33.395600     0.000000
                             14.410700     0.000000
                              6.470320     0.000000
                              2.885820     0.000000
                              1.249190     0.000000
                              0.490426     1.000000
   20.1 Ag    1  3d0          0.179800     1.000000
   21.1 Ag    1  3d2-         0.179800     1.000000
   22.1 Ag    1  3d1+         0.179800     1.000000
   23.1 Ag    1  3d2+         0.179800     1.000000
   24.1 Ag    1  3d1-         0.179800     1.000000
   25.1 Ag    1  3d0          3.143000     1.000000
   26.1 Ag    1  3d2-         3.143000     1.000000
   27.1 Ag    1  3d1+         3.143000     1.000000
   28.1 Ag    1  3d2+         3.143000     1.000000
   29.1 Ag    1  3d1-         3.143000     1.000000
   30.1 Ag    1  3d0          1.337300     1.000000
   31.1 Ag    1  3d2-         1.337300     1.000000
   32.1 Ag    1  3d1+         1.337300     1.000000
   33.1 Ag    1  3d2+         1.337300     1.000000
   34.1 Ag    1  3d1-         1.337300     1.000000
   35.1 Ag    1  3d0          0.064900     1.000000
   36.1 Ag    1  3d2-         0.064900     1.000000
   37.1 Ag    1  3d1+         0.064900     1.000000
   38.1 Ag    1  3d2+         0.064900     1.000000
   39.1 Ag    1  3d1-         0.064900     1.000000
   40.1 Ag    1  3d0          0.021633     1.000000
   41.1 Ag    1  3d2-         0.021633     1.000000
   42.1 Ag    1  3d1+         0.021633     1.000000
   43.1 Ag    1  3d2+         0.021633     1.000000
   44.1 Ag    1  3d1-         0.021633     1.000000
   45.1 Ag    1  5g0          1.915300     1.000000
   46.1 Ag    1  5g2-         1.915300     1.000000
   47.1 Ag    1  5g1+         1.915300     1.000000
   48.1 Ag    1  5g4+         1.915300     1.000000
   49.1 Ag    1  5g1-         1.915300     1.000000
   50.1 Ag    1  5g2+         1.915300     1.000000
   51.1 Ag    1  5g4-         1.915300     1.000000
   52.1 Ag    1  5g3+         1.915300     1.000000
   53.1 Ag    1  5g3-         1.915300     1.000000
    1.2 Au    1  2px        512.552000     0.000270
                             89.811500     0.003976
                             23.947100    -0.087231
                              6.135450     0.351229
                              2.890980     0.503753
                              1.327670     0.252422
                              0.481044     0.021696
                              0.190208    -0.002047
                              0.072008     0.000582
    2.2 Au    1  2py        512.552000     0.000270
                             89.811500     0.003976
                             23.947100    -0.087231
                              6.135450     0.351229
                              2.890980     0.503753
                              1.327670     0.252422
                              0.481044     0.021696
                              0.190208    -0.002047
                              0.072008     0.000582
    3.2 Au    1  2pz        512.552000     0.000270
                             89.811500     0.003976
                             23.947100    -0.087231
                              6.135450     0.351229
                              2.890980     0.503753
                              1.327670     0.252422
                              0.481044     0.021696
                              0.190208    -0.002047
                              0.072008     0.000582
    4.2 Au    1  2px        512.552000    -0.000078
                             89.811500    -0.000824
                             23.947100     0.020832
                              6.135450    -0.096229
                              2.890980    -0.146876
                              1.327670    -0.070903
                              0.481044     0.298570
                              0.190208     0.568943
                              0.072008     0.289924
    5.2 Au    1  2py        512.552000    -0.000078
                             89.811500    -0.000824
                             23.947100     0.020832
                              6.135450    -0.096229
                              2.890980    -0.146876
                              1.327670    -0.070903
                              0.481044     0.298570
                              0.190208     0.568943
                              0.072008     0.289924
    6.2 Au    1  2pz        512.552000    -0.000078
                             89.811500    -0.000824
                             23.947100     0.020832
                              6.135450    -0.096229
                              2.890980    -0.146876
                              1.327670    -0.070903
                              0.481044     0.298570
                              0.190208     0.568943
                              0.072008     0.289924
    7.2 Au    1  2px          0.529700     1.000000
    8.2 Au    1  2py          0.529700     1.000000
    9.2 Au    1  2pz          0.529700     1.000000
   10.2 Au    1  2px          0.085500     1.000000
   11.2 Au    1  2py          0.085500     1.000000
   12.2 Au    1  2pz          0.085500     1.000000
   13.2 Au    1  2px          8.037700     1.000000
   14.2 Au    1  2py          8.037700     1.000000
   15.2 Au    1  2pz          8.037700     1.000000
   16.2 Au    1  2px          1.510800     1.000000
   17.2 Au    1  2py          1.510800     1.000000
   18.2 Au    1  2pz          1.510800     1.000000
   19.2 Au    1  2px          0.028200     1.000000
   20.2 Au    1  2py          0.028200     1.000000
   21.2 Au    1  2pz          0.028200     1.000000
   22.2 Au    1  2px          0.009400     1.000000
   23.2 Au    1  2py          0.009400     1.000000
   24.2 Au    1  2pz          0.009400     1.000000
   25.2 Au    1  4f1+         0.423700     1.000000
   26.2 Au    1  4f1-         0.423700     1.000000
   27.2 Au    1  4f0          0.423700     1.000000
   28.2 Au    1  4f3+         0.423700     1.000000
   29.2 Au    1  4f2-         0.423700     1.000000
   30.2 Au    1  4f3-         0.423700     1.000000
   31.2 Au    1  4f2+         0.423700     1.000000
   32.2 Au    1  4f1+         6.605100     1.000000
   33.2 Au    1  4f1-         6.605100     1.000000
   34.2 Au    1  4f0          6.605100     1.000000
   35.2 Au    1  4f3+         6.605100     1.000000
   36.2 Au    1  4f2-         6.605100     1.000000
   37.2 Au    1  4f3-         6.605100     1.000000
   38.2 Au    1  4f2+         6.605100     1.000000
   39.2 Au    1  4f1+         1.663500     1.000000
   40.2 Au    1  4f1-         1.663500     1.000000
   41.2 Au    1  4f0          1.663500     1.000000
   42.2 Au    1  4f3+         1.663500     1.000000
   43.2 Au    1  4f2-         1.663500     1.000000
   44.2 Au    1  4f3-         1.663500     1.000000
   45.2 Au    1  4f2+         1.663500     1.000000
   46.2 Au    1  4f1+         0.154200     1.000000
   47.2 Au    1  4f1-         0.154200     1.000000
   48.2 Au    1  4f0          0.154200     1.000000
   49.2 Au    1  4f3+         0.154200     1.000000
   50.2 Au    1  4f2-         0.154200     1.000000
   51.2 Au    1  4f3-         0.154200     1.000000
   52.2 Au    1  4f2+         0.154200     1.000000
   53.2 Au    1  4f1+         0.051400     1.000000
   54.2 Au    1  4f1-         0.051400     1.000000
   55.2 Au    1  4f0          0.051400     1.000000
   56.2 Au    1  4f3+         0.051400     1.000000
   57.2 Au    1  4f2-         0.051400     1.000000
   58.2 Au    1  4f3-         0.051400     1.000000
   59.2 Au    1  4f2+         0.051400     1.000000

 NUCLEAR CHARGE:                   23
 NUMBER OF PRIMITIVE AOS:         202
 NUMBER OF SYMMETRY AOS:          168
 NUMBER OF CONTRACTIONS:          112   (   53Ag  +   59Au  )
 NUMBER OF INNER CORE ORBITALS:     0   (    0Ag  +    0Au  )
 NUMBER OF OUTER CORE ORBITALS:     9   (    6Ag  +    3Au  )
 NUMBER OF VALENCE ORBITALS:        4   (    1Ag  +    3Au  )


 LX: Ag           LY: Ag           LZ: Ag 


 NUCLEAR REPULSION ENERGY    0.00000000

 EXTRA SYMMETRY OF AOS IN SYMMETRY 1:   1 1 1 1 1 1 1 1 1 2   3 4 5 6 2 3 4 5 6 2   3 4 5 6 2 3 4 5 6 2   3 4 5 6 2 3 4 5 6 2
                                        3 4 5 6 7 8 9101112  131415
 EXTRA SYMMETRY OF AOS IN SYMMETRY 2:   1 2 3 1 2 3 1 2 3 1   2 3 1 2 3 1 2 3 1 2   3 1 2 3 4 5 6 7 8 9  10 4 5 6 7 8 910 4 5
                                        6 7 8 910 4 5 6 7 8   910 4 5 6 7 8 910


 Eigenvalues of metric

         1 0.285E-04 0.323E-02 0.172E-01 0.498E-01 0.509E-01 0.509E-01 0.509E-01 0.509E-01
         2 0.816E-02 0.816E-02 0.816E-02 0.212E-01 0.212E-01 0.212E-01 0.122E+00 0.122E+00


 Contracted 2-electron integrals neglected if value below      1.0D-12
 AO integral compression algorithm  1   Integral accuracy      1.0D-12

     28.049 MB (compressed) written to integral file ( 16.7%)

     Node minimum: 1.311 MB, node maximum: 3.408 MB


 NUMBER OF SORTED TWO-ELECTRON INTEGRALS:     847287.     BUFFER LENGTH:  32768
 NUMBER OF SEGMENTS:   1  SEGMENT LENGTH:     847287      RECORD LENGTH: 524288

 Memory used in sort:       1.40 MW

 SORT1 READ    21109381. AND WROTE      166541. INTEGRALS IN      1 RECORDS. CPU TIME:     0.12 SEC, REAL TIME:     0.11 SEC
 SORT2 READ     2032599. AND WROTE    10190541. INTEGRALS IN    144 RECORDS. CPU TIME:     0.02 SEC, REAL TIME:     0.03 SEC

 Node minimum:      845957.  Node maximum:      852384. integrals

 OPERATOR DM      FOR CENTER  0  COORDINATES:    0.000000    0.000000    0.000000


 **********************************************************************************************************************************
 DATASETS  * FILE   NREC   LENGTH (MB)   RECORD NAMES
              1      19       28.94       500      610      700      900      950      970     1000      129      960     1100   
                                          VAR    BASINP    GEOM    SYMINP    ZMAT    AOBASIS   BASIS     P2S    ABASIS      S 
                                         1400     1410     1420     1200     1210     1080     1700     1600     1650   
                                           T        V       ECP      H0       H01     AOSYM    OPER      SMH    MOLCAS    

 PROGRAMS   *        TOTAL       INT
 CPU TIMES  *         1.13      0.90
 REAL TIME  *         1.94 SEC
 DISK USED  *        29.28 MB (local),      412.86 MB (total)
 GA USED    *         0.00 MB       (max)       0.00 MB       (current)
 **********************************************************************************************************************************


 Program * Restricted Hartree-Fock


   Atom=AS basis=cc-pVTZ-PP        lmin=0  lmax=2

 Orbital guess generated from atomic densities.

 Initial alpha occupancy:   7   6
 Initial beta  occupancy:   7   3

 NELEC=   23   SYM=2   MS2= 3   THRE=1.0D-08   THRD=3.2D-06   THRG=3.2D-06  HFMA2=F  DIIS_START=2   DIIS_MAX=10   DIIS_INCORE=F

 Level shifts:    0.00 (CLOSED)    0.00 (OPEN)    0.30 (GAP_MIN)

 ITER           ETOT              DE          GRAD        DDIFF     DIIS  NEXP   TIME(IT)  TIME(TOT)  DIAG
   1     -331.19363040    -331.19363040     0.00D+00     0.11D+00     0     0       0.00      0.01    start
   2     -331.20777829      -0.01414788     0.20D-02     0.71D-02     1     0       0.01      0.02    diag2
   3     -331.20867231      -0.00089402     0.15D-02     0.15D-02     2     0       0.01      0.03    diag2
   4     -331.20897740      -0.00030509     0.41D-03     0.11D-02     3     0       0.01      0.04    diag2
   5     -331.20902740      -0.00005000     0.13D-03     0.55D-03     4     0       0.01      0.05    diag2
   6     -331.20902816      -0.00000076     0.25D-04     0.72D-04     5     0       0.00      0.05    diag2
   7     -331.20902817      -0.00000001     0.22D-05     0.11D-04     6     0       0.01      0.06    diag2
   8     -331.20902817      -0.00000000     0.19D-06     0.74D-06     7     0       0.01      0.07    fixocc
   9     -331.20902817      -0.00000000     0.24D-07     0.95D-07     0     0       0.01      0.08    diag

 Final alpha occupancy:   7   6
 Final beta  occupancy:   7   3

 !RHF STATE 1.2 Energy               -331.209028170326
  RHF One-electron energy            -587.013495832741
  RHF Two-electron energy             255.804467662415
  RHF Kinetic energy                  233.769128356728
  RHF Nuclear energy                    0.000000000000
  RHF Virial quotient                  -1.416821076840

 !RHF STATE 1.2 Dipole moment           0.00000000     0.00000000     0.00000000
 Dipole moment /Debye                   0.00000000     0.00000000     0.00000000

 ELECTRON ORBITALS
 =================

  Orbital  Occupation    Energy    Cen Mu Typ  Coefficients
    1.1     2.00000    -8.08662     1  1  s    0.99546
    2.1     2.00000    -2.07192     1  1  d1+  0.55035    1  1  d1-  0.78812
    3.1     2.00000    -2.07192     1  1  d1+  0.76277    1  1  d1- -0.60473
    4.1     2.00000    -2.07192     1  1  d2-  0.98177
    5.1     2.00000    -2.07192     1  1  d1+  0.30279    1  1  d2+  0.95199
    6.1     2.00000    -2.07192     1  1  d0   1.00005
    7.1     2.00000    -0.70305     1  2  s    0.97485
    1.2     2.00000    -6.00014     1  1  pz   0.99297
    2.2     2.00000    -6.00014     1  1  px   0.99981
    3.2     2.00000    -6.00014     1  1  py   0.99297
    4.2     1.00000    -0.36838     1  2  pz   1.00072
    5.2     1.00000    -0.36838     1  2  py   1.00072
    6.2     1.00000    -0.36838     1  2  px   1.00073


 HOMO      6.2    -0.368382 =     -10.0242eV
 LUMO      8.1     0.016767 =       0.4563eV
 LUMO-HOMO         0.385149 =      10.4804eV

 Orbitals saved in record  2100.2


 **********************************************************************************************************************************
 DATASETS  * FILE   NREC   LENGTH (MB)   RECORD NAMES
              1      19       28.94       500      610      700      900      950      970     1000      129      960     1100   
                                          VAR    BASINP    GEOM    SYMINP    ZMAT    AOBASIS   BASIS     P2S    ABASIS      S 
                                         1400     1410     1420     1200     1210     1080     1700     1600     1650   
                                           T        V       ECP      H0       H01     AOSYM    OPER      SMH    MOLCAS    

              2       4        0.59       700     1000      520     2100   
                                         GEOM     BASIS   MCVARS     RHF  

 PROGRAMS   *        TOTAL   RHF-SCF       INT
 CPU TIMES  *         1.24      0.11      0.90
 REAL TIME  *         2.88 SEC
 DISK USED  *        30.39 MB (local),      426.21 MB (total)
 GA USED    *         0.00 MB       (max)       0.00 MB       (current)
 **********************************************************************************************************************************
 SETTING PAR            =         2.00000000                                  
 SETTING NQ             =         9.00000000                                  
 SETTING ND             =         8.00000000                                  

 PROGRAM * MULTI (Direct Multiconfiguration SCF)       Authors: P.J. Knowles, H.-J. Werner (1984)
                                                                D.A. Kreplin, P.J. Knowles, H.-J. Werner (2019)

 Number of closed-shell orbitals:   9 (    6    3)
 Number of active  orbitals:        7 (    1    6)
 Number of external orbitals:      96 (   46   50)

 State symmetry 1

 Number of active electrons:   5    Spin symmetry=Quartet   Space symmetry=2
 Number of states:             9
 Number of CSFs:             104   (110 determinants, 245 intermediate states)

 State symmetry 2

 Number of active electrons:   5    Spin symmetry=Doublet   Space symmetry=2
 Number of states:             8
 Number of CSFs:             280   (390 determinants, 735 intermediate states)

 Molecular orbitals read from record     2100.2  Type=RHF/CANONICAL  
 *** IN SYMMETRY 1 ORBITAL  2 SYMMETRY CONTAMINATION OF 0.544D+00 HAS BEEN REMOVED
 *** IN SYMMETRY 1 ORBITAL  3 SYMMETRY CONTAMINATION OF 0.537D+00 HAS BEEN REMOVED
 *** IN SYMMETRY 1 ORBITAL  4 SYMMETRY CONTAMINATION OF 0.226D+00 HAS BEEN REMOVED
 *** IN SYMMETRY 1 ORBITAL  5 SYMMETRY CONTAMINATION OF 0.279D+00 HAS BEEN REMOVED
 *** IN SYMMETRY 1 ORBITAL  6 SYMMETRY CONTAMINATION OF 0.250D-02 HAS BEEN REMOVED

 EXTRA SYMMETRY OF MOS IN SYMMETRY 1:   1 6 4 3 5 2 1 1 2 4   6 3 5 1 6 4 2 3 5 1   4 6 2 5 3 1 6 4 3 5   2 1 6 4 5 3 2 7 814
                                       1512131011 9 4 6 3 5   2 1 1
 *** IN SYMMETRY 2 ORBITAL  1 SYMMETRY CONTAMINATION OF 0.105D+00 HAS BEEN REMOVED
 *** IN SYMMETRY 2 ORBITAL  3 SYMMETRY CONTAMINATION OF 0.105D+00 HAS BEEN REMOVED
 *** IN SYMMETRY 2 ORBITAL  4 SYMMETRY CONTAMINATION OF 0.394D-02 HAS BEEN REMOVED
 *** IN SYMMETRY 2 ORBITAL  5 SYMMETRY CONTAMINATION OF 0.394D-02 HAS BEEN REMOVED
 *** IN SYMMETRY 2 ORBITAL  8 SYMMETRY CONTAMINATION OF 0.555D-01 HAS BEEN REMOVED
 *** IN SYMMETRY 2 ORBITAL  9 SYMMETRY CONTAMINATION OF 0.555D-01 HAS BEEN REMOVED
 EXTRA SYMMETRY OF MOS IN SYMMETRY 2:   3 1 2 3 2 1 1 2 3 3   1 2 810 4 5 9 7 6 3   1 2 6 4 5 7 910 8 3   1 2 4 5 810 9 7 610
                                        8 5 4 7 9 6 3 1 2 6   4 5 810 7 9 3 1 2

 Wavefunction dump at record             2140.2

 Convergence thresholds  0.10E-04 (gradient)  0.10E-05 (energy)

 Weight factors for state symmetry  1:    0.05882   0.05882   0.05882   0.05882   0.05882   0.05882   0.05882   0.05882
                                          0.05882
 Weight factors for state symmetry  2:    0.05882   0.05882   0.05882   0.05882   0.05882   0.05882   0.05882   0.05882
 
 Number of orbital rotations:  796  ( 24 closed/active, 426 closed/virtual, 0 active/active, 346 active/virtual )
 Total number of variables:    4906
 
 Second-order MCSCF: L-BFGS accelerated
 
 ITER  MIC  NCI  NEG     ENERGY(VAR)    ENERGY(PROJ) ENERGY CHANGE       GRAD(0)  GRAD(ORB)   GRAD(CI)      STEP      TIME
   1    8   14    0   -331.03394448    -331.04756752   -0.01362303    0.07676233 0.00058816 0.00000000  0.11E+01      1.16
   2    7   12    0   -331.04724460    -331.04725985   -0.00001526    0.00465729 0.00000002 0.00000000  0.22E-01      2.25
   3    8   16    0   -331.04725987    -331.04725987   -0.00000000    0.00000764 0.00000001 0.00000000  0.39E-04      3.55

 CONVERGENCE REACHED!  Final gradient:    0.00000000 ( 0.44E-08)
                       Final energy:   -331.04725987
 
 Results for state 1.2 Quartet
 =============================
 !MCSCF STATE 1.2 Quartet Energy              -331.207302256257
 Nuclear energy                                  0.00000000
 Kinetic energy                                234.07202206
 One electron energy                          -587.73218198
 Two electron energy                           256.52487973
 Virial ratio                                    2.41498031
 
 !MCSCF STATE 1.2 Quartet Dipole moment          0.00000000     0.00000000     0.00000000
 Dipole moment /Debye                            0.00000000     0.00000000     0.00000000
 
 Results for state 2.2 Quartet
 =============================
 !MCSCF STATE 2.2 Quartet Energy              -330.945042447718
 Nuclear energy                                  0.00000000
 Kinetic energy                                233.33668911
 One electron energy                          -581.18660720
 Two electron energy                           250.24156475
 Virial ratio                                    2.41831550
 
 !MCSCF STATE 2.2 Quartet Dipole moment          0.00000000     0.00000000     0.00000000
 Dipole moment /Debye                            0.00000000     0.00000000     0.00000000
 
 Results for state 3.2 Quartet
 =============================
 !MCSCF STATE 3.2 Quartet Energy              -330.945042447678
 Nuclear energy                                  0.00000000
 Kinetic energy                                233.33668911
 One electron energy                          -581.18660720
 Two electron energy                           250.24156475
 Virial ratio                                    2.41831550
 
 !MCSCF STATE 3.2 Quartet Dipole moment          0.00000000     0.00000000     0.00000000
 Dipole moment /Debye                            0.00000000     0.00000000     0.00000000
 
 Results for state 4.2 Quartet
 =============================
 !MCSCF STATE 4.2 Quartet Energy              -330.945042446884
 Nuclear energy                                  0.00000000
 Kinetic energy                                233.33668912
 One electron energy                          -581.18660729
 Two electron energy                           250.24156484
 Virial ratio                                    2.41831550
 
 !MCSCF STATE 4.2 Quartet Dipole moment          0.00000000     0.00000000     0.00000000
 Dipole moment /Debye                            0.00000000     0.00000000     0.00000000
 
 Results for state 5.2 Quartet
 =============================
 !MCSCF STATE 5.2 Quartet Energy              -330.945042446462
 Nuclear energy                                  0.00000000
 Kinetic energy                                233.33668912
 One electron energy                          -581.18660730
 Two electron energy                           250.24156486
 Virial ratio                                    2.41831550
 
 !MCSCF STATE 5.2 Quartet Dipole moment          0.00000000     0.00000000     0.00000000
 Dipole moment /Debye                            0.00000000     0.00000000     0.00000000
 
 Results for state 6.2 Quartet
 =============================
 !MCSCF STATE 6.2 Quartet Energy              -330.945042446292
 Nuclear energy                                  0.00000000
 Kinetic energy                                233.33668913
 One electron energy                          -581.18660733
 Two electron energy                           250.24156488
 Virial ratio                                    2.41831550
 
 !MCSCF STATE 6.2 Quartet Dipole moment          0.00000000     0.00000000     0.00000000
 Dipole moment /Debye                            0.00000000     0.00000000     0.00000000
 
 Results for state 7.2 Quartet
 =============================
 !MCSCF STATE 7.2 Quartet Energy              -330.940275274928
 Nuclear energy                                  0.00000000
 Kinetic energy                                233.33668728
 One electron energy                          -581.18540160
 Two electron energy                           250.24512633
 Virial ratio                                    2.41829508
 
 !MCSCF STATE 7.2 Quartet Dipole moment          0.00000000     0.00000000     0.00000000
 Dipole moment /Debye                            0.00000000     0.00000000     0.00000000
 
 Results for state 8.2 Quartet
 =============================
 !MCSCF STATE 8.2 Quartet Energy              -330.940275273868
 Nuclear energy                                  0.00000000
 Kinetic energy                                233.33668729
 One electron energy                          -581.18540169
 Two electron energy                           250.24512642
 Virial ratio                                    2.41829508
 
 !MCSCF STATE 8.2 Quartet Dipole moment          0.00000000     0.00000000     0.00000000
 Dipole moment /Debye                            0.00000000     0.00000000     0.00000000
 
 Results for state 9.2 Quartet
 =============================
 !MCSCF STATE 9.2 Quartet Energy              -330.940275273362
 Nuclear energy                                  0.00000000
 Kinetic energy                                233.33668729
 One electron energy                          -581.18540171
 Two electron energy                           250.24512643
 Virial ratio                                    2.41829508
 
 !MCSCF STATE 9.2 Quartet Dipole moment          0.00000000     0.00000000     0.00000000
 Dipole moment /Debye                            0.00000000     0.00000000     0.00000000
 
 Results for state 1.2 Doublet
 =============================
 !MCSCF STATE 1.2 Doublet Energy              -331.140628314094
 Nuclear energy                                  0.00000000
 Kinetic energy                                233.99631335
 One electron energy                          -587.35423220
 Two electron energy                           256.21360389
 Virial ratio                                    2.41515319
 
 !MCSCF STATE 1.2 Doublet Dipole moment          0.00000000     0.00000000     0.00000000
 Dipole moment /Debye                            0.00000000     0.00000000     0.00000000
 
 Results for state 2.2 Doublet
 =============================
 !MCSCF STATE 2.2 Doublet Energy              -331.140628314060
 Nuclear energy                                  0.00000000
 Kinetic energy                                233.99631335
 One electron energy                          -587.35423221
 Two electron energy                           256.21360390
 Virial ratio                                    2.41515319
 
 !MCSCF STATE 2.2 Doublet Dipole moment          0.00000000     0.00000000     0.00000000
 Dipole moment /Debye                            0.00000000     0.00000000     0.00000000
 
 Results for state 3.2 Doublet
 =============================
 !MCSCF STATE 3.2 Doublet Energy              -331.140628314031
 Nuclear energy                                  0.00000000
 Kinetic energy                                233.99631335
 One electron energy                          -587.35423220
 Two electron energy                           256.21360389
 Virial ratio                                    2.41515319
 
 !MCSCF STATE 3.2 Doublet Dipole moment          0.00000000     0.00000000     0.00000000
 Dipole moment /Debye                            0.00000000     0.00000000     0.00000000
 
 Results for state 4.2 Doublet
 =============================
 !MCSCF STATE 4.2 Doublet Energy              -331.140628313906
 Nuclear energy                                  0.00000000
 Kinetic energy                                233.99631336
 One electron energy                          -587.35423223
 Two electron energy                           256.21360392
 Virial ratio                                    2.41515319
 
 !MCSCF STATE 4.2 Doublet Dipole moment          0.00000000     0.00000000     0.00000000
 Dipole moment /Debye                            0.00000000     0.00000000     0.00000000
 
 Results for state 5.2 Doublet
 =============================
 !MCSCF STATE 5.2 Doublet Energy              -331.140628313905
 Nuclear energy                                  0.00000000
 Kinetic energy                                233.99631336
 One electron energy                          -587.35423223
 Two electron energy                           256.21360391
 Virial ratio                                    2.41515319
 
 !MCSCF STATE 5.2 Doublet Dipole moment          0.00000000     0.00000000     0.00000000
 Dipole moment /Debye                            0.00000000     0.00000000     0.00000000
 
 Results for state 6.2 Doublet
 =============================
 !MCSCF STATE 6.2 Doublet Energy              -331.115645305300
 Nuclear energy                                  0.00000000
 Kinetic energy                                233.96202430
 One electron energy                          -587.08640258
 Two electron energy                           255.97075727
 Virial ratio                                    2.41525381
 
 !MCSCF STATE 6.2 Doublet Dipole moment          0.00000000     0.00000000     0.00000000
 Dipole moment /Debye                            0.00000000     0.00000000     0.00000000
 
 Results for state 7.2 Doublet
 =============================
 !MCSCF STATE 7.2 Doublet Energy              -331.115645305294
 Nuclear energy                                  0.00000000
 Kinetic energy                                233.96202430
 One electron energy                          -587.08640256
 Two electron energy                           255.97075726
 Virial ratio                                    2.41525381
 
 !MCSCF STATE 7.2 Doublet Dipole moment          0.00000000     0.00000000     0.00000000
 Dipole moment /Debye                            0.00000000     0.00000000     0.00000000
 
 Results for state 8.2 Doublet
 =============================
 !MCSCF STATE 8.2 Doublet Energy              -331.115645305024
 Nuclear energy                                  0.00000000
 Kinetic energy                                233.96202431
 One electron energy                          -587.08640261
 Two electron energy                           255.97075730
 Virial ratio                                    2.41525381
 
 !MCSCF STATE 8.2 Doublet Dipole moment          0.00000000     0.00000000     0.00000000
 Dipole moment /Debye                            0.00000000     0.00000000     0.00000000
 
 State-averaged charge density matrix saved on record 2140.2 (density set 1)
 
 No non-zero expectation values
 
 Expectation values for two-electron operators:
 
 ? Warning
 ? Transition properties are only calculated between states of the same symmetry
 ? The problem occurs in mu_properties_expec2

 !MCSCF expec      <1.2 Quartet|LXLX|1.2 Quartet>    -0.000000000000
 !MCSCF expec      <2.2 Quartet|LXLX|2.2 Quartet>     0.468428401677
 !MCSCF expec      <3.2 Quartet|LXLX|3.2 Quartet>     1.000000000000
 !MCSCF expec      <4.2 Quartet|LXLX|4.2 Quartet>     1.000000000003
 !MCSCF expec      <5.2 Quartet|LXLX|5.2 Quartet>     3.999999999950
 !MCSCF expec      <6.2 Quartet|LXLX|6.2 Quartet>     3.531569842671
 !MCSCF expec      <7.2 Quartet|LXLX|7.2 Quartet>     1.000000000000
 !MCSCF expec      <8.2 Quartet|LXLX|8.2 Quartet>     0.999999999990
 !MCSCF expec      <9.2 Quartet|LXLX|9.2 Quartet>     0.000000000010
 !MCSCF expec      <1.2 Doublet|LXLX|1.2 Doublet>     2.674944061960
 !MCSCF expec      <2.2 Doublet|LXLX|2.2 Doublet>     1.000000020336
 !MCSCF expec      <3.2 Doublet|LXLX|3.2 Doublet>     3.999999995748
 !MCSCF expec      <4.2 Doublet|LXLX|4.2 Doublet>     1.000000000000
 !MCSCF expec      <5.2 Doublet|LXLX|5.2 Doublet>     1.325041773744
 !MCSCF expec      <6.2 Doublet|LXLX|6.2 Doublet>     0.999998622297
 !MCSCF expec      <7.2 Doublet|LXLX|7.2 Doublet>     0.000001452747
 !MCSCF expec      <8.2 Doublet|LXLX|8.2 Doublet>     1.000000000000
 
 !MCSCF expec      <1.2 Quartet|LYLY|1.2 Quartet>    -0.000000000000
 !MCSCF expec      <2.2 Quartet|LYLY|2.2 Quartet>     1.651911331656
 !MCSCF expec      <3.2 Quartet|LYLY|3.2 Quartet>     1.000000000000
 !MCSCF expec      <4.2 Quartet|LYLY|4.2 Quartet>     3.999999999997
 !MCSCF expec      <5.2 Quartet|LYLY|5.2 Quartet>     1.000000000133
 !MCSCF expec      <6.2 Quartet|LYLY|6.2 Quartet>     2.348091356325
 !MCSCF expec      <7.2 Quartet|LYLY|7.2 Quartet>     1.000000000000
 !MCSCF expec      <8.2 Quartet|LYLY|8.2 Quartet>     0.000000000010
 !MCSCF expec      <9.2 Quartet|LYLY|9.2 Quartet>     0.999999999990
 !MCSCF expec      <1.2 Doublet|LYLY|1.2 Doublet>     3.292968956544
 !MCSCF expec      <2.2 Doublet|LYLY|2.2 Doublet>     3.999999991410
 !MCSCF expec      <3.2 Doublet|LYLY|3.2 Doublet>     1.000000009259
 !MCSCF expec      <4.2 Doublet|LYLY|4.2 Doublet>     1.000000000002
 !MCSCF expec      <5.2 Doublet|LYLY|5.2 Doublet>     0.707042502897
 !MCSCF expec      <6.2 Doublet|LYLY|6.2 Doublet>     0.000001377703
 !MCSCF expec      <7.2 Doublet|LYLY|7.2 Doublet>     0.999998547253
 !MCSCF expec      <8.2 Doublet|LYLY|8.2 Doublet>     1.000000000000
 
 !MCSCF expec      <1.2 Quartet|LZLZ|1.2 Quartet>    -0.000000000000
 !MCSCF expec      <2.2 Quartet|LZLZ|2.2 Quartet>     3.879660266667
 !MCSCF expec      <3.2 Quartet|LZLZ|3.2 Quartet>     4.000000000000
 !MCSCF expec      <4.2 Quartet|LZLZ|4.2 Quartet>     1.000000000000
 !MCSCF expec      <5.2 Quartet|LZLZ|5.2 Quartet>     0.999999999917
 !MCSCF expec      <6.2 Quartet|LZLZ|6.2 Quartet>     0.120338801004
 !MCSCF expec      <7.2 Quartet|LZLZ|7.2 Quartet>    -0.000000000000
 !MCSCF expec      <8.2 Quartet|LZLZ|8.2 Quartet>     1.000000000000
 !MCSCF expec      <9.2 Quartet|LZLZ|9.2 Quartet>     1.000000000000
 !MCSCF expec      <1.2 Doublet|LZLZ|1.2 Doublet>     0.032086981496
 !MCSCF expec      <2.2 Doublet|LZLZ|2.2 Doublet>     0.999999988254
 !MCSCF expec      <3.2 Doublet|LZLZ|3.2 Doublet>     0.999999994993
 !MCSCF expec      <4.2 Doublet|LZLZ|4.2 Doublet>     3.999999999998
 !MCSCF expec      <5.2 Doublet|LZLZ|5.2 Doublet>     3.967915723359
 !MCSCF expec      <6.2 Doublet|LZLZ|6.2 Doublet>     1.000000000000
 !MCSCF expec      <7.2 Doublet|LZLZ|7.2 Doublet>     1.000000000000
 !MCSCF expec      <8.2 Doublet|LZLZ|8.2 Doublet>    -0.000000000000
 
 !MCSCF expec      <1.2 Quartet|L**2|1.2 Quartet>    -0.000000000000
 !MCSCF expec      <2.2 Quartet|L**2|2.2 Quartet>     6.000000000000
 !MCSCF expec      <3.2 Quartet|L**2|3.2 Quartet>     6.000000000000
 !MCSCF expec      <4.2 Quartet|L**2|4.2 Quartet>     6.000000000000
 !MCSCF expec      <5.2 Quartet|L**2|5.2 Quartet>     6.000000000000
 !MCSCF expec      <6.2 Quartet|L**2|6.2 Quartet>     6.000000000000
 !MCSCF expec      <7.2 Quartet|L**2|7.2 Quartet>     2.000000000000
 !MCSCF expec      <8.2 Quartet|L**2|8.2 Quartet>     2.000000000000
 !MCSCF expec      <9.2 Quartet|L**2|9.2 Quartet>     2.000000000000
 !MCSCF expec      <1.2 Doublet|L**2|1.2 Doublet>     6.000000000000
 !MCSCF expec      <2.2 Doublet|L**2|2.2 Doublet>     6.000000000000
 !MCSCF expec      <3.2 Doublet|L**2|3.2 Doublet>     6.000000000000
 !MCSCF expec      <4.2 Doublet|L**2|4.2 Doublet>     6.000000000000
 !MCSCF expec      <5.2 Doublet|L**2|5.2 Doublet>     6.000000000000
 !MCSCF expec      <6.2 Doublet|L**2|6.2 Doublet>     2.000000000000
 !MCSCF expec      <7.2 Doublet|L**2|7.2 Doublet>     2.000000000000
 !MCSCF expec      <8.2 Doublet|L**2|8.2 Doublet>     2.000000000000
 
 EXTRA SYMMETRY OF MOS IN SYMMETRY 1:   1 4 3 5 2 6 1 1 3 5   6 2 4 1 3 5 6 4 2 1   3 5 4 2 6 1 4 3 5 2   6 1 4 5 3 2 6 91310
                                       1415 812 711 4 3 5 2   6 1 1
 EXTRA SYMMETRY OF MOS IN SYMMETRY 2:   1 3 2 2 3 1 1 3 2 3   2 1 5 9 7 810 6 4 3   2 1 4 9 7 810 6 5 1   3 2 4 7 9 810 6 5 4
                                        7 9 810 6 5 1 3 2 4   9 7 810 6 5 1 3 2
 
  NATURAL ORBITALS (STATE AVERAGED)
  =================================

  Orbital  Occupation    Energy    Cen Mu Typ  Coefficients
    1.1     2.00000    -8.20417     1  1  s    0.99583
    2.1     2.00000    -2.18921     1  1  d1+  1.00040
    3.1     2.00000    -2.18921     1  1  d2-  1.00040
    4.1     2.00000    -2.18921     1  1  d2+  1.00040
    5.1     2.00000    -2.18921     1  1  d0   1.00040
    6.1     2.00000    -2.18921     1  1  d1-  1.00040
    7.1     1.97947    -0.79052     1  2  s    0.99285
    1.2     2.00000    -6.11724     1  1  px   0.99965
    2.2     2.00000    -6.11724     1  1  pz   0.99965
    3.2     2.00000    -6.11724     1  1  py   0.99965
    4.2     0.84701    -0.20939     1  2  py   1.01741
    5.2     0.84701    -0.20939     1  2  pz   1.01741
    6.2     0.84701    -0.20939     1  2  px   1.01741
    7.2     0.15983     0.04440     1  2  px  -0.48566    1  7  px   0.69103    1  8  px   0.45736
    8.2     0.15983     0.04440     1  2  pz  -0.48566    1  7  pz   0.69104    1  8  pz   0.45736
    9.2     0.15983     0.04440     1  2  py  -0.48566    1  7  py   0.69103    1  8  py   0.45736
 
 Natural orbital dump (state averaged) at molpro section 2140.2 (Orbital set 2)
 
 Transform the CI vectors
 
 CI Coefficients of symmetry 2 (Quartet)
 =======================================

 State:              1               2               3               4               5               6               7
 2 aaa000       0.99914025      0.00000003     -0.00000000      0.00000000     -0.00000000     -0.00000000     -0.00000000
 2 a0a0a0       0.00621259      0.14026015     -0.00000155      0.00000010      0.00000764      0.79639170     -0.00000000
 2 aa0a00      -0.00621261      0.75982568     -0.00000844      0.00000009      0.00000242      0.27672710      0.00000000
 2 a0aa00      -0.00000000      0.00000006      0.00000000     -0.70031051     -0.00000071      0.00000007     -0.00000000
 2 a0a00a      -0.00000000      0.00000024      0.00000000     -0.00000071      0.70031048     -0.00000676      0.00000000
 2 0aaa00       0.00000000      0.00000778      0.70031039      0.00000000     -0.00000000     -0.00000001     -0.70020811
 2 aa000a       0.00000000      0.00000778      0.70031035      0.00000000     -0.00000000     -0.00000001      0.70020815
 2 0aa0a0       0.00000000     -0.00000024     -0.00000000      0.00000071     -0.70031025      0.00000676     -0.00000000
 2 aa00a0      -0.00000000     -0.00000006     -0.00000000      0.70031023      0.00000071     -0.00000007      0.00000000
 2 0aa00a      -0.00621258     -0.61956537      0.00000689      0.00000000      0.00000523      0.51966488     -0.00000000
 0 a2a0a0       0.01899761     -0.01457499      0.00000016     -0.00000001     -0.00000079     -0.08275621      0.00000000
 0 aa2a00      -0.01899760     -0.07895649      0.00000088     -0.00000001     -0.00000025     -0.02875581     -0.00000000
 0 aa20a0       0.00000000      0.00000001      0.00000000     -0.07277201     -0.00000007      0.00000001     -0.00000000
 0 2aa0a0      -0.00000000      0.00000002      0.00000000     -0.00000007      0.07277201     -0.00000070      0.00000000
 0 aa200a      -0.00000000     -0.00000081     -0.07277202     -0.00000000      0.00000000      0.00000000     -0.07370307
 0 2aaa00      -0.00000000     -0.00000081     -0.07277202     -0.00000000      0.00000000      0.00000000      0.07370306
 0 a2a00a       0.00000000     -0.00000002     -0.00000000      0.00000007     -0.07277203      0.00000070     -0.00000000
 0 a2aa00       0.00000000     -0.00000001     -0.00000000      0.07277204      0.00000007     -0.00000001      0.00000000
 2 0a0a0a      -0.01217325     -0.01223497      0.00000014     -0.00000001     -0.00000067     -0.06946975      0.00000000
 2 00a0aa       0.01217325     -0.06628003      0.00000074     -0.00000001     -0.00000021     -0.02413903     -0.00000000
 0 2aa00a      -0.01899760      0.06438149     -0.00000072     -0.00000000     -0.00000054     -0.05400043      0.00000000
 2 a00a0a       0.00000000     -0.00000002     -0.00000000      0.00000006     -0.06108851      0.00000059     -0.00000000
 2 00aaa0      -0.00000000     -0.00000068     -0.06108850     -0.00000000      0.00000000      0.00000000      0.06108218
 2 a000aa      -0.00000000     -0.00000068     -0.06108849     -0.00000000      0.00000000      0.00000000     -0.06108218
 2 00aa0a       0.00000000     -0.00000001     -0.00000000      0.06108849      0.00000006     -0.00000001      0.00000000
 2 0a0aa0      -0.00000000      0.00000002      0.00000000     -0.00000006      0.06108849     -0.00000059      0.00000000
 2 0a00aa      -0.00000000      0.00000001      0.00000000     -0.06108847     -0.00000006      0.00000001     -0.00000000
 2 a00aa0       0.01217325      0.05404507     -0.00000060     -0.00000000     -0.00000046     -0.04533066      0.00000000
 
 Energy:     -331.20730226   -330.94504245   -330.94504245   -330.94504245   -330.94504245   -330.94504245   -330.94027527

 State:              8               9
 2 aaa000       0.00000000     -0.00000000
 2 a0a0a0       0.00000000      0.00000000
 2 aa0a00       0.00000000     -0.00000000
 2 a0aa00       0.70020800     -0.00000224
 2 a0a00a       0.00000224      0.70020801
 2 0aaa00      -0.00000000     -0.00000000
 2 aa000a      -0.00000000     -0.00000000
 2 0aa0a0       0.00000224      0.70020825
 2 aa00a0       0.70020827     -0.00000224
 2 0aa00a       0.00000000     -0.00000000
 0 a2a0a0      -0.00000000     -0.00000000
 0 aa2a00      -0.00000000      0.00000000
 0 aa20a0      -0.07370308      0.00000024
 0 2aa0a0      -0.00000024     -0.07370308
 0 aa200a       0.00000000      0.00000000
 0 2aaa00       0.00000000      0.00000000
 0 a2a00a      -0.00000024     -0.07370305
 0 a2aa00      -0.07370305      0.00000024
 2 0a0a0a      -0.00000000      0.00000000
 2 00a0aa      -0.00000000     -0.00000000
 0 2aa00a      -0.00000000      0.00000000
 2 a00a0a      -0.00000020     -0.06108218
 2 00aaa0       0.00000000      0.00000000
 2 a000aa       0.00000000      0.00000000
 2 00aa0a      -0.06108215      0.00000020
 2 0a0aa0      -0.00000020     -0.06108220
 2 0a00aa      -0.06108217      0.00000020
 2 a00aa0      -0.00000000     -0.00000000
 
 Energy:     -330.94027527   -330.94027527
 
 
 CI Coefficients of symmetry 2 (Doublet)
 =======================================

 State:              1               2               3               4               5               6               7
 2 aba000       0.81049711      0.00013526     -0.00004567     -0.00000000     -0.07288441      0.00000000     -0.00000000
 2 baa000      -0.34212880     -0.00005651      0.00003038      0.00000001      0.73835330      0.00000000      0.00000000
 2 0a2000      -0.00000000      0.00000003      0.00000028     -0.70474343      0.00000001     -0.00000011      0.00000018
 2 02a000      -0.00003872      0.00000629     -0.70474343     -0.00000028      0.00001106     -0.00081545      0.69473899
 2 a02000       0.00011766     -0.70474341     -0.00000630     -0.00000003      0.00000059      0.69473900      0.00081545
 2 2a0000       0.00000000     -0.00000003     -0.00000028      0.70474341     -0.00000001     -0.00000011      0.00000018
 2 20a000       0.00003872     -0.00000629      0.70474341      0.00000028     -0.00001106     -0.00081545      0.69473901
 2 a20000      -0.00011766      0.70474341      0.00000630      0.00000003     -0.00000059      0.69473900      0.00081545
 2 aab000      -0.46836830     -0.00007875      0.00001529     -0.00000001     -0.66546889     -0.00000000     -0.00000000
 0 2a2000      -0.00000000      0.00000000      0.00000000      0.00000000      0.00000000      0.00000002     -0.00000004
 0 22a000       0.00000000     -0.00000000      0.00000000      0.00000000     -0.00000000      0.00017740     -0.15113774
 0 a22000      -0.00000000      0.00000000      0.00000000     -0.00000000      0.00000000     -0.15113774     -0.00017740
 2 aa000b      -0.00000000      0.00000000      0.00000001     -0.03548772      0.00000000      0.00000001     -0.00000001
 2 0aab00      -0.00000000      0.00000000      0.00000001     -0.03548770      0.00000000     -0.00000001      0.00000001
 2 a0a00b      -0.00000195      0.00000032     -0.03548772     -0.00000001      0.00000056      0.00006371     -0.05428063
 2 aa00b0      -0.00000592      0.03548771      0.00000032      0.00000000     -0.00000003      0.05428062      0.00006371
 2 0aa0b0       0.00000195     -0.00000032      0.03548771      0.00000001     -0.00000056      0.00006371     -0.05428062
 2 a0ab00       0.00000592     -0.03548769     -0.00000032     -0.00000000      0.00000003      0.05428060      0.00006371
 
 Energy:     -331.14062831   -331.14062831   -331.14062831   -331.14062831   -331.14062831   -331.11564531   -331.11564531

 State:              8
 2 aba000      -0.00000000
 2 baa000      -0.00000000
 2 0a2000       0.69473947
 2 02a000      -0.00000018
 2 a02000       0.00000011
 2 2a0000       0.69473948
 2 20a000      -0.00000018
 2 a20000       0.00000011
 2 aab000       0.00000000
 0 2a2000      -0.15113784
 0 22a000       0.00000004
 0 a22000      -0.00000002
 2 aa000b      -0.05428067
 2 0aab00       0.05428064
 2 a0a00b       0.00000001
 2 aa00b0       0.00000001
 2 0aa0b0       0.00000001
 2 a0ab00       0.00000001
 
 Energy:     -331.11564531
 


 **********************************************************************************************************************************
 DATASETS  * FILE   NREC   LENGTH (MB)   RECORD NAMES
              1      21       39.05       500      610      700      900      950      970     1000      129      960     1100   
                                          VAR    BASINP    GEOM    SYMINP    ZMAT    AOBASIS   BASIS     P2S    ABASIS      S 
                                         1400     1410     1420     1200     1210     1080     1700     1600     1650     1380   
                                           T        V       ECP      H0       H01     AOSYM    OPER      SMH    MOLCAS    JKOP   
                                         1700(1)
                                         OPER   

              2       5        0.90       700     1000      520     2100     2140   
                                         GEOM     BASIS   MCVARS     RHF     MCSCF   

 PROGRAMS   *        TOTAL     MULTI   RHF-SCF       INT
 CPU TIMES  *         4.87      3.62      0.11      0.90
 REAL TIME  *         6.87 SEC
 DISK USED  *        40.04 MB (local),      541.98 MB (total)
 SF USED    *        26.60 MB
 GA USED    *         0.00 MB       (max)       0.00 MB       (current)
 **********************************************************************************************************************************

 Energies and &lt;L**2&gt; values

         ENERGY     LL
    -331.2073023  -0.0
    -330.9450424   6.0
    -330.9450424   6.0
    -330.9450424   6.0
    -330.9450424   6.0
    -330.9450424   6.0
    -330.9402753   2.0
    -330.9402753   2.0
    -330.9402753   2.0
    -331.1406283   6.0
    -331.1406283   6.0
    -331.1406283   6.0
    -331.1406283   6.0
    -331.1406283   6.0
    -331.1156453   2.0
    -331.1156453   2.0
    -331.1156453   2.0
                                                  


 PROGRAM * CI (Multireference internally contracted CI)     Authors: H.-J. Werner, P.J. Knowles, 1987


 Convergence thresholds:  THRVAR = 1.00D-08  THRDEN = 1.00D-06

 Number of optimized states: 9  Roots:    1   2   3   4   5   6   7   8   9
 Number of reference states: 9  Roots:    1   2   3   4   5   6   7   8   9

 Reference symmetry:                   2   Quartet 
 Number of electrons:                 23
 Maximum number of shells:             5
 Maximum number of spin couplings:   165

 Reference space:       86 conf      104 CSFs
 N elec internal:    18764 conf    67760 CSFs
 N-1 el internal:    14189 conf   101369 CSFs
 N-2 el internal:     4931 conf    61610 CSFs

 Number of electrons in valence space:                     23
 Maximum number of open shell orbitals in reference space:  5
 Maximum number of open shell orbitals in internal spaces: 11


 Number of closed-shell orbitals:   9 (   6   3 )
 Number of active  orbitals:        7 (   1   6 )
 Number of external orbitals:      96 (  46  50 )

 Molecular orbitals read from record     2140.2  Type=MCSCF/NATURAL (state averaged)

 Valence orbitals related to previous ones by unitary transformation. Operators transformed.


 Number of p-space configurations:  10

 Reference wavefunction optimized for reference space (refopt=1)

 State     Reference Energy 
     1      -331.20730226
     2      -330.94504245
     3      -330.94504245
     4      -330.94504245
     5      -330.94504245
     6      -330.94504245
     7      -330.94027527
     8      -330.94027527
     9      -330.94027527

 ?WARNING: SMALL EIGENVALUE OF PAIR OVERLAP MATRIX:  0.1599D-06

 ?WARNING: SMALL EIGENVALUE OF PAIR OVERLAP MATRIX:  0.1283D-06

 Number of blocks in overlap matrix:   841   Smallest eigenvalue:  0.13D-06
 Number of N-2 electron functions:    1994
 Number of N-1 electron functions:  101369

 Number of internal configurations:                33680
 Number of singly external configurations:       4865858
 Number of doubly external configurations:       4594664
 Total number of contracted configurations:      9494202
 Total number of uncontracted configurations:  146185146

 Diagonal Coupling coefficients finished.               Storage:  20919943 words, CPU-Time:     47.48 seconds.
 Energy denominators for pairs finished in 1 passes.    Storage:   1669058 words, CPU-time:      0.23 seconds.

  ITER. STATE  ROOT     SQ.NORM     CORR.ENERGY   TOTAL ENERGY   ENERGY CHANGE       DEN1      VAR(S)    VAR(P)      TIME
    1     1     1     1.00000000     0.00000000  -331.20730226    -0.00000000    -0.90970407  0.44D-01  0.59D-01    58.87
    1     2     2     1.00000000     0.00000000  -330.94504245     0.00000000    -0.88324189  0.38D-01  0.55D-01    58.87
    1     3     3     1.00000000     0.00000000  -330.94504245     0.00000000    -0.88366818  0.38D-01  0.56D-01    58.87
    1     4     4     1.00000000     0.00000000  -330.94504245    -0.00000000    -0.88378613  0.38D-01  0.56D-01    58.87
    1     5     5     1.00000000     0.00000000  -330.94504245     0.00000000    -0.88355813  0.38D-01  0.56D-01    58.87
    1     6     6     1.00000000     0.00000000  -330.94504245     0.00000000    -0.88325418  0.37D-01  0.55D-01    58.87
    1     7     7     1.00000000     0.00000000  -330.94027527     0.00000000    -0.88441948  0.39D-01  0.56D-01    58.87
    1     8     8     1.00000000     0.00000000  -330.94027527     0.00000000    -0.88449004  0.39D-01  0.56D-01    58.87
    1     9     9     1.00000000     0.00000000  -330.94027527    -0.00000000    -0.88430785  0.39D-01  0.56D-01    58.87
    2     1     1     1.07021473    -0.74881083  -331.95611309    -0.74881083    -0.01905493  0.32D-02  0.88D-03   417.32
    2     2     2     1.06431758    -0.73633910  -331.68138155    -0.73633910    -0.01693304  0.22D-02  0.79D-03   417.32
    2     3     3     1.06461969    -0.73626835  -331.68131080    -0.73626835    -0.01698375  0.22D-02  0.78D-03   417.32
    2     4     4     1.06467426    -0.73623120  -331.68127364    -0.73623120    -0.01701928  0.22D-02  0.79D-03   417.32
    2     5     5     1.06478758    -0.73617331  -331.68121575    -0.73617331    -0.01707999  0.23D-02  0.79D-03   417.32
    2     6     6     1.06455366    -0.73615719  -331.68119963    -0.73615719    -0.01710832  0.23D-02  0.79D-03   417.32
    2     7     7     1.06529533    -0.73632156  -331.67659684    -0.73632156    -0.01723455  0.24D-02  0.79D-03   417.32
    2     8     8     1.06535526    -0.73628057  -331.67655584    -0.73628057    -0.01727612  0.24D-02  0.79D-03   417.32
    2     9     9     1.06540914    -0.73625107  -331.67652634    -0.73625107    -0.01730465  0.25D-02  0.79D-03   417.32
    3     1     1     1.06073696    -0.76745804  -331.97476029    -0.01864720    -0.00061722  0.76D-04  0.57D-04   775.98
    3     2     2     1.05843578    -0.75217597  -331.69721842    -0.01583687    -0.00053516  0.67D-04  0.39D-04   775.98
    3     3     3     1.05841322    -0.75217201  -331.69721445    -0.01590366    -0.00053839  0.67D-04  0.40D-04   775.98
    3     4     4     1.05847047    -0.75217012  -331.69721256    -0.01593892    -0.00053947  0.67D-04  0.40D-04   775.98
    3     5     5     1.05846586    -0.75216887  -331.69721131    -0.01599556    -0.00054007  0.67D-04  0.41D-04   775.98
    3     6     6     1.05846850    -0.75216808  -331.69721052    -0.01601089    -0.00054104  0.67D-04  0.41D-04   775.98
    3     7     7     1.05866299    -0.75251134  -331.69278661    -0.01618978    -0.00055712  0.72D-04  0.43D-04   775.98
    3     8     8     1.05865706    -0.75250996  -331.69278524    -0.01622940    -0.00055760  0.72D-04  0.43D-04   775.98
    3     9     9     1.05865907    -0.75250971  -331.69278499    -0.01625864    -0.00055818  0.72D-04  0.43D-04   775.98
    4     1     1     1.06032146    -0.76810733  -331.97540958    -0.00064929    -0.00004520  0.37D-05  0.63D-05  1135.90
    4     2     2     1.05801354    -0.75271258  -331.69775503    -0.00053660    -0.00003624  0.32D-05  0.51D-05  1135.90
    4     3     3     1.05800954    -0.75271207  -331.69775451    -0.00054006    -0.00003685  0.32D-05  0.52D-05  1135.90
    4     4     4     1.05800374    -0.75271197  -331.69775441    -0.00054185    -0.00003661  0.32D-05  0.52D-05  1135.90
    4     5     5     1.05800608    -0.75271176  -331.69775421    -0.00054289    -0.00003706  0.33D-05  0.53D-05  1135.90
    4     6     6     1.05800633    -0.75271165  -331.69775409    -0.00054357    -0.00003706  0.33D-05  0.53D-05  1135.90
    4     7     7     1.05819241    -0.75307259  -331.69334786    -0.00056125    -0.00003959  0.34D-05  0.58D-05  1135.90
    4     8     8     1.05818903    -0.75307223  -331.69334750    -0.00056227    -0.00003983  0.34D-05  0.58D-05  1135.90
    4     9     9     1.05818899    -0.75307205  -331.69334732    -0.00056233    -0.00003987  0.34D-05  0.58D-05  1135.90
    5     1     1     1.06079430    -0.76815929  -331.97546155    -0.00005196    -0.00000538  0.32D-06  0.75D-06  1494.98
    5     2     2     1.05823264    -0.75275685  -331.69779930    -0.00004427    -0.00000485  0.19D-06  0.83D-06  1494.98
    5     3     3     1.05823303    -0.75275679  -331.69779923    -0.00004472    -0.00000489  0.20D-06  0.84D-06  1494.98
    5     4     4     1.05823266    -0.75275674  -331.69779919    -0.00004478    -0.00000491  0.19D-06  0.84D-06  1494.98
    5     5     5     1.05823485    -0.75275673  -331.69779917    -0.00004497    -0.00000483  0.19D-06  0.82D-06  1494.98
    5     6     6     1.05823647    -0.75275659  -331.69779903    -0.00004494    -0.00000491  0.20D-06  0.84D-06  1494.98
    5     7     7     1.05845028    -0.75312114  -331.69339642    -0.00004855    -0.00000528  0.21D-06  0.88D-06  1494.98
    5     8     8     1.05845053    -0.75312108  -331.69339635    -0.00004885    -0.00000532  0.21D-06  0.89D-06  1494.98
    5     9     9     1.05845034    -0.75312102  -331.69339629    -0.00004897    -0.00000536  0.21D-06  0.89D-06  1494.98
    6     1     1     1.06086883    -0.76816593  -331.97546818    -0.00000664    -0.00000056  0.34D-07  0.69D-07  1852.69
    6     2     2     1.05830041    -0.75276360  -331.69780605    -0.00000676    -0.00000068  0.38D-07  0.91D-07  1852.69
    6     3     3     1.05830014    -0.75276360  -331.69780605    -0.00000681    -0.00000069  0.39D-07  0.91D-07  1852.69
    6     4     4     1.05830033    -0.75276359  -331.69780604    -0.00000685    -0.00000069  0.39D-07  0.92D-07  1852.69
    6     5     5     1.05830080    -0.75276348  -331.69780593    -0.00000676    -0.00000068  0.38D-07  0.89D-07  1852.69
    6     6     6     1.05830087    -0.75276347  -331.69780591    -0.00000688    -0.00000069  0.39D-07  0.90D-07  1852.69
    6     7     7     1.05852362    -0.75312840  -331.69340368    -0.00000726    -0.00000071  0.40D-07  0.94D-07  1852.69
    6     8     8     1.05852330    -0.75312840  -331.69340367    -0.00000732    -0.00000071  0.40D-07  0.94D-07  1852.69
    6     9     9     1.05852343    -0.75312839  -331.69340366    -0.00000737    -0.00000072  0.41D-07  0.95D-07  1852.69
    7     1     1     1.06085729    -0.76816656  -331.97546882    -0.00000064    -0.00000006  0.39D-08  0.82D-08  2210.84
    7     2     2     1.05829605    -0.75276441  -331.69780685    -0.00000080    -0.00000010  0.81D-08  0.13D-07  2210.84
    7     3     3     1.05829605    -0.75276440  -331.69780685    -0.00000081    -0.00000010  0.81D-08  0.13D-07  2210.84
    7     4     4     1.05829606    -0.75276440  -331.69780685    -0.00000081    -0.00000010  0.81D-08  0.13D-07  2210.84
    7     5     5     1.05829596    -0.75276427  -331.69780672    -0.00000079    -0.00000010  0.79D-08  0.13D-07  2210.84
    7     6     6     1.05829595    -0.75276427  -331.69780672    -0.00000080    -0.00000010  0.79D-08  0.13D-07  2210.84
    7     7     7     1.05851893    -0.75312923  -331.69340450    -0.00000082    -0.00000010  0.84D-08  0.14D-07  2210.84
    7     8     8     1.05851893    -0.75312922  -331.69340450    -0.00000083    -0.00000010  0.84D-08  0.14D-07  2210.84
    7     9     9     1.05851890    -0.75312922  -331.69340450    -0.00000083    -0.00000010  0.84D-08  0.14D-07  2210.84
    8     1     1     1.06086230    -0.76816663  -331.97546889    -0.00000007    -0.00000001  0.90D-09  0.11D-08  2569.79
    8     2     2     1.05829995    -0.75276451  -331.69780696    -0.00000011    -0.00000002  0.13D-08  0.26D-08  2569.79
    8     3     3     1.05829996    -0.75276451  -331.69780696    -0.00000011    -0.00000002  0.13D-08  0.26D-08  2569.79
    8     4     4     1.05829997    -0.75276451  -331.69780696    -0.00000011    -0.00000002  0.13D-08  0.26D-08  2569.79
    8     5     5     1.05829986    -0.75276438  -331.69780683    -0.00000011    -0.00000002  0.13D-08  0.25D-08  2569.79
    8     6     6     1.05829989    -0.75276438  -331.69780682    -0.00000011    -0.00000002  0.13D-08  0.26D-08  2569.79
    8     7     7     1.05852353    -0.75312934  -331.69340461    -0.00000011    -0.00000002  0.13D-08  0.27D-08  2569.79
    8     8     8     1.05852355    -0.75312934  -331.69340461    -0.00000011    -0.00000002  0.13D-08  0.27D-08  2569.79
    8     9     9     1.05852355    -0.75312934  -331.69340461    -0.00000011    -0.00000002  0.13D-08  0.27D-08  2569.79


 =====================================
 Analysis of CPU times by interactions
 =====================================

       I      S      P

 I   1.2%
 S   0.8%  13.7%
 P   0.3%  50.3%  26.3%

 Initialization:   1.9%
 Other:            5.4%

 Total CPU:     2569.8 seconds
 =====================================



 Wavefunction saved on  5302.2

 Reference coefficients greater than 0.0500000
 =============================================
 2222222222///000           0.9700429  -0.0000000   0.0000000   0.0000000  -0.0000000   0.0000000  -0.0000000   0.0000000
                            0.0000000
 22222222220//00/          -0.0115214   0.0049057   0.0074628  -0.0097388   0.7863022  -0.0049008  -0.0000011   0.0000002
                           -0.0000002
 2222222222//0/00          -0.0115214   0.0003563  -0.0198107   0.0036482  -0.3887875   0.6833067   0.0000008  -0.0000003
                            0.0000002
 2222222222/0/0/0           0.0115214   0.0052620  -0.0123479  -0.0060905   0.3975146   0.6784059  -0.0000003  -0.0000000
                            0.0000000
 2222222222/0/00/          -0.0000000   0.0818858   0.6757888  -0.0127804  -0.0069860   0.0156436  -0.4361698  -0.4128057
                            0.3208518
 22222222220//0/0          -0.0000000  -0.0818854  -0.6757881   0.0127808   0.0069852  -0.0156437  -0.4361707  -0.4128054
                            0.3208529
 2222222222/0//00          -0.0000000   0.3244597  -0.0279218   0.5981352   0.0056427  -0.0009614  -0.1159850   0.4838292
                            0.4648181
 2222222222//00/0          -0.0000000  -0.3244601   0.0279229  -0.5981349  -0.0056431   0.0009616  -0.1159856   0.4838290
                            0.4648182
 2222222222//000/           0.0000000   0.5931670  -0.0779881  -0.3253470  -0.0070211  -0.0048274  -0.5098057   0.2431053
                           -0.3802588
 22222222220///00           0.0000000   0.5931665  -0.0779881  -0.3253470  -0.0070193  -0.0048279   0.5098061  -0.2431050
                            0.3802594
 22222202222//00/          -0.0160979  -0.0004728  -0.0007193   0.0009387  -0.0757901   0.0004724   0.0000001  -0.0000000
                            0.0000000
 2222222222/00//0           0.0108507  -0.0004402  -0.0006696   0.0008738  -0.0705477   0.0004397   0.0000001  -0.0000000
                            0.0000000
 2222220222//2/00          -0.0160979  -0.0000343   0.0019095  -0.0003517   0.0374744  -0.0658625  -0.0000001   0.0000000
                           -0.0000000
 2222220222/2/0/0           0.0160979  -0.0005072   0.0011902   0.0005871  -0.0383156  -0.0653902   0.0000001  -0.0000000
                            0.0000000
 2222220222/2/00/           0.0000000  -0.0078928  -0.0651380   0.0012319   0.0006734  -0.0015079   0.0427633   0.0404727
                           -0.0314572
 22222202222//0/0          -0.0000000   0.0078928   0.0651379  -0.0012319  -0.0006733   0.0015078   0.0427634   0.0404726
                           -0.0314573
 222222222200/0//           0.0108507  -0.0000320   0.0017774  -0.0003273   0.0348824  -0.0613068  -0.0000001   0.0000000
                           -0.0000000
 22222222220/0/0/          -0.0108507  -0.0004721   0.0011079   0.0005464  -0.0356654  -0.0608672   0.0000000   0.0000000
                            0.0000000
 2222222222/00/0/          -0.0000000  -0.0073469  -0.0606325   0.0011467   0.0006268  -0.0014036   0.0391329   0.0370367
                           -0.0287866
 22222222220/0//0          -0.0000000   0.0073469   0.0606324  -0.0011467  -0.0006267   0.0014036   0.0391330   0.0370366
                           -0.0287867
 2222220222/2//00          -0.0000000  -0.0312740   0.0026913  -0.0576531  -0.0005439   0.0000927   0.0113715  -0.0474360
                           -0.0455721
 2222220222//20/0           0.0000000   0.0312741  -0.0026914   0.0576530   0.0005439  -0.0000927   0.0113716  -0.0474359
                           -0.0455720
 2222220222//200/          -0.0000000  -0.0571742   0.0075171   0.0313596   0.0006767   0.0004653   0.0499828  -0.0238347
                            0.0372816
 22222202222///00          -0.0000000  -0.0571742   0.0075171   0.0313596   0.0006766   0.0004653  -0.0499828   0.0238347
                           -0.0372817
 22222222220/00//           0.0000000   0.0291109  -0.0025053   0.0536652   0.0005063  -0.0000863   0.0104061  -0.0434088
                           -0.0417032
 222222222200//0/          -0.0000000  -0.0291108   0.0025052  -0.0536652  -0.0005063   0.0000863   0.0104061  -0.0434088
                           -0.0417032
 2222222222/000//           0.0000000  -0.0532195   0.0069972   0.0291904   0.0006299   0.0004331   0.0457394  -0.0218113
                            0.0341166
 222222222200///0           0.0000000  -0.0532195   0.0069972   0.0291904   0.0006298   0.0004332  -0.0457395   0.0218112
                           -0.0341166

 Coefficients of fixed reference functions:
 ==========================================

 State      Coefficients
 1           0.970802    0.000000    0.000000    0.000000   -0.000000    0.000000    0.000000   -0.000000   -0.000000
 2          -0.000000   -0.002069    0.846476    0.463019    0.116854    0.006968   -0.000000   -0.000000    0.000000
 3           0.000000   -0.021812   -0.111293   -0.039846    0.964381   -0.011653   -0.000000    0.000001    0.000000
 4           0.000000    0.008101   -0.464285    0.853566   -0.018239   -0.009070   -0.000000    0.000000    0.000000
 5          -0.000000   -0.740521   -0.010018    0.008053   -0.009969    0.629270    0.000001   -0.000000   -0.000001
 6           0.000000    0.629047   -0.006889   -0.001372    0.022324    0.740519   -0.000000    0.000000   -0.000000
 7          -0.000000    0.000001    0.000000    0.000000    0.000000   -0.000001    0.727639   -0.165544   -0.622540
 8           0.000000   -0.000000    0.000000    0.000000   -0.000000    0.000000   -0.346981    0.690563   -0.589192
 9           0.000000    0.000000    0.000000    0.000000   -0.000001   -0.000000    0.542739    0.663429    0.457948

 Coefficients of rotated reference functions:
 ============================================

 State      Coefficients
 1           0.970802   -0.000000    0.000000    0.000000   -0.000000    0.000000   -0.000000    0.000000    0.000000
 2          -0.000000    0.971914   -0.000000   -0.000000   -0.000000   -0.000000    0.000000   -0.000000    0.000000
 3           0.000000   -0.000000    0.971914    0.000000   -0.000000    0.000000    0.000000    0.000000   -0.000000
 4           0.000000   -0.000000    0.000000    0.971914   -0.000000    0.000000   -0.000000   -0.000000   -0.000000
 5          -0.000000   -0.000000   -0.000000   -0.000000    0.971914   -0.000000   -0.000000    0.000000   -0.000000
 6           0.000000   -0.000000    0.000000    0.000000   -0.000000    0.971914    0.000000   -0.000000    0.000000
 7          -0.000000    0.000000    0.000000   -0.000000   -0.000000    0.000000    0.971813   -0.000000    0.000000
 8           0.000000   -0.000000    0.000000   -0.000000    0.000000   -0.000000   -0.000000    0.971813   -0.000000
 9           0.000000    0.000000   -0.000000   -0.000000   -0.000000    0.000000    0.000000   -0.000000    0.971813


 RESULTS FOR STATE 1.2
 =====================

 Coefficient of reference function:   C(0) = 0.97080217 (fixed)   0.97085920 (relaxed)   0.97080217 (rotated)

 Energy contributions of configuration classes

 CLASS          SQ.NORM        ECORR1        ECORR2
 +++++++++++++++++++++++++++++++++++++++++++++++++++
 Internals    0.00018309   -0.00027246   -0.67141808
 Singles      0.01594250   -0.05589473   -0.06421711
 Pairs        0.04493095    0.00000000   -0.03253144
 Total        1.06105654   -0.05616720   -0.76816663
 +++++++++++++++++++++++++++++++++++++++++++++++++++


 Reference energy                    -331.20730226
 Nuclear energy                         0.00000000
 Kinetic energy                       233.75802686
 One electron energy                 -586.32105049
 Two electron energy                  254.34558161
 Virial quotient                       -1.42016714
 Correlation energy                    -0.76816663
 !MRCI STATE 1.2 Energy              -331.975468885394

 Properties without orbital relaxation:

 !MRCI STATE 1.2 Dipole moment          0.00000000     0.00000000     0.00000000
 Dipole moment /Debye                   0.00000000     0.00000000     0.00000000

 Cluster corrected energies          -332.02237048 (Davidson, fixed reference)
 Cluster corrected energies          -332.02227472 (Davidson, relaxed reference)
 Cluster corrected energies          -332.02237048 (Davidson, rotated reference)

 Cluster corrected energies          -332.01983159 (Pople, fixed reference)
 Cluster corrected energies          -332.01973644 (Pople, relaxed reference)
 Cluster corrected energies          -332.01983159 (Pople, rotated reference)



 RESULTS FOR STATE 2.2
 =====================

 Maximum overlap with reference state  3

 Coefficient of reference function:   C(0) = 0.84647615 (fixed)   0.97194589 (relaxed)   0.97191377 (rotated)

 Energy contributions of configuration classes

 CLASS          SQ.NORM        ECORR1        ECORR2
 +++++++++++++++++++++++++++++++++++++++++++++++++++
 Internals    0.00031263   -0.00082283   -0.65443635
 Singles      0.01771185   -0.06019317   -0.06945272
 Pairs        0.04060632   -0.00000020   -0.02887544
 Total        1.05863080   -0.06101620   -0.75276451
 +++++++++++++++++++++++++++++++++++++++++++++++++++


 Reference energy                    -330.94504245
 Nuclear energy                         0.00000000
 Kinetic energy                       233.45659060
 One electron energy                 -580.67936719
 Two electron energy                  248.98156023
 Virial quotient                       -1.42081149
 Correlation energy                    -0.75276451
 !MRCI STATE 2.2 Energy              -331.697806962057

 Properties without orbital relaxation:

 !MRCI STATE 2.2 Dipole moment          0.00000000     0.00000000     0.00000000
 Dipole moment /Debye                   0.00000000     0.00000000     0.00000000

 Cluster corrected energies          -331.74194215 (Davidson, fixed reference)
 Cluster corrected energies          -331.74188949 (Davidson, relaxed reference)
 Cluster corrected energies          -331.74194215 (Davidson, rotated reference)

 Cluster corrected energies          -331.73946927 (Pople, fixed reference)
 Cluster corrected energies          -331.73941715 (Pople, relaxed reference)
 Cluster corrected energies          -331.73946927 (Pople, rotated reference)



 RESULTS FOR STATE 3.2
 =====================

 Maximum overlap with reference state  5

 Coefficient of reference function:   C(0) = 0.96438116 (fixed)   0.97194588 (relaxed)   0.97191377 (rotated)

 Energy contributions of configuration classes

 CLASS          SQ.NORM        ECORR1        ECORR2
 +++++++++++++++++++++++++++++++++++++++++++++++++++
 Internals    0.00031263   -0.00082283   -0.65443635
 Singles      0.01771181   -0.06019313   -0.06945270
 Pairs        0.04060637   -0.00000023   -0.02887546
 Total        1.05863081   -0.06101619   -0.75276451
 +++++++++++++++++++++++++++++++++++++++++++++++++++


 Reference energy                    -330.94504245
 Nuclear energy                         0.00000000
 Kinetic energy                       233.45660459
 One electron energy                 -580.67937527
 Two electron energy                  248.98156831
[...]
   22    4.2  1.5 -0.5   0.314%  10.929%   2.148%   7.419%   2.777%   6.094%  21.143%   0.278%   0.263%   0.388%
   23    5.2  1.5 -0.5   4.838%   0.128%   5.705%   0.462%  12.173%   0.097%   1.724%   0.641%   1.117%   3.901%
   24    6.2  1.5 -0.5  13.971%   0.491%  11.293%   1.054%   4.638%   1.452%   1.199%   3.955%   1.733%   1.021%
   25    7.2  1.5 -0.5   0.441%   0.201%   0.378%   1.028%   0.434%   0.052%   0.334%   2.004%   1.234%   0.562%
   26    8.2  1.5 -0.5   0.151%   0.180%   0.103%   0.117%   0.047%   2.978%   1.041%   0.035%   0.041%   1.395%
   27    9.2  1.5 -0.5   0.351%   0.113%   0.083%   2.158%   0.070%   0.358%   0.454%   1.788%   0.638%   0.223%
   28    1.2  1.5 -1.5   0.000%   0.000%   0.000%   0.000%   0.000%   0.000%   0.000%   0.000%   0.000%   0.000%
   29    2.2  1.5 -1.5   1.548%  14.359%   2.321%   6.546%   1.868%   7.702%   0.841%   1.109%   2.605%   9.344%
   30    3.2  1.5 -1.5   5.038%   0.014%   7.882%   0.822%   8.931%   0.804%   9.504%  12.412%   8.591%   2.782%
   31    4.2  1.5 -1.5   3.415%   4.766%   5.721%   3.149%   7.077%   2.490%   7.854%   7.156%   2.810%   9.590%
   32    5.2  1.5 -1.5   0.471%  13.988%   1.237%  11.033%   1.365%   4.802%   3.391%   1.453%   0.941%   1.796%
   33    6.2  1.5 -1.5   0.153%   4.809%   0.416%   5.674%   0.135%  12.212%   0.829%   1.636%   4.301%   1.355%
   34    7.2  1.5 -1.5   0.306%   0.010%   0.267%   1.035%   0.436%   1.573%   0.614%   0.253%   0.116%   1.369%
   35    8.2  1.5 -1.5   0.607%   0.020%   0.531%   0.298%   0.582%   0.548%   1.266%   0.519%   0.609%   1.677%
   36    9.2  1.5 -1.5   0.479%   0.015%   0.419%   1.389%   0.408%   0.319%   1.318%   0.101%   1.562%   0.298%
   37    1.2  0.5  0.5   0.000%   0.000%   0.000%   0.000%   0.000%   0.001%   0.000%   0.001%   0.001%   0.000%
   38    2.2  0.5  0.5   0.000%   0.000%   0.000%   0.001%   0.000%   0.001%   0.000%   0.000%   0.001%   0.000%
   39    3.2  0.5  0.5   0.000%   0.000%   0.000%   0.000%   0.001%   0.000%   0.000%   0.001%   0.000%   0.000%
   40    4.2  0.5  0.5   0.000%   0.000%   0.000%   0.001%   0.000%   0.000%   0.001%   0.001%   0.000%   0.001%
   41    5.2  0.5  0.5   0.000%   0.000%   0.001%   0.000%   0.000%   0.000%   0.000%   0.000%   0.000%   0.000%
   42    6.2  0.5  0.5   0.002%   0.000%   0.002%   0.000%   0.000%   0.000%   0.000%   0.000%   0.000%   0.000%
   43    7.2  0.5  0.5   0.002%   0.000%   0.000%   0.000%   0.002%   0.000%   0.000%   0.000%   0.000%   0.000%
   44    8.2  0.5  0.5   0.000%   0.002%   0.000%   0.001%   0.000%   0.001%   0.000%   0.000%   0.000%   0.000%
   45    1.2  0.5 -0.5   0.000%   0.000%   0.000%   0.000%   0.001%   0.000%   0.001%   0.000%   0.000%   0.001%
   46    2.2  0.5 -0.5   0.000%   0.000%   0.001%   0.000%   0.001%   0.000%   0.000%   0.000%   0.000%   0.001%
   47    3.2  0.5 -0.5   0.000%   0.000%   0.000%   0.000%   0.000%   0.001%   0.001%   0.000%   0.000%   0.000%
   48    4.2  0.5 -0.5   0.000%   0.000%   0.001%   0.000%   0.000%   0.000%   0.001%   0.001%   0.001%   0.000%
   49    5.2  0.5 -0.5   0.000%   0.000%   0.000%   0.001%   0.000%   0.000%   0.000%   0.000%   0.000%   0.000%
   50    6.2  0.5 -0.5   0.000%   0.002%   0.000%   0.002%   0.000%   0.000%   0.000%   0.000%   0.000%   0.000%
   51    7.2  0.5 -0.5   0.000%   0.002%   0.000%   0.000%   0.000%   0.002%   0.000%   0.000%   0.000%   0.000%
   52    8.2  0.5 -0.5   0.002%   0.000%   0.001%   0.000%   0.001%   0.000%   0.000%   0.000%   0.000%   0.000%

   Nr   State  S   Sz      31       32       33       34       35       36       37       38       39       40

    1    1.2  1.5  1.5   0.000%   0.000%   0.000%   0.000%   0.000%   0.001%   0.001%   0.003%   0.000%   0.000%
    2    2.2  1.5  1.5   0.441%   0.404%   0.002%   0.469%   0.048%   1.047%   0.109%   0.359%   0.380%   5.025%
    3    3.2  1.5  1.5   1.495%   1.579%   0.135%   0.015%   0.733%   0.376%   0.134%   0.319%   1.130%  19.258%
    4    4.2  1.5  1.5   1.570%   1.149%   0.162%   0.080%   0.991%   0.112%   0.341%   0.118%   0.664%  15.665%
    5    5.2  1.5  1.5   4.699%   5.346%   0.021%   0.407%   0.292%   0.548%   0.317%   0.402%   1.628%   0.047%
    6    6.2  1.5  1.5  13.875%  14.544%   0.008%   0.139%   0.146%   0.578%   0.221%   0.615%   5.550%   0.285%
    7    7.2  1.5  1.5   0.721%   1.458%  10.171%   0.498%   3.603%   6.460%   2.050%  26.996%   0.000%   0.000%
    8    8.2  1.5  1.5   0.234%   0.858%  20.198%   0.988%   6.538%  12.117%   4.142%   0.341%   0.000%   0.000%
    9    9.2  1.5  1.5   1.505%   0.112%  15.928%   0.779%   6.373%   7.196%   4.080%  12.289%   0.000%   0.000%
   10    1.2  1.5  0.5   0.000%   0.000%   0.000%   0.000%   0.002%   0.001%   0.000%   0.001%   0.000%   0.000%
   11    2.2  1.5  0.5   2.507%   0.832%   0.005%   0.099%   0.342%   0.126%   0.388%   0.706%   5.130%  18.561%
   12    3.2  1.5  0.5   0.416%   0.589%   0.017%   0.409%   0.024%   0.431%   0.282%   0.827%   7.620%   0.484%
   13    4.2  1.5  0.5   0.032%   1.930%   0.015%   0.317%   0.112%   0.347%   0.647%   0.456%   3.117%   8.681%
   14    5.2  1.5  0.5  15.559%  13.592%   0.139%   0.008%   0.587%   0.133%   0.607%   0.233%   0.270%   4.521%
   15    6.2  1.5  0.5   5.182%   4.530%   0.412%   0.016%   0.544%   0.291%   0.407%   0.317%   0.058%   1.925%
   16    7.2  1.5  0.5   0.539%   0.521%  17.812%   3.894%   5.225%   0.933%   4.517%  11.673%   0.000%   0.000%
   17    8.2  1.5  0.5   0.958%   1.092%   6.208%   4.981%   3.802%  32.495%   0.209%   1.813%   0.000%   0.000%
   18    9.2  1.5  0.5   0.822%   0.907%   7.600%   8.067%   6.693%   0.749%  11.086%  12.990%   0.000%   0.000%
   19    1.2  1.5 -0.5   0.000%   0.000%   0.000%   0.000%   0.001%   0.002%   0.001%   0.000%   0.000%   0.000%
   20    2.2  1.5 -0.5   0.832%   2.507%   0.099%   0.005%   0.126%   0.342%   0.706%   0.388%  18.561%   5.130%
   21    3.2  1.5 -0.5   0.589%   0.416%   0.409%   0.017%   0.431%   0.024%   0.827%   0.282%   0.484%   7.620%
   22    4.2  1.5 -0.5   1.930%   0.032%   0.317%   0.015%   0.347%   0.112%   0.456%   0.647%   8.681%   3.117%
   23    5.2  1.5 -0.5  13.592%  15.559%   0.008%   0.139%   0.133%   0.587%   0.233%   0.607%   4.521%   0.270%
   24    6.2  1.5 -0.5   4.530%   5.182%   0.016%   0.412%   0.291%   0.544%   0.317%   0.407%   1.925%   0.058%
   25    7.2  1.5 -0.5   0.521%   0.539%   3.894%  17.812%   0.933%   5.225%  11.673%   4.517%   0.000%   0.000%
   26    8.2  1.5 -0.5   1.092%   0.958%   4.981%   6.208%  32.495%   3.802%   1.813%   0.209%   0.000%   0.000%
   27    9.2  1.5 -0.5   0.907%   0.822%   8.067%   7.600%   0.749%   6.693%  12.990%  11.086%   0.000%   0.000%
   28    1.2  1.5 -1.5   0.000%   0.000%   0.000%   0.000%   0.001%   0.000%   0.003%   0.001%   0.000%   0.000%
   29    2.2  1.5 -1.5   0.404%   0.441%   0.469%   0.002%   1.047%   0.048%   0.359%   0.109%   5.025%   0.380%
   30    3.2  1.5 -1.5   1.579%   1.495%   0.015%   0.135%   0.376%   0.733%   0.319%   0.134%  19.258%   1.130%
   31    4.2  1.5 -1.5   1.149%   1.570%   0.080%   0.162%   0.112%   0.991%   0.118%   0.341%  15.665%   0.664%
   32    5.2  1.5 -1.5   5.346%   4.699%   0.407%   0.021%   0.548%   0.292%   0.402%   0.317%   0.047%   1.628%
   33    6.2  1.5 -1.5  14.544%  13.875%   0.139%   0.008%   0.578%   0.146%   0.615%   0.221%   0.285%   5.550%
   34    7.2  1.5 -1.5   1.458%   0.721%   0.498%  10.171%   6.460%   3.603%  26.996%   2.050%   0.000%   0.000%
   35    8.2  1.5 -1.5   0.858%   0.234%   0.988%  20.198%  12.117%   6.538%   0.341%   4.142%   0.000%   0.000%
   36    9.2  1.5 -1.5   0.112%   1.505%   0.779%  15.928%   7.196%   6.373%  12.289%   4.080%   0.000%   0.000%
   37    1.2  0.5  0.5   0.000%   0.000%   0.000%   0.000%   0.000%   0.000%   0.000%   0.000%   0.000%   0.000%
   38    2.2  0.5  0.5   0.001%   0.000%   0.000%   0.000%   0.000%   0.000%   0.000%   0.000%   0.000%   0.000%
   39    3.2  0.5  0.5   0.000%   0.001%   0.000%   0.000%   0.000%   0.000%   0.000%   0.000%   0.000%   0.000%
   40    4.2  0.5  0.5   0.000%   0.000%   0.000%   0.000%   0.000%   0.000%   0.000%   0.000%   0.000%   0.000%
   41    5.2  0.5  0.5   0.001%   0.001%   0.000%   0.000%   0.000%   0.000%   0.000%   0.000%   0.000%   0.000%
   42    6.2  0.5  0.5   0.000%   0.000%   0.000%   0.000%   0.000%   0.000%   0.000%   0.001%   0.000%   0.000%
   43    7.2  0.5  0.5   0.000%   0.000%   0.000%   0.000%   0.000%   0.000%   0.000%   0.000%   0.000%   0.000%
   44    8.2  0.5  0.5   0.000%   0.000%   0.000%   0.000%   0.000%   0.000%   0.000%   0.000%   0.000%   0.000%
   45    1.2  0.5 -0.5   0.000%   0.000%   0.000%   0.000%   0.000%   0.000%   0.000%   0.000%   0.000%   0.000%
   46    2.2  0.5 -0.5   0.000%   0.001%   0.000%   0.000%   0.000%   0.000%   0.000%   0.000%   0.000%   0.000%
   47    3.2  0.5 -0.5   0.001%   0.000%   0.000%   0.000%   0.000%   0.000%   0.000%   0.000%   0.000%   0.000%
   48    4.2  0.5 -0.5   0.000%   0.000%   0.000%   0.000%   0.000%   0.000%   0.000%   0.000%   0.000%   0.000%
   49    5.2  0.5 -0.5   0.001%   0.001%   0.000%   0.000%   0.000%   0.000%   0.000%   0.000%   0.000%   0.000%
   50    6.2  0.5 -0.5   0.000%   0.000%   0.000%   0.000%   0.000%   0.000%   0.001%   0.000%   0.000%   0.000%
   51    7.2  0.5 -0.5   0.000%   0.000%   0.000%   0.000%   0.000%   0.000%   0.000%   0.000%   0.000%   0.000%
   52    8.2  0.5 -0.5   0.000%   0.000%   0.000%   0.000%   0.000%   0.000%   0.000%   0.000%   0.000%   0.000%

   Nr   State  S   Sz      41       42       43       44       45       46       47       48       49       50

    1    1.2  1.5  1.5   0.000%   0.000%   0.000%   0.000%   0.000%   0.000%   0.000%   0.000%   0.000%   0.000%
    2    2.2  1.5  1.5   1.860%  10.330%   7.698%   8.183%   0.898%  12.912%   0.123%   0.050%   0.726%   0.599%
    3    3.2  1.5  1.5   0.240%   4.455%   4.728%   0.892%   3.757%   0.055%   2.130%   0.796%   0.303%   0.314%
    4    4.2  1.5  1.5   0.741%   2.889%   9.894%   3.424%   1.423%   3.498%   0.314%   0.364%   0.096%   2.212%
    5    5.2  1.5  1.5   5.097%   2.353%   6.635%   3.070%   0.489%  26.270%   0.196%   0.372%   0.248%   0.018%
    6    6.2  1.5  1.5  11.809%   0.371%   2.669%   6.942%   0.098%   6.690%   0.212%   0.125%   0.425%   0.101%
    7    7.2  1.5  1.5   0.000%   0.000%   0.000%   0.000%   0.000%   0.000%   1.842%   7.561%   3.505%   5.748%
    8    8.2  1.5  1.5   0.000%   0.000%   0.000%   0.000%   0.000%   0.000%  21.399%   3.583%   3.789%  10.334%
    9    9.2  1.5  1.5   0.000%   0.000%   0.000%   0.000%   0.000%   0.000%  19.748%   2.689%   5.819%   4.218%
   10    1.2  1.5  0.5   0.000%   0.000%   0.000%   0.000%   0.000%   0.000%   0.000%   0.000%   0.000%   0.000%
   11    2.2  1.5  0.5   5.043%   0.504%   1.046%   0.718%   0.021%   1.688%   1.152%   0.964%   1.190%   0.542%
   12    3.2  1.5  0.5  12.574%   1.139%   3.803%   9.068%   0.241%  10.552%   0.245%   0.103%   1.394%   0.022%
   13    4.2  1.5  0.5  16.049%   1.845%   2.554%   4.403%   0.128%   5.021%   1.472%   0.281%   0.442%   0.180%
   14    5.2  1.5  0.5   0.950%   9.819%   7.098%   3.374%   8.193%   0.191%   0.187%   0.013%   0.127%   0.565%
   15    6.2  1.5  0.5   3.544%   8.387%   5.528%   8.274%  17.486%   0.390%   0.436%   0.188%   0.036%   0.185%
   16    7.2  1.5  0.5   0.000%   0.000%   0.000%   0.000%   0.000%   0.000%   3.310%   1.941%   6.831%  24.081%
   17    8.2  1.5  0.5   0.000%   0.000%   0.000%   0.000%   0.000%   0.000%  11.708%   0.270%   6.637%   5.243%
   18    9.2  1.5  0.5   0.000%   0.000%   0.000%   0.000%   0.000%   0.000%   1.074%  15.147%   5.899%   8.168%
   19    1.2  1.5 -0.5   0.000%   0.000%   0.000%   0.000%   0.000%   0.000%   0.000%   0.000%   0.000%   0.000%
   20    2.2  1.5 -0.5   0.504%   5.043%   0.718%   1.046%   1.688%   0.021%   0.964%   1.152%   0.542%   1.190%
   21    3.2  1.5 -0.5   1.139%  12.574%   9.068%   3.803%  10.552%   0.241%   0.103%   0.245%   0.022%   1.394%
   22    4.2  1.5 -0.5   1.845%  16.049%   4.403%   2.554%   5.021%   0.128%   0.281%   1.472%   0.180%   0.442%
   23    5.2  1.5 -0.5   9.819%   0.950%   3.374%   7.098%   0.191%   8.193%   0.013%   0.187%   0.565%   0.127%
   24    6.2  1.5 -0.5   8.387%   3.544%   8.274%   5.528%   0.390%  17.486%   0.188%   0.436%   0.185%   0.036%
   25    7.2  1.5 -0.5   0.000%   0.000%   0.000%   0.000%   0.000%   0.000%   1.941%   3.310%  24.081%   6.831%
   26    8.2  1.5 -0.5   0.000%   0.000%   0.000%   0.000%   0.000%   0.000%   0.270%  11.708%   5.243%   6.637%
   27    9.2  1.5 -0.5   0.000%   0.000%   0.000%   0.000%   0.000%   0.000%  15.147%   1.074%   8.168%   5.899%
   28    1.2  1.5 -1.5   0.000%   0.000%   0.000%   0.000%   0.000%   0.000%   0.000%   0.000%   0.000%   0.000%
   29    2.2  1.5 -1.5  10.330%   1.860%   8.183%   7.698%  12.912%   0.898%   0.050%   0.123%   0.599%   0.726%
   30    3.2  1.5 -1.5   4.455%   0.240%   0.892%   4.728%   0.055%   3.757%   0.796%   2.130%   0.314%   0.303%
   31    4.2  1.5 -1.5   2.889%   0.741%   3.424%   9.894%   3.498%   1.423%   0.364%   0.314%   2.212%   0.096%
   32    5.2  1.5 -1.5   2.353%   5.097%   3.070%   6.635%  26.270%   0.489%   0.372%   0.196%   0.018%   0.248%
   33    6.2  1.5 -1.5   0.371%  11.809%   6.942%   2.669%   6.690%   0.098%   0.125%   0.212%   0.101%   0.425%
   34    7.2  1.5 -1.5   0.000%   0.000%   0.000%   0.000%   0.000%   0.000%   7.561%   1.842%   5.748%   3.505%
   35    8.2  1.5 -1.5   0.000%   0.000%   0.000%   0.000%   0.000%   0.000%   3.583%  21.399%  10.334%   3.789%
   36    9.2  1.5 -1.5   0.000%   0.000%   0.000%   0.000%   0.000%   0.000%   2.689%  19.748%   4.218%   5.819%
   37    1.2  0.5  0.5   0.000%   0.000%   0.000%   0.000%   0.000%   0.000%   0.000%   0.000%   0.000%   0.002%
   38    2.2  0.5  0.5   0.000%   0.000%   0.000%   0.000%   0.000%   0.000%   0.001%   0.000%   0.000%   0.000%
   39    3.2  0.5  0.5   0.000%   0.000%   0.000%   0.000%   0.000%   0.000%   0.000%   0.000%   0.001%   0.000%
   40    4.2  0.5  0.5   0.000%   0.000%   0.000%   0.000%   0.000%   0.000%   0.002%   0.001%   0.000%   0.001%
   41    5.2  0.5  0.5   0.000%   0.000%   0.000%   0.000%   0.000%   0.000%   0.000%   0.001%   0.000%   0.000%
   42    6.2  0.5  0.5   0.000%   0.000%   0.000%   0.000%   0.000%   0.000%   0.000%   0.000%   0.000%   0.000%
   43    7.2  0.5  0.5   0.000%   0.000%   0.000%   0.000%   0.000%   0.000%   0.000%   0.000%   0.000%   0.000%
   44    8.2  0.5  0.5   0.000%   0.000%   0.000%   0.000%   0.000%   0.000%   0.000%   0.000%   0.000%   0.000%
   45    1.2  0.5 -0.5   0.000%   0.000%   0.000%   0.000%   0.000%   0.000%   0.000%   0.000%   0.002%   0.000%
   46    2.2  0.5 -0.5   0.000%   0.000%   0.000%   0.000%   0.000%   0.000%   0.000%   0.001%   0.000%   0.000%
   47    3.2  0.5 -0.5   0.000%   0.000%   0.000%   0.000%   0.000%   0.000%   0.000%   0.000%   0.000%   0.001%
   48    4.2  0.5 -0.5   0.000%   0.000%   0.000%   0.000%   0.000%   0.000%   0.001%   0.002%   0.001%   0.000%
   49    5.2  0.5 -0.5   0.000%   0.000%   0.000%   0.000%   0.000%   0.000%   0.001%   0.000%   0.000%   0.000%
   50    6.2  0.5 -0.5   0.000%   0.000%   0.000%   0.000%   0.000%   0.000%   0.000%   0.000%   0.000%   0.000%
   51    7.2  0.5 -0.5   0.000%   0.000%   0.000%   0.000%   0.000%   0.000%   0.000%   0.000%   0.000%   0.000%
   52    8.2  0.5 -0.5   0.000%   0.000%   0.000%   0.000%   0.000%   0.000%   0.000%   0.000%   0.000%   0.000%

   Nr   State  S   Sz      51       52

    1    1.2  1.5  1.5   0.000%   0.000%
    2    2.2  1.5  1.5   0.030%   0.060%
    3    3.2  1.5  1.5   0.052%   0.321%
    4    4.2  1.5  1.5   0.102%   0.157%
    5    5.2  1.5  1.5   0.465%   0.600%
    6    6.2  1.5  1.5   1.546%   1.528%
    7    7.2  1.5  1.5   4.043%  19.361%
    8    8.2  1.5  1.5   6.254%   2.564%
    9    9.2  1.5  1.5   7.951%   5.001%
   10    1.2  1.5  0.5   0.000%   0.000%
   11    2.2  1.5  0.5   0.258%   0.140%
   12    3.2  1.5  0.5   0.133%   0.020%
   13    4.2  1.5  0.5   0.135%   0.079%
   14    5.2  1.5  0.5   1.315%   1.729%
   15    6.2  1.5  0.5   0.390%   0.663%
   16    7.2  1.5  0.5   6.426%   5.625%
   17    8.2  1.5  0.5   8.749%   9.740%
   18    9.2  1.5  0.5   6.804%   7.753%
   19    1.2  1.5 -0.5   0.000%   0.000%
   20    2.2  1.5 -0.5   0.140%   0.258%
   21    3.2  1.5 -0.5   0.020%   0.133%
   22    4.2  1.5 -0.5   0.079%   0.135%
   23    5.2  1.5 -0.5   1.729%   1.315%
   24    6.2  1.5 -0.5   0.663%   0.390%
   25    7.2  1.5 -0.5   5.625%   6.426%
   26    8.2  1.5 -0.5   9.740%   8.749%
   27    9.2  1.5 -0.5   7.753%   6.804%
   28    1.2  1.5 -1.5   0.000%   0.000%
   29    2.2  1.5 -1.5   0.060%   0.030%
   30    3.2  1.5 -1.5   0.321%   0.052%
   31    4.2  1.5 -1.5   0.157%   0.102%
   32    5.2  1.5 -1.5   0.600%   0.465%
   33    6.2  1.5 -1.5   1.528%   1.546%
   34    7.2  1.5 -1.5  19.361%   4.043%
   35    8.2  1.5 -1.5   2.564%   6.254%
   36    9.2  1.5 -1.5   5.001%   7.951%
   37    1.2  0.5  0.5   0.000%   0.000%
   38    2.2  0.5  0.5   0.001%   0.001%
   39    3.2  0.5  0.5   0.001%   0.001%
   40    4.2  0.5  0.5   0.000%   0.000%
   41    5.2  0.5  0.5   0.001%   0.001%
   42    6.2  0.5  0.5   0.000%   0.000%
   43    7.2  0.5  0.5   0.000%   0.000%
   44    8.2  0.5  0.5   0.000%   0.000%
   45    1.2  0.5 -0.5   0.000%   0.000%
   46    2.2  0.5 -0.5   0.001%   0.001%
   47    3.2  0.5 -0.5   0.001%   0.001%
   48    4.2  0.5 -0.5   0.000%   0.000%
   49    5.2  0.5 -0.5   0.001%   0.001%
   50    6.2  0.5 -0.5   0.000%   0.000%
   51    7.2  0.5 -0.5   0.000%   0.000%
   52    8.2  0.5 -0.5   0.000%   0.000%


 Property matrices transformed in SO basis (not sym. adapted)
 ============================================================

 No matrix element <i|DMX|i> larger than 5E-7
 No matrix element <i|DMX|1> larger than 5E-7

 No matrix element <i|DMY|i> larger than 5E-7
 No matrix element <i|DMY|1> larger than 5E-7

 No matrix element <i|DMZ|i> larger than 5E-7
 No matrix element <i|DMZ|1> larger than 5E-7


 **********************************************************************************************************************************
 DATASETS  * FILE   NREC   LENGTH (MB)   RECORD NAMES
              1      21       39.05       500      610      700      900      950      970     1000      129      960     1100   
                                          VAR    BASINP    GEOM    SYMINP    ZMAT    AOBASIS   BASIS     P2S    ABASIS      S 
                                         1400     1410     1420     1200     1210     1080     1700     1600     1650     1380   
                                           T        V       ECP      H0       H01     AOSYM    OPER      SMH    MOLCAS    JKOP   
                                         1700(1)
                                         OPER   

              2       7     1304.39       700     1000      520     2100     2140     5302     5102   
                                         GEOM     BASIS   MCVARS     RHF     MCSCF    MRCI     MRCI   

 PROGRAMS   *        TOTAL        CI        CI        CI     MULTI   RHF-SCF       INT
 CPU TIMES  *    104126.94  97911.90   3134.18   3075.95      3.62      0.11      0.90
 REAL TIME  *    105089.01 SEC
 DISK USED  *         1.31 GB (local),       15.80 GB (total)
 SF USED    *         6.91 GB
 GA USED    *         0.00 MB       (max)       0.00 MB       (current)
 **********************************************************************************************************************************

 CI/USERDEF energy=   -331.735048028369

              CI              CI           MULTI         RHF-SCF
   -331.88667662   -331.69340461   -331.11564531   -331.20902817
 **********************************************************************************************************************************
 Molpro calculation terminated with 1 warning(s)
