
 Working directory              : /wrk/irikura/molpro.lercUtQa7W/
 Global scratch directory       : /wrk/irikura/molpro.lercUtQa7W/
 Wavefunction directory         : /home/irikura/wfu/
 Main file repository           : /wrk/irikura/molpro.lercUtQa7W/

 id        : nistki

 Nodes            nprocs
 pn112695.nist.gov   12
 GA implementation: MPI file
 GA implementation (serial work in mppx): MPI file

 Using customized tuning parameters: mindgm=1; mindgv=20; mindgc=4; mindgr=1; noblas=0; minvec=7
 default implementation of scratch files=sf  


 Variables initialized (1040), CPU time= 0.02 sec
 ***,As SO-CI
                                                                                 ! Rydberg functions
 memory,1500,M;
 
 gprint,orbitals,civector,basis;
 
 symmetry,xyz
 geometry={As};
 
                                                                                 !basis=AWCVQZ-X2C
 basis={
 spdfgh,as,AWCVQZ-X2C;C;
 spdf,1,even,nprim=1,ratio=3.0;
 }
 
 NQ=9
 ND=8
 PAR=2                                                                           ! parity even (1) or odd (2)
 
 {rhf;wf,charge=0,sym=2,spin=3}
 
 {multi
     closed,8,6
     occ,9,12
     wf,charge=0,sym=PAR,spin=3;state,NQ;
     wf,charge=0,sym=PAR,spin=1;state,ND;
     expec2,lxx,lyy,lzz;
 }
 table, energy, ll
 title, Energies and &lt;L**2&gt; values
 
 core,2,3
 
 {ci;wf,sym=PAR,spin=3;state,NQ; save,5302.2}
                                                                                 !hlsdiag = energd4
 hlsdiag(1) = energd
 {ci;wf,sym=PAR,spin=1;state,ND; save,5102.2}
 hlsdiag(NQ+1) = energd4
 
 table,hlsdiag
 
 lsint
 {ci;hlsmat,ls,5302.2,5102.2;print,vls=0,hls=0}                                  !compute and diagonalize SO matrix
 Commands initialized (846), CPU time= 0.02 sec, 717 directives.
 Default parameters read. Elapsed time= 0.22 sec

 Checking input...
 Passed
1


                                         ***  PROGRAM SYSTEM MOLPRO  ***
                                       Copyright, TTI GmbH Stuttgart, 2015
                                    Version 2023.2 linked Fri Sep 22 03:27:09 2023


 **********************************************************************************************************************************
 LABEL *   As SO-CI                                                                                                                                                      
  (32 PROC) 64 bit mpp version                                                           DATE: 19-Aug-24          TIME: 10:55:09  
 **********************************************************************************************************************************

 SHA1:             3c61bfe44d37c8635c785372c339f5cbdd4e4b59
 **********************************************************************************************************************************

 Memory per process:      1500 MW
 Total memory per node:  18000 MW

 GA preallocation disabled
 GA check disabled

 Variable memory set to 1500.0 MW


 ZSYMEL=XYZ

 SETTING BASIS          =    USERDEF
 SETTING NQ             =         9.00000000                                  
 SETTING ND             =         8.00000000                                  
 SETTING PAR            =         2.00000000                                  


 Recomputing integrals since basis changed


 Using spherical harmonics

 Library entry AS     S AWCVQZ-X2C           selected for orbital group  1
 Even tempered As S diffuse               selected for group 1    nprim= 1    centre=  0.011    ratio= 3.000    dratio= 1.000
 Library entry AS     P AWCVQZ-X2C           selected for orbital group  1
 Even tempered As P diffuse               selected for group 1    nprim= 1    centre=  0.008    ratio= 3.000    dratio= 1.000
 Library entry AS     D AWCVQZ-X2C           selected for orbital group  1
 Even tempered As D diffuse               selected for group 1    nprim= 1    centre=  0.018    ratio= 3.000    dratio= 1.000
 Library entry AS     F AWCVQZ-X2C           selected for orbital group  1
 Even tempered As F diffuse               selected for group 1    nprim= 1    centre=  0.038    ratio= 3.000    dratio= 1.000
 Library entry AS     G AWCVQZ-X2C           selected for orbital group  1
 Library entry AS     H AWCVQZ-X2C           selected for orbital group  1


 PROGRAM * SEWARD (Integral evaluation for generally contracted gaussian basis sets)     Author: Roland Lindh, 1990

 Geometry written to block  1 of record 700

 Orientation using atomic masses  
 Molecule type: Atom
 User-specified symmetry elements: XYZ
 Symmetry elements: XYZ
 Rotational constants:       0.0000000      0.0000000      0.0000000 GHz  (calculated with average atomic masses)

 Point group  Ci  



 ATOMIC COORDINATES

 NR  ATOM    CHARGE       X              Y              Z

   1  AS     33.00    0.000000000    0.000000000    0.000000000


 BASIS DATA

   Nr Sym  Nuc  Type         Exponents   Contraction coefficients

    1.1 Ag    1  1s    13600341.000000     0.000112   -0.000036    0.000014   -0.000004    0.000000    0.000000
                                           0.000000
    2.1 Ag              2036507.300000     0.000300   -0.000097    0.000038   -0.000010    0.000000    0.000000
                                           0.000000
    3.1 Ag               463432.780000     0.000791   -0.000255    0.000100   -0.000028    0.000000    0.000000
                                           0.000000
    4.1 Ag               131259.940000     0.001958   -0.000632    0.000247   -0.000068    0.000000    0.000000
                                           0.000000
    5.1 Ag                42819.192000     0.004847   -0.001571    0.000615   -0.000170    0.000000    0.000000
                                           0.000000
    6.1 Ag                15457.019000     0.011929   -0.003893    0.001525   -0.000422    0.000000    0.000000
                                           0.000000
    7.1 Ag                 6028.458300     0.029013   -0.009607    0.003773   -0.001046    0.000000    0.000000
                                           0.000000
                           2500.559900     0.067837   -0.023113    0.009100   -0.002516    0.000000    0.000000
                                           0.000000
                           1090.614900     0.145413   -0.052664    0.020933   -0.005822    0.000000    0.000000
                                           0.000000
                            495.621540     0.262097   -0.107124    0.043176   -0.011957    0.000000    0.000000
                                           0.000000
                            232.816690     0.340331   -0.176538    0.073813   -0.020741    0.000000    0.000000
                                           0.000000
                            111.631180     0.242471   -0.171524    0.075253   -0.020899    0.000000    0.000000
                                           0.000000
                             52.269950     0.056007    0.089024   -0.045232    0.012247    0.000000    0.000000
                                           0.000000
                             26.149878    -0.001108    0.518981   -0.344338    0.104884    0.000000    0.000000
                                           0.000000
                             13.018757     0.001648    0.467593   -0.448187    0.137994    0.000000    0.000000
                                           0.000000
                              6.155432    -0.000785    0.092822    0.139327   -0.047672    0.000000    0.000000
                                           0.000000
                              2.959127     0.000337    0.000799    0.722876   -0.323778    0.000000    0.000000
                                           0.000000
                              1.373874    -0.000150    0.001642    0.408435   -0.325942    0.000000    0.000000
                                           0.000000
                              0.408850     0.000059   -0.000338    0.020091    0.373480    1.000000    0.000000
                                           0.000000
                              0.194511    -0.000037    0.000193   -0.005097    0.621337    0.000000    1.000000
                                           0.000000
                              0.083641     0.000010   -0.000057    0.001192    0.234080    0.000000    0.000000
                                           1.000000
    8.1 Ag    1  1s           2.280900     1.000000
    9.1 Ag    1  1s           4.877700     1.000000
   10.1 Ag    1  1s          10.431100     1.000000
   11.1 Ag    1  1s           0.032499     1.000000
   12.1 Ag    1  1s           0.010833     1.000000
   13.1 Ag    1  3d0        996.979600     0.000178
                            300.985180     0.001502
                            117.234730     0.008229
                             51.956904     0.031159
                             24.689440     0.087631
                             12.295171     0.184333
                              6.244652     0.279442
                              3.155460     0.315754
                              1.568049     0.257832
                              0.748647     0.126891
                              0.319125     0.023583
                              0.130000     0.000356
   14.1 Ag    1  3d2-       996.979600     0.000178
                            300.985180     0.001502
                            117.234730     0.008229
                             51.956904     0.031159
                             24.689440     0.087631
                             12.295171     0.184333
                              6.244652     0.279442
                              3.155460     0.315754
                              1.568049     0.257832
                              0.748647     0.126891
                              0.319125     0.023583
                              0.130000     0.000356
   15.1 Ag    1  3d1+       996.979600     0.000178
                            300.985180     0.001502
                            117.234730     0.008229
                             51.956904     0.031159
                             24.689440     0.087631
                             12.295171     0.184333
                              6.244652     0.279442
                              3.155460     0.315754
                              1.568049     0.257832
                              0.748647     0.126891
                              0.319125     0.023583
                              0.130000     0.000356
   16.1 Ag    1  3d2+       996.979600     0.000178
                            300.985180     0.001502
                            117.234730     0.008229
                             51.956904     0.031159
                             24.689440     0.087631
                             12.295171     0.184333
                              6.244652     0.279442
                              3.155460     0.315754
                              1.568049     0.257832
                              0.748647     0.126891
                              0.319125     0.023583
                              0.130000     0.000356
   17.1 Ag    1  3d1-       996.979600     0.000178
                            300.985180     0.001502
                            117.234730     0.008229
                             51.956904     0.031159
                             24.689440     0.087631
                             12.295171     0.184333
                              6.244652     0.279442
                              3.155460     0.315754
                              1.568049     0.257832
                              0.748647     0.126891
                              0.319125     0.023583
                              0.130000     0.000356
   18.1 Ag    1  3d0        996.979600     0.000000
                            300.985180     0.000000
                            117.234730     0.000000
                             51.956904     0.000000
                             24.689440     0.000000
                             12.295171     0.000000
                              6.244652     0.000000
                              3.155460     0.000000
                              1.568049     0.000000
                              0.748647     1.000000
                              0.319125     0.000000
                              0.130000     0.000000
   19.1 Ag    1  3d2-       996.979600     0.000000
                            300.985180     0.000000
                            117.234730     0.000000
                             51.956904     0.000000
                             24.689440     0.000000
                             12.295171     0.000000
                              6.244652     0.000000
                              3.155460     0.000000
                              1.568049     0.000000
                              0.748647     1.000000
                              0.319125     0.000000
                              0.130000     0.000000
   20.1 Ag    1  3d1+       996.979600     0.000000
                            300.985180     0.000000
                            117.234730     0.000000
                             51.956904     0.000000
                             24.689440     0.000000
                             12.295171     0.000000
                              6.244652     0.000000
                              3.155460     0.000000
                              1.568049     0.000000
                              0.748647     1.000000
                              0.319125     0.000000
                              0.130000     0.000000
   21.1 Ag    1  3d2+       996.979600     0.000000
                            300.985180     0.000000
                            117.234730     0.000000
                             51.956904     0.000000
                             24.689440     0.000000
                             12.295171     0.000000
                              6.244652     0.000000
                              3.155460     0.000000
                              1.568049     0.000000
                              0.748647     1.000000
                              0.319125     0.000000
                              0.130000     0.000000
   22.1 Ag    1  3d1-       996.979600     0.000000
                            300.985180     0.000000
                            117.234730     0.000000
                             51.956904     0.000000
                             24.689440     0.000000
                             12.295171     0.000000
                              6.244652     0.000000
                              3.155460     0.000000
                              1.568049     0.000000
                              0.748647     1.000000
                              0.319125     0.000000
                              0.130000     0.000000
   23.1 Ag    1  3d0        996.979600     0.000000
                            300.985180     0.000000
                            117.234730     0.000000
                             51.956904     0.000000
                             24.689440     0.000000
                             12.295171     0.000000
                              6.244652     0.000000
                              3.155460     0.000000
                              1.568049     0.000000
                              0.748647     0.000000
                              0.319125     1.000000
                              0.130000     0.000000
   24.1 Ag    1  3d2-       996.979600     0.000000
                            300.985180     0.000000
                            117.234730     0.000000
                             51.956904     0.000000
                             24.689440     0.000000
                             12.295171     0.000000
                              6.244652     0.000000
                              3.155460     0.000000
                              1.568049     0.000000
                              0.748647     0.000000
                              0.319125     1.000000
                              0.130000     0.000000
   25.1 Ag    1  3d1+       996.979600     0.000000
                            300.985180     0.000000
                            117.234730     0.000000
                             51.956904     0.000000
                             24.689440     0.000000
                             12.295171     0.000000
                              6.244652     0.000000
                              3.155460     0.000000
                              1.568049     0.000000
                              0.748647     0.000000
                              0.319125     1.000000
                              0.130000     0.000000
   26.1 Ag    1  3d2+       996.979600     0.000000
                            300.985180     0.000000
                            117.234730     0.000000
                             51.956904     0.000000
                             24.689440     0.000000
                             12.295171     0.000000
                              6.244652     0.000000
                              3.155460     0.000000
                              1.568049     0.000000
                              0.748647     0.000000
                              0.319125     1.000000
                              0.130000     0.000000
   27.1 Ag    1  3d1-       996.979600     0.000000
                            300.985180     0.000000
                            117.234730     0.000000
                             51.956904     0.000000
                             24.689440     0.000000
                             12.295171     0.000000
                              6.244652     0.000000
                              3.155460     0.000000
                              1.568049     0.000000
                              0.748647     0.000000
                              0.319125     1.000000
                              0.130000     0.000000
   28.1 Ag    1  3d0        996.979600     0.000000
                            300.985180     0.000000
                            117.234730     0.000000
                             51.956904     0.000000
                             24.689440     0.000000
                             12.295171     0.000000
                              6.244652     0.000000
                              3.155460     0.000000
                              1.568049     0.000000
                              0.748647     0.000000
                              0.319125     0.000000
                              0.130000     1.000000
   29.1 Ag    1  3d2-       996.979600     0.000000
                            300.985180     0.000000
                            117.234730     0.000000
                             51.956904     0.000000
                             24.689440     0.000000
                             12.295171     0.000000
                              6.244652     0.000000
                              3.155460     0.000000
                              1.568049     0.000000
                              0.748647     0.000000
                              0.319125     0.000000
                              0.130000     1.000000
   30.1 Ag    1  3d1+       996.979600     0.000000
                            300.985180     0.000000
                            117.234730     0.000000
                             51.956904     0.000000
                             24.689440     0.000000
                             12.295171     0.000000
                              6.244652     0.000000
                              3.155460     0.000000
                              1.568049     0.000000
                              0.748647     0.000000
                              0.319125     0.000000
                              0.130000     1.000000
   31.1 Ag    1  3d2+       996.979600     0.000000
                            300.985180     0.000000
                            117.234730     0.000000
                             51.956904     0.000000
                             24.689440     0.000000
                             12.295171     0.000000
                              6.244652     0.000000
                              3.155460     0.000000
                              1.568049     0.000000
                              0.748647     0.000000
                              0.319125     0.000000
                              0.130000     1.000000
   32.1 Ag    1  3d1-       996.979600     0.000000
                            300.985180     0.000000
                            117.234730     0.000000
                             51.956904     0.000000
                             24.689440     0.000000
                             12.295171     0.000000
                              6.244652     0.000000
                              3.155460     0.000000
                              1.568049     0.000000
                              0.748647     0.000000
                              0.319125     0.000000
                              0.130000     1.000000
   33.1 Ag    1  3d0          1.749600     1.000000
   34.1 Ag    1  3d2-         1.749600     1.000000
   35.1 Ag    1  3d1+         1.749600     1.000000
   36.1 Ag    1  3d2+         1.749600     1.000000
   37.1 Ag    1  3d1-         1.749600     1.000000
   38.1 Ag    1  3d0          3.741000     1.000000
   39.1 Ag    1  3d2-         3.741000     1.000000
   40.1 Ag    1  3d1+         3.741000     1.000000
   41.1 Ag    1  3d2+         3.741000     1.000000
   42.1 Ag    1  3d1-         3.741000     1.000000
   43.1 Ag    1  3d0          7.998700     1.000000
   44.1 Ag    1  3d2-         7.998700     1.000000
   45.1 Ag    1  3d1+         7.998700     1.000000
   46.1 Ag    1  3d2+         7.998700     1.000000
   47.1 Ag    1  3d1-         7.998700     1.000000
   48.1 Ag    1  3d0          0.053100     1.000000
   49.1 Ag    1  3d2-         0.053100     1.000000
   50.1 Ag    1  3d1+         0.053100     1.000000
   51.1 Ag    1  3d2+         0.053100     1.000000
   52.1 Ag    1  3d1-         0.053100     1.000000
   53.1 Ag    1  3d0          0.017700     1.000000
   54.1 Ag    1  3d2-         0.017700     1.000000
   55.1 Ag    1  3d1+         0.017700     1.000000
   56.1 Ag    1  3d2+         0.017700     1.000000
   57.1 Ag    1  3d1-         0.017700     1.000000
   58.1 Ag    1  5g0          0.546500     1.000000
   59.1 Ag    1  5g2-         0.546500     1.000000
   60.1 Ag    1  5g1+         0.546500     1.000000
   61.1 Ag    1  5g4+         0.546500     1.000000
   62.1 Ag    1  5g1-         0.546500     1.000000
   63.1 Ag    1  5g2+         0.546500     1.000000
   64.1 Ag    1  5g4-         0.546500     1.000000
   65.1 Ag    1  5g3+         0.546500     1.000000
   66.1 Ag    1  5g3-         0.546500     1.000000
   67.1 Ag    1  5g0          1.873900     1.000000
   68.1 Ag    1  5g2-         1.873900     1.000000
   69.1 Ag    1  5g1+         1.873900     1.000000
   70.1 Ag    1  5g4+         1.873900     1.000000
   71.1 Ag    1  5g1-         1.873900     1.000000
   72.1 Ag    1  5g2+         1.873900     1.000000
   73.1 Ag    1  5g4-         1.873900     1.000000
   74.1 Ag    1  5g3+         1.873900     1.000000
   75.1 Ag    1  5g3-         1.873900     1.000000
   76.1 Ag    1  5g0          7.665000     1.000000
   77.1 Ag    1  5g2-         7.665000     1.000000
   78.1 Ag    1  5g1+         7.665000     1.000000
   79.1 Ag    1  5g4+         7.665000     1.000000
   80.1 Ag    1  5g1-         7.665000     1.000000
   81.1 Ag    1  5g2+         7.665000     1.000000
   82.1 Ag    1  5g4-         7.665000     1.000000
   83.1 Ag    1  5g3+         7.665000     1.000000
   84.1 Ag    1  5g3-         7.665000     1.000000
   85.1 Ag    1  5g0          0.239000     1.000000
   86.1 Ag    1  5g2-         0.239000     1.000000
   87.1 Ag    1  5g1+         0.239000     1.000000
   88.1 Ag    1  5g4+         0.239000     1.000000
   89.1 Ag    1  5g1-         0.239000     1.000000
   90.1 Ag    1  5g2+         0.239000     1.000000
   91.1 Ag    1  5g4-         0.239000     1.000000
   92.1 Ag    1  5g3+         0.239000     1.000000
   93.1 Ag    1  5g3-         0.239000     1.000000
    1.2 Au    1  2px      25570.418000     0.000187
                           6052.923700     0.000824
                           1965.700200     0.003631
                            751.772290     0.013767
                            318.681400     0.045247
                            145.147490     0.121702
                             69.541162     0.250921
                             34.451376     0.359380
                             17.460610     0.290808
                              8.808609     0.096451
                              4.378646     0.008478
                              2.144405     0.001397
                              1.029350    -0.000037
                              0.404636     0.000089
                              0.165622    -0.000041
                              0.065610     0.000011
    2.2 Au    1  2py      25570.418000     0.000187
                           6052.923700     0.000824
                           1965.700200     0.003631
                            751.772290     0.013767
                            318.681400     0.045247
                            145.147490     0.121702
                             69.541162     0.250921
                             34.451376     0.359380
                             17.460610     0.290808
                              8.808609     0.096451
                              4.378646     0.008478
                              2.144405     0.001397
                              1.029350    -0.000037
                              0.404636     0.000089
                              0.165622    -0.000041
                              0.065610     0.000011
    3.2 Au    1  2pz      25570.418000     0.000187
                           6052.923700     0.000824
                           1965.700200     0.003631
                            751.772290     0.013767
                            318.681400     0.045247
                            145.147490     0.121702
                             69.541162     0.250921
                             34.451376     0.359380
                             17.460610     0.290808
                              8.808609     0.096451
                              4.378646     0.008478
                              2.144405     0.001397
                              1.029350    -0.000037
                              0.404636     0.000089
                              0.165622    -0.000041
                              0.065610     0.000011
    4.2 Au    1  2px      25570.418000    -0.000074
                           6052.923700    -0.000324
                           1965.700200    -0.001432
                            751.772290    -0.005481
                            318.681400    -0.018284
                            145.147490    -0.050845
                             69.541162    -0.109321
                             34.451376    -0.166531
                             17.460610    -0.111970
                              8.808609     0.158208
                              4.378646     0.439421
                              2.144405     0.414742
                              1.029350     0.139639
                              0.404636     0.008381
                              0.165622    -0.000173
                              0.065610     0.000071
    5.2 Au    1  2py      25570.418000    -0.000074
                           6052.923700    -0.000324
                           1965.700200    -0.001432
                            751.772290    -0.005481
                            318.681400    -0.018284
                            145.147490    -0.050845
                             69.541162    -0.109321
                             34.451376    -0.166531
                             17.460610    -0.111970
                              8.808609     0.158208
                              4.378646     0.439421
                              2.144405     0.414742
                              1.029350     0.139639
                              0.404636     0.008381
                              0.165622    -0.000173
                              0.065610     0.000071
    6.2 Au    1  2pz      25570.418000    -0.000074
                           6052.923700    -0.000324
                           1965.700200    -0.001432
                            751.772290    -0.005481
                            318.681400    -0.018284
                            145.147490    -0.050845
                             69.541162    -0.109321
                             34.451376    -0.166531
                             17.460610    -0.111970
                              8.808609     0.158208
                              4.378646     0.439421
                              2.144405     0.414742
                              1.029350     0.139639
                              0.404636     0.008381
                              0.165622    -0.000173
                              0.065610     0.000071
    7.2 Au    1  2px      25570.418000     0.000016
                           6052.923700     0.000072
                           1965.700200     0.000320
                            751.772290     0.001217
                            318.681400     0.004094
                            145.147490     0.011344
                             69.541162     0.024740
                             34.451376     0.037481
                             17.460610     0.025235
                              8.808609    -0.046284
                              4.378646    -0.117292
                              2.144405    -0.139526
                              1.029350     0.003596
                              0.404636     0.363902
                              0.165622     0.535617
                              0.065610     0.233154
    8.2 Au    1  2py      25570.418000     0.000016
                           6052.923700     0.000072
                           1965.700200     0.000320
                            751.772290     0.001217
                            318.681400     0.004094
                            145.147490     0.011344
                             69.541162     0.024740
                             34.451376     0.037481
                             17.460610     0.025235
                              8.808609    -0.046284
                              4.378646    -0.117292
                              2.144405    -0.139526
                              1.029350     0.003596
                              0.404636     0.363902
                              0.165622     0.535617
                              0.065610     0.233154
    9.2 Au    1  2pz      25570.418000     0.000016
                           6052.923700     0.000072
                           1965.700200     0.000320
                            751.772290     0.001217
                            318.681400     0.004094
                            145.147490     0.011344
                             69.541162     0.024740
                             34.451376     0.037481
                             17.460610     0.025235
                              8.808609    -0.046284
                              4.378646    -0.117292
                              2.144405    -0.139526
                              1.029350     0.003596
                              0.404636     0.363902
                              0.165622     0.535617
                              0.065610     0.233154
   10.2 Au    1  2px      25570.418000     0.000000
                           6052.923700     0.000000
                           1965.700200     0.000000
                            751.772290     0.000000
                            318.681400     0.000000
                            145.147490     0.000000
                             69.541162     0.000000
                             34.451376     0.000000
                             17.460610     0.000000
                              8.808609     0.000000
                              4.378646     0.000000
                              2.144405     0.000000
                              1.029350     0.000000
                              0.404636     1.000000
                              0.165622     0.000000
                              0.065610     0.000000
   11.2 Au    1  2py      25570.418000     0.000000
                           6052.923700     0.000000
                           1965.700200     0.000000
                            751.772290     0.000000
                            318.681400     0.000000
                            145.147490     0.000000
                             69.541162     0.000000
                             34.451376     0.000000
                             17.460610     0.000000
                              8.808609     0.000000
                              4.378646     0.000000
                              2.144405     0.000000
                              1.029350     0.000000
                              0.404636     1.000000
                              0.165622     0.000000
                              0.065610     0.000000
   12.2 Au    1  2pz      25570.418000     0.000000
                           6052.923700     0.000000
                           1965.700200     0.000000
                            751.772290     0.000000
                            318.681400     0.000000
                            145.147490     0.000000
                             69.541162     0.000000
                             34.451376     0.000000
                             17.460610     0.000000
                              8.808609     0.000000
                              4.378646     0.000000
                              2.144405     0.000000
                              1.029350     0.000000
                              0.404636     1.000000
                              0.165622     0.000000
                              0.065610     0.000000
   13.2 Au    1  2px      25570.418000     0.000000
                           6052.923700     0.000000
                           1965.700200     0.000000
                            751.772290     0.000000
                            318.681400     0.000000
                            145.147490     0.000000
                             69.541162     0.000000
                             34.451376     0.000000
                             17.460610     0.000000
                              8.808609     0.000000
                              4.378646     0.000000
                              2.144405     0.000000
                              1.029350     0.000000
                              0.404636     0.000000
                              0.165622     1.000000
                              0.065610     0.000000
   14.2 Au    1  2py      25570.418000     0.000000
                           6052.923700     0.000000
                           1965.700200     0.000000
                            751.772290     0.000000
                            318.681400     0.000000
                            145.147490     0.000000
                             69.541162     0.000000
                             34.451376     0.000000
                             17.460610     0.000000
                              8.808609     0.000000
                              4.378646     0.000000
                              2.144405     0.000000
                              1.029350     0.000000
                              0.404636     0.000000
                              0.165622     1.000000
                              0.065610     0.000000
   15.2 Au    1  2pz      25570.418000     0.000000
                           6052.923700     0.000000
                           1965.700200     0.000000
                            751.772290     0.000000
                            318.681400     0.000000
                            145.147490     0.000000
                             69.541162     0.000000
                             34.451376     0.000000
                             17.460610     0.000000
                              8.808609     0.000000
                              4.378646     0.000000
                              2.144405     0.000000
                              1.029350     0.000000
                              0.404636     0.000000
                              0.165622     1.000000
                              0.065610     0.000000
   16.2 Au    1  2px      25570.418000     0.000000
                           6052.923700     0.000000
                           1965.700200     0.000000
                            751.772290     0.000000
                            318.681400     0.000000
                            145.147490     0.000000
                             69.541162     0.000000
                             34.451376     0.000000
                             17.460610     0.000000
                              8.808609     0.000000
                              4.378646     0.000000
                              2.144405     0.000000
                              1.029350     0.000000
                              0.404636     0.000000
                              0.165622     0.000000
                              0.065610     1.000000
   17.2 Au    1  2py      25570.418000     0.000000
                           6052.923700     0.000000
                           1965.700200     0.000000
                            751.772290     0.000000
                            318.681400     0.000000
                            145.147490     0.000000
                             69.541162     0.000000
                             34.451376     0.000000
                             17.460610     0.000000
                              8.808609     0.000000
                              4.378646     0.000000
                              2.144405     0.000000
                              1.029350     0.000000
                              0.404636     0.000000
                              0.165622     0.000000
                              0.065610     1.000000
   18.2 Au    1  2pz      25570.418000     0.000000
                           6052.923700     0.000000
                           1965.700200     0.000000
                            751.772290     0.000000
                            318.681400     0.000000
                            145.147490     0.000000
                             69.541162     0.000000
                             34.451376     0.000000
                             17.460610     0.000000
                              8.808609     0.000000
                              4.378646     0.000000
                              2.144405     0.000000
                              1.029350     0.000000
                              0.404636     0.000000
                              0.165622     0.000000
                              0.065610     1.000000
   19.2 Au    1  2px          2.263300     1.000000
   20.2 Au    1  2py          2.263300     1.000000
   21.2 Au    1  2pz          2.263300     1.000000
   22.2 Au    1  2px          4.971800     1.000000
   23.2 Au    1  2py          4.971800     1.000000
   24.2 Au    1  2pz          4.971800     1.000000
   25.2 Au    1  2px         10.921800     1.000000
   26.2 Au    1  2py         10.921800     1.000000
   27.2 Au    1  2pz         10.921800     1.000000
   28.2 Au    1  2px          0.023698     1.000000
   29.2 Au    1  2py          0.023698     1.000000
   30.2 Au    1  2pz          0.023698     1.000000
   31.2 Au    1  2px          0.007899     1.000000
   32.2 Au    1  2py          0.007899     1.000000
   33.2 Au    1  2pz          0.007899     1.000000
   34.2 Au    1  4f1+         0.264000     1.000000
   35.2 Au    1  4f1-         0.264000     1.000000
   36.2 Au    1  4f0          0.264000     1.000000
   37.2 Au    1  4f3+         0.264000     1.000000
   38.2 Au    1  4f2-         0.264000     1.000000
   39.2 Au    1  4f3-         0.264000     1.000000
   40.2 Au    1  4f2+         0.264000     1.000000
   41.2 Au    1  4f1+         0.644000     1.000000
   42.2 Au    1  4f1-         0.644000     1.000000
   43.2 Au    1  4f0          0.644000     1.000000
   44.2 Au    1  4f3+         0.644000     1.000000
   45.2 Au    1  4f2-         0.644000     1.000000
   46.2 Au    1  4f3-         0.644000     1.000000
   47.2 Au    1  4f2+         0.644000     1.000000
   48.2 Au    1  4f1+         1.642000     1.000000
   49.2 Au    1  4f1-         1.642000     1.000000
   50.2 Au    1  4f0          1.642000     1.000000
   51.2 Au    1  4f3+         1.642000     1.000000
   52.2 Au    1  4f2-         1.642000     1.000000
   53.2 Au    1  4f3-         1.642000     1.000000
   54.2 Au    1  4f2+         1.642000     1.000000
   55.2 Au    1  4f1+         4.249800     1.000000
   56.2 Au    1  4f1-         4.249800     1.000000
   57.2 Au    1  4f0          4.249800     1.000000
   58.2 Au    1  4f3+         4.249800     1.000000
   59.2 Au    1  4f2-         4.249800     1.000000
   60.2 Au    1  4f3-         4.249800     1.000000
   61.2 Au    1  4f2+         4.249800     1.000000
   62.2 Au    1  4f1+        10.999300     1.000000
   63.2 Au    1  4f1-        10.999300     1.000000
   64.2 Au    1  4f0         10.999300     1.000000
   65.2 Au    1  4f3+        10.999300     1.000000
   66.2 Au    1  4f2-        10.999300     1.000000
   67.2 Au    1  4f3-        10.999300     1.000000
   68.2 Au    1  4f2+        10.999300     1.000000
   69.2 Au    1  4f1+         0.113200     1.000000
   70.2 Au    1  4f1-         0.113200     1.000000
   71.2 Au    1  4f0          0.113200     1.000000
   72.2 Au    1  4f3+         0.113200     1.000000
   73.2 Au    1  4f2-         0.113200     1.000000
   74.2 Au    1  4f3-         0.113200     1.000000
   75.2 Au    1  4f2+         0.113200     1.000000
   76.2 Au    1  4f1+         0.037733     1.000000
   77.2 Au    1  4f1-         0.037733     1.000000
   78.2 Au    1  4f0          0.037733     1.000000
   79.2 Au    1  4f3+         0.037733     1.000000
   80.2 Au    1  4f2-         0.037733     1.000000
   81.2 Au    1  4f3-         0.037733     1.000000
   82.2 Au    1  4f2+         0.037733     1.000000
   83.2 Au    1  6h1+         1.973800     1.000000
   84.2 Au    1  6h1-         1.973800     1.000000
   85.2 Au    1  6h2+         1.973800     1.000000
   86.2 Au    1  6h3+         1.973800     1.000000
   87.2 Au    1  6h4-         1.973800     1.000000
   88.2 Au    1  6h3-         1.973800     1.000000
   89.2 Au    1  6h4+         1.973800     1.000000
   90.2 Au    1  6h5-         1.973800     1.000000
   91.2 Au    1  6h0          1.973800     1.000000
   92.2 Au    1  6h5+         1.973800     1.000000
   93.2 Au    1  6h2-         1.973800     1.000000

 NUCLEAR CHARGE:                   33
 NUMBER OF PRIMITIVE AOS:         342
 NUMBER OF SYMMETRY AOS:          270
 NUMBER OF CONTRACTIONS:          186   (   93Ag  +   93Au  )
 NUMBER OF INNER CORE ORBITALS:     5   (    2Ag  +    3Au  )
 NUMBER OF OUTER CORE ORBITALS:     9   (    6Ag  +    3Au  )
 NUMBER OF VALENCE ORBITALS:        4   (    1Ag  +    3Au  )


 NUCLEAR REPULSION ENERGY    0.00000000

 EXTRA SYMMETRY OF AOS IN SYMMETRY 1:   1 1 1 1 1 1 1 1 1 1   1 1 2 3 4 5 6 2 3 4   5 6 2 3 4 5 6 2 3 4   5 6 2 3 4 5 6 2 3 4
                                        5 6 2 3 4 5 6 2 3 4   5 6 2 3 4 5 6 7 8 9  101112131415 7 8 910  1112131415 7 8 91011
                                       12131415 7 8 9101112  131415
 EXTRA SYMMETRY OF AOS IN SYMMETRY 2:   1 2 3 1 2 3 1 2 3 1   2 3 1 2 3 1 2 3 1 2   3 1 2 3 1 2 3 1 2 3   1 2 3 4 5 6 7 8 910
                                        4 5 6 7 8 910 4 5 6   7 8 910 4 5 6 7 8 9  10 4 5 6 7 8 910 4 5   6 7 8 910 4 5 6 7 8
                                        9101112131415161718  192021

 Eigenvalues of metric

         1 0.317E-05 0.159E-03 0.346E-02 0.706E-02 0.894E-02 0.894E-02 0.894E-02 0.894E-02
         2 0.101E-05 0.101E-05 0.101E-05 0.405E-03 0.405E-03 0.405E-03 0.246E-01 0.246E-01


 Contracted 2-electron integrals neglected if value below      1.0D-12
 AO integral compression algorithm  1   Integral accuracy      1.0D-12

     156.762 MB (compressed) written to integral file ( 14.4%)

     Node minimum: 8.651 MB, node maximum: 19.923 MB


 NUMBER OF SORTED TWO-ELECTRON INTEGRALS:    6367452.     BUFFER LENGTH:  32768
 NUMBER OF SEGMENTS:   1  SEGMENT LENGTH:    6367452      RECORD LENGTH: 524288

 Memory used in sort:       6.92 MW

 SORT1 READ   136462603. AND WROTE     1139583. INTEGRALS IN      4 RECORDS. CPU TIME:     0.72 SEC, REAL TIME:     0.74 SEC
 SORT2 READ    14110869. AND WROTE    76426935. INTEGRALS IN    600 RECORDS. CPU TIME:     0.14 SEC, REAL TIME:     0.17 SEC

 Node minimum:     6361628.  Node maximum:     6382755. integrals

 OPERATOR DM      FOR CENTER  0  COORDINATES:    0.000000    0.000000    0.000000


 **********************************************************************************************************************************
 DATASETS  * FILE   NREC   LENGTH (MB)   RECORD NAMES
              1      18       29.28       500      610      700      900      950      970     1000      129      960     1100   
                                          VAR    BASINP    GEOM    SYMINP    ZMAT    AOBASIS   BASIS     P2S    ABASIS      S 
                                         1400     1410     1200     1210     1080     1600     1650     1700   
                                           T        V       H0       H01     AOSYM     SMH    MOLCAS    OPER   

 PROGRAMS   *        TOTAL       INT
 CPU TIMES  *         3.99      3.62
 REAL TIME  *         4.97 SEC
 DISK USED  *        29.65 MB (local),      660.60 MB (total)
 GA USED    *         0.00 MB       (max)       0.00 MB       (current)
 **********************************************************************************************************************************


 Program * Restricted Hartree-Fock


   Atom=AS basis=MINAO             lmin=0  lmax=2

 Orbital guess generated from atomic densities.

 Initial alpha occupancy:   9   9
 Initial beta  occupancy:   9   6

 NELEC=   33   SYM=2   MS2= 3   THRE=1.0D-08   THRD=3.2D-06   THRG=3.2D-06  HFMA2=F  DIIS_START=2   DIIS_MAX=10   DIIS_INCORE=F

 Level shifts:    0.00 (CLOSED)    0.00 (OPEN)    0.30 (GAP_MIN)

 ITER           ETOT              DE          GRAD        DDIFF     DIIS  NEXP   TIME(IT)  TIME(TOT)  DIAG
   1    -2229.02101735   -2229.02101735     0.00D+00     0.11D+02     0     0       0.04      0.08    start
   2    -2229.03481316      -0.01379581     0.40D-02     0.71D-01     1     0       0.05      0.13    diag2
   3    -2229.03583008      -0.00101693     0.11D-02     0.97D-02     2     0       0.04      0.17    diag2
   4    -2229.03604175      -0.00021166     0.68D-03     0.58D-02     3     0       0.05      0.22    diag2
   5    -2229.03608903      -0.00004728     0.83D-04     0.21D-02     4     0       0.04      0.26    diag2
   6    -2229.03608998      -0.00000095     0.21D-04     0.13D-03     5     0       0.05      0.31    diag2
   7    -2229.03608999      -0.00000001     0.21D-05     0.20D-04     6     0       0.04      0.35    diag2
   8    -2229.03608999      -0.00000000     0.26D-06     0.86D-05     7     0       0.05      0.40    fixocc
   9    -2229.03608999       0.00000000     0.41D-07     0.37D-06     8     0       0.04      0.44    diag2
  10    -2229.03608999      -0.00000000     0.37D-08     0.99D-07     0     0       0.05      0.49    diag/orth

 Final alpha occupancy:   9   9
 Final beta  occupancy:   9   6

 !RHF STATE 1.2 Energy              -2229.036089987019
  RHF One-electron energy           -3109.130448794953
  RHF Two-electron energy             880.094358807934
  RHF Kinetic energy                 2222.657860609608
  RHF Nuclear energy                    0.000000000000
  RHF Virial quotient                  -1.002869640663

 !RHF STATE 1.2 Dipole moment           0.00000000     0.00000000     0.00000000
 Dipole moment /Debye                   0.00000000     0.00000000     0.00000000

 ELECTRON ORBITALS
 =================

  Orbital  Occupation    Energy    Cen Mu Typ  Coefficients
    1.1     2.00000  -430.38555     1  2  s   -5.25228    1  3  s  -11.95115    1  4  s  -13.14656    1  5  s    5.23266
                                    1  6  s    8.05551    1  7  s    3.11461    1  8  s    3.24222    1  9  s    3.48347
                                    1 10  s   -1.27342
    2.1     2.00000   -56.12794     1  1  s    0.37478    1  2  s    3.50986    1  3  s    6.00976    1  4  s    6.81537
                                    1  5  s   -2.68780    1  6  s   -4.19239    1  7  s   -1.60722    1  8  s   -1.48511
                                    1  9  s   -1.79502    1 10  s    0.77013
    3.1     2.00000    -8.00204     1  2  s   -1.11094    1  3  s   -1.80721    1  4  s   -3.37334    1  5  s    1.32095
                                    1  6  s    2.08164    1  7  s    0.79294    1  8  s    0.61277    1  9  s    0.79483
                                    1 10  s   -0.38941
    4.1     2.00000    -2.11558     1  1  d0   1.00012
    5.1     2.00000    -2.11558     1  1  d1+  0.96172    1  1  d1-  0.27449
    6.1     2.00000    -2.11558     1  1  d1+ -0.27442    1  1  d1-  0.96147
    7.1     2.00000    -2.11558     1  1  d2-  0.99952
    8.1     2.00000    -2.11558     1  1  d2+  0.99978
    9.1     2.00000    -0.68379     1  2  s    0.31707    1  3  s    0.84970    1  4  s    2.11268    1  5  s   -0.46381
                                    1  6  s   -0.67375
    1.2     2.00000   -50.16330     1  1  px   0.35841    1  3  px   6.60256    1  4  px  -2.41254    1  5  px  -3.53198
                                    1  6  px  -1.54144    1  7  px   0.97452    1  8  px   0.79114
    2.2     2.00000   -50.16330     1  1  py   0.35234    1  3  py   6.49075    1  3  pz  -1.21015    1  4  py  -2.37169
                                    1  4  pz   0.44218    1  5  py  -3.47217    1  5  pz   0.64736    1  6  py  -1.51534
                                    1  6  pz   0.28252    1  7  py   0.95802    1  8  py   0.77774
    3.2     2.00000   -50.16330     1  1  pz   0.35234    1  3  py   1.21007    1  3  pz   6.49077    1  4  py  -0.44215
                                    1  4  pz  -2.37170    1  5  py  -0.64732    1  5  pz  -3.47218    1  6  py  -0.28250
                                    1  6  pz  -1.51534    1  7  pz   0.95802    1  8  pz   0.77774
    4.2     2.00000    -5.88295     1  1  px   0.30275    1  2  px   0.99303    1  3  px  -3.02170    1  4  px   1.10495
                                    1  5  px   1.61584    1  6  px   0.70581    1  7  px  -0.44956    1  8  px  -0.37596
    5.2     2.00000    -5.88295     1  1  py   0.30275    1  2  py   0.99303    1  3  py  -3.02169    1  4  py   1.10495
                                    1  5  py   1.61584    1  6  py   0.70581    1  7  py  -0.44956    1  8  py  -0.37596
    6.2     2.00000    -5.88295     1  1  pz   0.30275    1  2  pz   0.99303    1  3  pz  -3.02169    1  4  pz   1.10495
                                    1  5  pz   1.61584    1  6  pz   0.70581    1  7  pz  -0.44956    1  8  pz  -0.37596
    7.2     1.00000    -0.36993     1  3  py   1.60019    1  5  py  -0.31582
    8.2     1.00000    -0.36993     1  3  px   1.60024    1  5  px  -0.31583
    9.2     1.00000    -0.36993     1  3  pz   1.60019    1  5  pz  -0.31582


 HOMO      9.2    -0.369930 =     -10.0663eV
 LUMO     10.1     0.016730 =       0.4553eV
 LUMO-HOMO         0.386660 =      10.5216eV

 Orbitals saved in record  2100.2


 **********************************************************************************************************************************
 DATASETS  * FILE   NREC   LENGTH (MB)   RECORD NAMES
              1      18       29.28       500      610      700      900      950      970     1000      129      960     1100   
                                          VAR    BASINP    GEOM    SYMINP    ZMAT    AOBASIS   BASIS     P2S    ABASIS      S 
                                         1400     1410     1200     1210     1080     1600     1650     1700   
                                           T        V       H0       H01     AOSYM     SMH    MOLCAS    OPER   

              2       4        0.94       700     1000      520     2100   
                                         GEOM     BASIS   MCVARS     RHF  

 PROGRAMS   *        TOTAL   RHF-SCF       INT
 CPU TIMES  *         4.49      0.48      3.62
 REAL TIME  *         6.58 SEC
 DISK USED  *        32.59 MB (local),      695.87 MB (total)
 GA USED    *         0.00 MB       (max)       0.00 MB       (current)
 **********************************************************************************************************************************

 PROGRAM * MULTI (Direct Multiconfiguration SCF)       Authors: P.J. Knowles, H.-J. Werner (1984)
                                                                D.A. Kreplin, P.J. Knowles, H.-J. Werner (2019)

 Number of closed-shell orbitals:  14 (    8    6)
 Number of active  orbitals:        7 (    1    6)
 Number of external orbitals:     165 (   84   81)

 State symmetry 1

 Number of active electrons:   5    Spin symmetry=Quartet   Space symmetry=2
 Number of states:             9
 Number of CSFs:             104   (110 determinants, 245 intermediate states)

 State symmetry 2

 Number of active electrons:   5    Spin symmetry=Doublet   Space symmetry=2
 Number of states:             8
 Number of CSFs:             280   (390 determinants, 735 intermediate states)

 Molecular orbitals read from record     2100.2  Type=RHF/CANONICAL  
 *** IN SYMMETRY 1 ORBITAL  4 SYMMETRY CONTAMINATION OF 0.523D-03 HAS BEEN REMOVED
 *** IN SYMMETRY 1 ORBITAL  5 SYMMETRY CONTAMINATION OF 0.222D+00 HAS BEEN REMOVED
 *** IN SYMMETRY 1 ORBITAL  6 SYMMETRY CONTAMINATION OF 0.236D+00 HAS BEEN REMOVED
 *** IN SYMMETRY 1 ORBITAL  7 SYMMETRY CONTAMINATION OF 0.514D-01 HAS BEEN REMOVED
 *** IN SYMMETRY 1 ORBITAL  8 SYMMETRY CONTAMINATION OF 0.268D-01 HAS BEEN REMOVED

 EXTRA SYMMETRY OF MOS IN SYMMETRY 1:   1 1 1 2 4 6 3 5 1 1   2 4 6 3 5 1 2 3 5 4   6 1 6 4 3 5 2 6 4 3   5 2 712 81514101311
                                        9 1 2 5 3 6 4 712 8  141511 91310 1 2 4 6   3 513101415 91112 8   7 1 2 6 4 5 311 9 7
                                       12 813101415 2 4 5 6   3 1 1
 *** IN SYMMETRY 2 ORBITAL  1 SYMMETRY CONTAMINATION OF 0.685D-02 HAS BEEN REMOVED
 *** IN SYMMETRY 2 ORBITAL  2 SYMMETRY CONTAMINATION OF 0.160D+00 HAS BEEN REMOVED
 *** IN SYMMETRY 2 ORBITAL  3 SYMMETRY CONTAMINATION OF 0.160D+00 HAS BEEN REMOVED
 *** IN SYMMETRY 2 ORBITAL  5 SYMMETRY CONTAMINATION OF 0.120D-02 HAS BEEN REMOVED
 *** IN SYMMETRY 2 ORBITAL  6 SYMMETRY CONTAMINATION OF 0.120D-02 HAS BEEN REMOVED
 *** IN SYMMETRY 2 ORBITAL  7 SYMMETRY CONTAMINATION OF 0.815D-02 HAS BEEN REMOVED
 *** IN SYMMETRY 2 ORBITAL  9 SYMMETRY CONTAMINATION OF 0.815D-02 HAS BEEN REMOVED
 *** IN SYMMETRY 2 ORBITAL 10 SYMMETRY CONTAMINATION OF 0.394D-03 HAS BEEN REMOVED
 *** IN SYMMETRY 2 ORBITAL 11 SYMMETRY CONTAMINATION OF 0.394D-03 HAS BEEN REMOVED
 EXTRA SYMMETRY OF MOS IN SYMMETRY 2:   1 2 3 1 2 3 2 1 3 3   2 1 3 2 1 7 9 5 4 6   810 1 2 3 810 4 5 6   7 9 1 2 3 810 6 4 5
                                        7 9 4 510 8 6 7 9 1   2 3 610 8 4 5 9 715  17201814161321111219   1 2 310 8 5 4 7 9 6
                                        4 5 610 8 9 7 1 2 3   1 2 3

 Wavefunction dump at record             2140.2

 Convergence thresholds  0.10E-04 (gradient)  0.10E-05 (energy)

 Weight factors for state symmetry  1:    0.05882   0.05882   0.05882   0.05882   0.05882   0.05882   0.05882   0.05882
                                          0.05882
 Weight factors for state symmetry  2:    0.05882   0.05882   0.05882   0.05882   0.05882   0.05882   0.05882   0.05882
 
 Number of orbital rotations:  1772  ( 44 closed/active, 1158 closed/virtual, 0 active/active, 570 active/virtual )
 Total number of variables:    5882
 
 Second-order MCSCF: L-BFGS accelerated
 
 ITER  MIC  NCI  NEG     ENERGY(VAR)    ENERGY(PROJ) ENERGY CHANGE       GRAD(0)  GRAD(ORB)   GRAD(CI)      STEP      TIME
   1    8   14    0  -2228.85912452   -2228.87435705   -0.01523253    0.07803316 0.00039516 0.00000000  0.13E+01      2.30
   2    8   14    0  -2228.87401631   -2228.87403277   -0.00001647    0.00486162 0.00000004 0.00000000  0.22E-01      4.53
   3   14   28    0  -2228.87403279   -2228.87403279   -0.00000000    0.00000821 0.00000000 0.00000000  0.40E-04      7.51

 CONVERGENCE REACHED!  Final gradient:    0.00000000 ( 0.45E-08)
                       Final energy:  -2228.87403279
 
 Results for state 1.2 Quartet
 =============================
 !MCSCF STATE 1.2 Quartet Energy             -2229.034316633049
 Nuclear energy                                  0.00000000
 Kinetic energy                               2223.20947674
 One electron energy                         -3110.34307618
 Two electron energy                           881.30875955
 Virial ratio                                    2.00262001
 
 !MCSCF STATE 1.2 Quartet Dipole moment          0.00000000     0.00000000     0.00000000
 Dipole moment /Debye                            0.00000000     0.00000000     0.00000000
 
 Results for state 2.2 Quartet
 =============================
 !MCSCF STATE 2.2 Quartet Energy             -2228.771037875675
 Nuclear energy                                  0.00000000
 Kinetic energy                               2221.86000566
 One electron energy                         -3100.51871779
 Two electron energy                           871.74767991
 Virial ratio                                    2.00311047
 
 !MCSCF STATE 2.2 Quartet Dipole moment          0.00000000     0.00000000     0.00000000
 Dipole moment /Debye                            0.00000000     0.00000000     0.00000000
 
 Results for state 3.2 Quartet
 =============================
 !MCSCF STATE 3.2 Quartet Energy             -2228.771037875673
 Nuclear energy                                  0.00000000
 Kinetic energy                               2221.86000566
 One electron energy                         -3100.51871779
 Two electron energy                           871.74767991
 Virial ratio                                    2.00311047
 
 !MCSCF STATE 3.2 Quartet Dipole moment          0.00000000     0.00000000     0.00000000
 Dipole moment /Debye                            0.00000000     0.00000000     0.00000000
 
 Results for state 4.2 Quartet
 =============================
 !MCSCF STATE 4.2 Quartet Energy             -2228.771037875315
 Nuclear energy                                  0.00000000
 Kinetic energy                               2221.86000566
 One electron energy                         -3100.51871785
 Two electron energy                           871.74767998
 Virial ratio                                    2.00311047
 
 !MCSCF STATE 4.2 Quartet Dipole moment          0.00000000     0.00000000     0.00000000
 Dipole moment /Debye                            0.00000000     0.00000000     0.00000000
 
 Results for state 5.2 Quartet
 =============================
 !MCSCF STATE 5.2 Quartet Energy             -2228.771037875224
 Nuclear energy                                  0.00000000
 Kinetic energy                               2221.86000567
 One electron energy                         -3100.51871788
 Two electron energy                           871.74768001
 Virial ratio                                    2.00311047
 
 !MCSCF STATE 5.2 Quartet Dipole moment          0.00000000     0.00000000     0.00000000
 Dipole moment /Debye                            0.00000000     0.00000000     0.00000000
 
 Results for state 6.2 Quartet
 =============================
 !MCSCF STATE 6.2 Quartet Energy             -2228.771037875127
 Nuclear energy                                  0.00000000
 Kinetic energy                               2221.86000567
 One electron energy                         -3100.51871790
 Two electron energy                           871.74768002
 Virial ratio                                    2.00311047
 
 !MCSCF STATE 6.2 Quartet Dipole moment          0.00000000     0.00000000     0.00000000
 Dipole moment /Debye                            0.00000000     0.00000000     0.00000000
 
 Results for state 7.2 Quartet
 =============================
 !MCSCF STATE 7.2 Quartet Energy             -2228.766278973190
 Nuclear energy                                  0.00000000
 Kinetic energy                               2221.85954097
 One electron energy                         -3100.51683972
 Two electron energy                           871.75056075
 Virial ratio                                    2.00310854
 
 !MCSCF STATE 7.2 Quartet Dipole moment          0.00000000     0.00000000     0.00000000
 Dipole moment /Debye                            0.00000000     0.00000000     0.00000000
 
 Results for state 8.2 Quartet
 =============================
 !MCSCF STATE 8.2 Quartet Energy             -2228.766278972703
 Nuclear energy                                  0.00000000
 Kinetic energy                               2221.85954097
 One electron energy                         -3100.51683979
 Two electron energy                           871.75056082
 Virial ratio                                    2.00310854
 
 !MCSCF STATE 8.2 Quartet Dipole moment          0.00000000     0.00000000     0.00000000
 Dipole moment /Debye                            0.00000000     0.00000000     0.00000000
 
 Results for state 9.2 Quartet
 =============================
 !MCSCF STATE 9.2 Quartet Energy             -2228.766278972564
 Nuclear energy                                  0.00000000
 Kinetic energy                               2221.85954098
 One electron energy                         -3100.51683982
 Two electron energy                           871.75056085
 Virial ratio                                    2.00310854
 
 !MCSCF STATE 9.2 Quartet Dipole moment          0.00000000     0.00000000     0.00000000
 Dipole moment /Debye                            0.00000000     0.00000000     0.00000000
 
 Results for state 1.2 Doublet
 =============================
 !MCSCF STATE 1.2 Doublet Energy             -2228.967783206079
 Nuclear energy                                  0.00000000
 Kinetic energy                               2223.07718213
 One electron energy                         -3109.76648829
 Two electron energy                           880.79870508
 Virial ratio                                    2.00264975
 
 !MCSCF STATE 1.2 Doublet Dipole moment          0.00000000     0.00000000     0.00000000
 Dipole moment /Debye                            0.00000000     0.00000000     0.00000000
 
 Results for state 2.2 Doublet
 =============================
 !MCSCF STATE 2.2 Doublet Energy             -2228.967783206064
 Nuclear energy                                  0.00000000
 Kinetic energy                               2223.07718213
 One electron energy                         -3109.76648829
 Two electron energy                           880.79870508
 Virial ratio                                    2.00264975
 
 !MCSCF STATE 2.2 Doublet Dipole moment          0.00000000     0.00000000     0.00000000
 Dipole moment /Debye                            0.00000000     0.00000000     0.00000000
 
 Results for state 3.2 Doublet
 =============================
 !MCSCF STATE 3.2 Doublet Energy             -2228.967783206001
 Nuclear energy                                  0.00000000
 Kinetic energy                               2223.07718213
 One electron energy                         -3109.76648829
 Two electron energy                           880.79870509
 Virial ratio                                    2.00264975
 
 !MCSCF STATE 3.2 Doublet Dipole moment          0.00000000     0.00000000     0.00000000
 Dipole moment /Debye                            0.00000000     0.00000000     0.00000000
 
 Results for state 4.2 Doublet
 =============================
 !MCSCF STATE 4.2 Doublet Energy             -2228.967783205924
 Nuclear energy                                  0.00000000
 Kinetic energy                               2223.07718213
 One electron energy                         -3109.76648830
 Two electron energy                           880.79870510
 Virial ratio                                    2.00264975
 
 !MCSCF STATE 4.2 Doublet Dipole moment          0.00000000     0.00000000     0.00000000
 Dipole moment /Debye                            0.00000000     0.00000000     0.00000000
 
 Results for state 5.2 Doublet
 =============================
 !MCSCF STATE 5.2 Doublet Energy             -2228.967783205917
 Nuclear energy                                  0.00000000
 Kinetic energy                               2223.07718213
 One electron energy                         -3109.76648830
 Two electron energy                           880.79870510
 Virial ratio                                    2.00264975
 
 !MCSCF STATE 5.2 Doublet Dipole moment          0.00000000     0.00000000     0.00000000
 Dipole moment /Debye                            0.00000000     0.00000000     0.00000000
 
 Results for state 6.2 Doublet
 =============================
 !MCSCF STATE 6.2 Doublet Energy             -2228.943766155506
 Nuclear energy                                  0.00000000
 Kinetic energy                               2222.98630370
 One electron energy                         -3109.37360071
 Two electron energy                           880.42983456
 Virial ratio                                    2.00267994
 
 !MCSCF STATE 6.2 Doublet Dipole moment          0.00000000     0.00000000     0.00000000
 Dipole moment /Debye                            0.00000000     0.00000000     0.00000000
 
 Results for state 7.2 Doublet
 =============================
 !MCSCF STATE 7.2 Doublet Energy             -2228.943766155413
 Nuclear energy                                  0.00000000
 Kinetic energy                               2222.98630370
 One electron energy                         -3109.37360072
 Two electron energy                           880.42983456
 Virial ratio                                    2.00267994
 
 !MCSCF STATE 7.2 Doublet Dipole moment          0.00000000     0.00000000     0.00000000
 Dipole moment /Debye                            0.00000000     0.00000000     0.00000000
 
 Results for state 8.2 Doublet
 =============================
 !MCSCF STATE 8.2 Doublet Energy             -2228.943766155280
 Nuclear energy                                  0.00000000
 Kinetic energy                               2222.98630370
 One electron energy                         -3109.37360073
 Two electron energy                           880.42983458
 Virial ratio                                    2.00267994
 
 !MCSCF STATE 8.2 Doublet Dipole moment          0.00000000     0.00000000     0.00000000
 Dipole moment /Debye                            0.00000000     0.00000000     0.00000000
 
 State-averaged charge density matrix saved on record 2140.2 (density set 1)
 
 No non-zero expectation values
 
 Expectation values for two-electron operators:
 
 ? Warning
 ? Transition properties are only calculated between states of the same symmetry
 ? The problem occurs in mu_properties_expec2

 !MCSCF expec      <1.2 Quartet|LXLX|1.2 Quartet>     0.000000000000
 !MCSCF expec      <2.2 Quartet|LXLX|2.2 Quartet>     0.682654751106
 !MCSCF expec      <3.2 Quartet|LXLX|3.2 Quartet>     0.999999999996
 !MCSCF expec      <4.2 Quartet|LXLX|4.2 Quartet>     1.000000000521
 !MCSCF expec      <5.2 Quartet|LXLX|5.2 Quartet>     3.999999999782
 !MCSCF expec      <6.2 Quartet|LXLX|6.2 Quartet>     3.317346651447
 !MCSCF expec      <7.2 Quartet|LXLX|7.2 Quartet>     0.999999999996
 !MCSCF expec      <8.2 Quartet|LXLX|8.2 Quartet>     0.999999999948
 !MCSCF expec      <9.2 Quartet|LXLX|9.2 Quartet>     0.000000000012
 !MCSCF expec      <1.2 Doublet|LXLX|1.2 Doublet>     3.676156745142
 !MCSCF expec      <2.2 Doublet|LXLX|2.2 Doublet>     3.999999950139
 !MCSCF expec      <3.2 Doublet|LXLX|3.2 Doublet>     1.000000000000
 !MCSCF expec      <4.2 Doublet|LXLX|4.2 Doublet>     0.999999642552
 !MCSCF expec      <5.2 Doublet|LXLX|5.2 Doublet>     0.323842428508
 !MCSCF expec      <6.2 Doublet|LXLX|6.2 Doublet>     0.000000002201
 !MCSCF expec      <7.2 Doublet|LXLX|7.2 Doublet>     1.000000000000
 !MCSCF expec      <8.2 Doublet|LXLX|8.2 Doublet>     0.999999998037
 
 !MCSCF expec      <1.2 Quartet|LYLY|1.2 Quartet>     0.000000000000
 !MCSCF expec      <2.2 Quartet|LYLY|2.2 Quartet>     3.961919001821
 !MCSCF expec      <3.2 Quartet|LYLY|3.2 Quartet>     3.999999999975
 !MCSCF expec      <4.2 Quartet|LYLY|4.2 Quartet>     0.999999999959
 !MCSCF expec      <5.2 Quartet|LYLY|5.2 Quartet>     0.999999999995
 !MCSCF expec      <6.2 Quartet|LYLY|6.2 Quartet>     0.038081359751
 !MCSCF expec      <7.2 Quartet|LYLY|7.2 Quartet>     0.000000000008
 !MCSCF expec      <8.2 Quartet|LYLY|8.2 Quartet>     0.999999999996
 !MCSCF expec      <9.2 Quartet|LYLY|9.2 Quartet>     0.999999999996
 !MCSCF expec      <1.2 Doublet|LYLY|1.2 Doublet>     0.217001703748
 !MCSCF expec      <2.2 Doublet|LYLY|2.2 Doublet>     0.999999862211
 !MCSCF expec      <3.2 Doublet|LYLY|3.2 Doublet>     1.000000000000
 !MCSCF expec      <4.2 Doublet|LYLY|4.2 Doublet>     3.999999891057
 !MCSCF expec      <5.2 Doublet|LYLY|5.2 Doublet>     3.782997455021
 !MCSCF expec      <6.2 Doublet|LYLY|6.2 Doublet>     0.999999997800
 !MCSCF expec      <7.2 Doublet|LYLY|7.2 Doublet>     1.000000000000
 !MCSCF expec      <8.2 Doublet|LYLY|8.2 Doublet>     0.000000001965
 
 !MCSCF expec      <1.2 Quartet|LZLZ|1.2 Quartet>     0.000000000000
 !MCSCF expec      <2.2 Quartet|LZLZ|2.2 Quartet>     1.355426247039
 !MCSCF expec      <3.2 Quartet|LZLZ|3.2 Quartet>     0.999999999996
 !MCSCF expec      <4.2 Quartet|LZLZ|4.2 Quartet>     3.999999999487
 !MCSCF expec      <5.2 Quartet|LZLZ|5.2 Quartet>     1.000000000190
 !MCSCF expec      <6.2 Quartet|LZLZ|6.2 Quartet>     2.644571988768
 !MCSCF expec      <7.2 Quartet|LZLZ|7.2 Quartet>     0.999999999996
 !MCSCF expec      <8.2 Quartet|LZLZ|8.2 Quartet>     0.000000000056
 !MCSCF expec      <9.2 Quartet|LZLZ|9.2 Quartet>     0.999999999992
 !MCSCF expec      <1.2 Doublet|LZLZ|1.2 Doublet>     2.106841551107
 !MCSCF expec      <2.2 Doublet|LZLZ|2.2 Doublet>     1.000000187646
 !MCSCF expec      <3.2 Doublet|LZLZ|3.2 Doublet>     3.999999999997
 !MCSCF expec      <4.2 Doublet|LZLZ|4.2 Doublet>     1.000000466387
 !MCSCF expec      <5.2 Doublet|LZLZ|5.2 Doublet>     1.893160116468
 !MCSCF expec      <6.2 Doublet|LZLZ|6.2 Doublet>     1.000000000000
 !MCSCF expec      <7.2 Doublet|LZLZ|7.2 Doublet>     0.000000000001
 !MCSCF expec      <8.2 Doublet|LZLZ|8.2 Doublet>     1.000000000000
 
 !MCSCF expec      <1.2 Quartet|L**2|1.2 Quartet>     0.000000000001
 !MCSCF expec      <2.2 Quartet|L**2|2.2 Quartet>     5.999999999966
 !MCSCF expec      <3.2 Quartet|L**2|3.2 Quartet>     5.999999999966
 !MCSCF expec      <4.2 Quartet|L**2|4.2 Quartet>     5.999999999966
 !MCSCF expec      <5.2 Quartet|L**2|5.2 Quartet>     5.999999999966
 !MCSCF expec      <6.2 Quartet|L**2|6.2 Quartet>     5.999999999966
 !MCSCF expec      <7.2 Quartet|L**2|7.2 Quartet>     2.000000000000
 !MCSCF expec      <8.2 Quartet|L**2|8.2 Quartet>     2.000000000000
 !MCSCF expec      <9.2 Quartet|L**2|9.2 Quartet>     2.000000000000
 !MCSCF expec      <1.2 Doublet|L**2|1.2 Doublet>     5.999999999997
 !MCSCF expec      <2.2 Doublet|L**2|2.2 Doublet>     5.999999999997
 !MCSCF expec      <3.2 Doublet|L**2|3.2 Doublet>     5.999999999997
 !MCSCF expec      <4.2 Doublet|L**2|4.2 Doublet>     5.999999999997
 !MCSCF expec      <5.2 Doublet|L**2|5.2 Doublet>     5.999999999997
 !MCSCF expec      <6.2 Doublet|L**2|6.2 Doublet>     2.000000000001
 !MCSCF expec      <7.2 Doublet|L**2|7.2 Doublet>     2.000000000001
 !MCSCF expec      <8.2 Doublet|L**2|8.2 Doublet>     2.000000000001
 
 EXTRA SYMMETRY OF MOS IN SYMMETRY 1:   1 1 1 2 6 4 5 3 1 1   5 3 4 2 6 1 5 3 2 6   4 1 4 5 3 2 6 4 6 2   5 3 712 8 911151410
                                       13 1 2 6 4 5 3 711 9  12 814151310 1 2 6 4   5 311 7 912 8151413  10 1 2 6 4 5 311 9 7
                                        81215141310 2 6 4 5   3 1 1
 EXTRA SYMMETRY OF MOS IN SYMMETRY 2:   2 1 3 3 2 1 1 2 3 3   2 1 2 3 1 7 9 4 5 6   810 2 3 110 8 4 6 5   7 9 2 1 3 6 4 5 810
                                        7 9 5 4 610 8 9 7 2   1 3 6 5 410 8 9 712  19111321141617152018   2 1 3 5 6 410 8 9 7
                                        5 4 610 8 9 7 2 1 3   2 1 3
 
  NATURAL ORBITALS (STATE AVERAGED)
  =================================

  Orbital  Occupation    Energy    Cen Mu Typ  Coefficients
    1.1     2.00000  -430.50462     1  2  s   -5.25228    1  3  s  -11.95113    1  4  s  -13.14655    1  5  s    5.23265
                                    1  6  s    8.05550    1  7  s    3.11461    1  8  s    3.24221    1  9  s    3.48346
                                    1 10  s   -1.27341
    2.1     2.00000   -56.24566     1  1  s    0.37480    1  2  s    3.50992    1  3  s    6.00984    1  4  s    6.81575
                                    1  5  s   -2.68784    1  6  s   -4.19245    1  7  s   -1.60725    1  8  s   -1.48512
                                    1  9  s   -1.79504    1 10  s    0.77011
    3.1     2.00000    -8.11902     1  2  s   -1.11201    1  3  s   -1.81016    1  4  s   -3.38100    1  5  s    1.32256
                                    1  6  s    2.08415    1  7  s    0.79406    1  8  s    0.61306    1  9  s    0.79561
                                    1 10  s   -0.38976
    4.1     2.00000    -2.23226     1  1  d0   1.00050
    5.1     2.00000    -2.23226     1  1  d1-  1.00050
    6.1     2.00000    -2.23226     1  1  d1+  1.00050
    7.1     2.00000    -2.23226     1  1  d2+  1.00050
    8.1     2.00000    -2.23226     1  1  d2-  1.00050
    9.1     1.97751    -0.76961     1  2  s    0.32060    1  3  s    0.87320    1  4  s    2.18262    1  5  s   -0.46615
                                    1  6  s   -0.68476    1  7  s   -0.30683
    1.2     2.00000   -50.28090     1  1  py   0.35847    1  3  py   6.60203    1  4  py  -2.41235    1  5  py  -3.53170
                                    1  6  py  -1.54132    1  7  py   0.97445    1  8  py   0.79108
    2.2     2.00000   -50.28090     1  1  px   0.35847    1  3  px   6.60203    1  4  px  -2.41235    1  5  px  -3.53170
                                    1  6  px  -1.54132    1  7  px   0.97445    1  8  px   0.79108
    3.2     2.00000   -50.28090     1  1  pz   0.35847    1  3  pz   6.60203    1  4  pz  -2.41235    1  5  pz  -3.53170
                                    1  6  pz  -1.54132    1  7  pz   0.97445    1  8  pz   0.79108
    4.2     2.00000    -5.99932     1  1  pz   0.30275    1  2  pz   0.99418    1  3  pz  -3.01595    1  4  pz   1.10288
                                    1  5  pz   1.61296    1  6  pz   0.70453    1  7  pz  -0.44933    1  8  pz  -0.37588
    5.2     2.00000    -5.99932     1  1  py   0.30275    1  2  py   0.99418    1  3  py  -3.01595    1  4  py   1.10288
                                    1  5  py   1.61296    1  6  py   0.70453    1  7  py  -0.44933    1  8  py  -0.37588
    6.2     2.00000    -5.99932     1  1  px   0.30275    1  2  px   0.99418    1  3  px  -3.01595    1  4  px   1.10288
                                    1  5  px   1.61296    1  6  px   0.70453    1  7  px  -0.44933    1  8  px  -0.37588
    7.2     0.84772    -0.21102     1  3  px   1.73685    1  4  px  -0.25311    1  5  px  -0.39389
    8.2     0.84772    -0.21102     1  3  py   1.73685    1  4  py  -0.25311    1  5  py  -0.39389
    9.2     0.84772    -0.21102     1  3  pz   1.73685    1  4  pz  -0.25311    1  5  pz  -0.39389
   10.2     0.15977     0.04439     1  3  pz  -0.64339    1 10  pz   0.76250    1 11  pz   0.32619
   11.2     0.15977     0.04439     1  3  py  -0.64339    1 10  py   0.76250    1 11  py   0.32619
   12.2     0.15977     0.04439     1  3  px  -0.64339    1 10  px   0.76250    1 11  px   0.32619
 
 Natural orbital dump (state averaged) at molpro section 2140.2 (Orbital set 2)
 
 Transform the CI vectors
 
 CI Coefficients of symmetry 2 (Quartet)
 =======================================

 State:              1               2               3               4               5               6               7
 2 aaa000       0.99913579     -0.00000000     -0.00000000     -0.00000000      0.00000000      0.00000000      0.00000000
 2 a0a0a0       0.00582376      0.07886165      0.00000823     -0.00000736      0.00000097      0.80438610     -0.00000000
 2 0aa00a      -0.00582376      0.73604967      0.00007568     -0.00000300      0.00000083      0.33389690     -0.00000000
 2 a0a00a       0.00000000     -0.00000005     -0.00000001      0.69995878     -0.00000646      0.00000641     -0.00000010
 2 a0aa00       0.00000000      0.00000043     -0.00000000     -0.00000646     -0.69995875      0.00000080      0.00000000
 2 aa000a      -0.00000000     -0.00007191      0.69995872      0.00000001     -0.00000000     -0.00000011      0.69984001
 2 0aaa00       0.00000000     -0.00007191      0.69995865      0.00000001     -0.00000000     -0.00000012     -0.69984008
 2 aa00a0      -0.00000000     -0.00000043      0.00000000      0.00000646      0.69995863     -0.00000080      0.00000000
 2 0aa0a0       0.00000000      0.00000005      0.00000001     -0.69995860      0.00000646     -0.00000641     -0.00000010
 2 aa0a00      -0.00582376     -0.65718798     -0.00006744     -0.00000436      0.00000014      0.47048932     -0.00000000
 0 a2a0a0       0.01930277     -0.00862582     -0.00000090      0.00000080     -0.00000011     -0.08798306      0.00000000
 0 2aa00a      -0.01930277     -0.08050848     -0.00000828      0.00000033     -0.00000009     -0.03652136      0.00000000
 0 2aa0a0       0.00000000     -0.00000001     -0.00000000      0.07656087     -0.00000071      0.00000070      0.00000001
 0 aa20a0      -0.00000000      0.00000005     -0.00000000     -0.00000071     -0.07656087      0.00000009     -0.00000000
 0 2aaa00       0.00000000      0.00000787     -0.07656087     -0.00000000      0.00000000      0.00000001      0.07759354
 0 aa200a      -0.00000000      0.00000787     -0.07656088     -0.00000000      0.00000000      0.00000001     -0.07759353
 0 a2aa00       0.00000000     -0.00000005      0.00000000      0.00000071      0.07656088     -0.00000009     -0.00000000
 0 a2a00a       0.00000000      0.00000001      0.00000000     -0.07656089      0.00000071     -0.00000070      0.00000001
 0 aa2a00      -0.01930277      0.07188265      0.00000738      0.00000048     -0.00000002     -0.05146172      0.00000000
 2 0a0a0a      -0.01201077     -0.00679599     -0.00000071      0.00000063     -0.00000008     -0.06931884      0.00000000
 2 a00aa0       0.01201077     -0.06342987     -0.00000652      0.00000026     -0.00000007     -0.02877391     -0.00000000
 2 a00a0a       0.00000000      0.00000000      0.00000000     -0.06031970      0.00000056     -0.00000055      0.00000001
 2 a000aa      -0.00000000      0.00000620     -0.06031969     -0.00000000      0.00000000      0.00000001     -0.06031217
 2 00aa0a       0.00000000     -0.00000004      0.00000000      0.00000056      0.06031969     -0.00000007     -0.00000000
[...]
   22    4.2  1.5 -0.5   4.804%   0.480%   2.365%   1.285%  10.941%   3.901%   6.625%  13.000%   6.870%   5.036%
   23    5.2  1.5 -0.5   1.737%  17.702%  12.952%   2.074%   2.877%   0.588%   1.893%   1.007%   0.525%   4.192%
   24    6.2  1.5 -0.5   0.015%   0.002%   3.354%   0.004%  14.858%   0.274%   2.251%   2.643%   0.595%   6.893%
   25    7.2  1.5 -0.5   0.165%   0.085%   0.141%   2.998%   0.044%   0.248%   0.928%   0.707%   0.688%   0.143%
   26    8.2  1.5 -0.5   0.197%   0.256%   0.371%   0.239%   0.039%   1.891%   0.310%   0.573%   0.294%   1.395%
   27    9.2  1.5 -0.5   0.136%   0.540%   0.307%   0.178%   0.138%   0.945%   0.776%   0.606%   0.931%   1.617%
   28    1.2  1.5 -1.5   0.000%   0.000%   0.000%   0.000%   0.000%   0.000%   0.000%   0.000%   0.000%   0.000%
   29    2.2  1.5 -1.5   4.295%   5.788%  13.388%   1.550%   3.310%   0.244%   2.984%   3.698%   1.461%  17.923%
   30    3.2  1.5 -1.5   0.518%   4.417%  12.588%   2.340%   3.050%   0.514%  12.357%  10.083%   0.731%   9.321%
   31    4.2  1.5 -1.5  13.704%   0.459%   1.990%  12.852%   0.319%   3.331%   4.545%   2.521%   5.373%   5.325%
   32    5.2  1.5 -1.5   0.004%   0.003%   0.011%   3.453%   0.170%  14.856%   1.738%   3.369%   0.692%   0.356%
   33    6.2  1.5 -1.5  17.971%   1.459%   1.900%  13.232%   0.432%   2.926%   1.298%   1.595%   4.063%   0.551%
   34    7.2  1.5 -1.5   0.055%   0.615%   1.014%   0.324%   0.243%   0.016%   1.803%   1.865%   0.090%   0.826%
   35    8.2  1.5 -1.5   0.038%   0.428%   0.713%   0.456%   0.086%   1.228%   0.692%   0.523%   0.236%   1.895%
   36    9.2  1.5 -1.5   0.020%   0.223%   0.356%   0.442%   0.211%   2.449%   0.373%   0.251%   0.107%   1.184%
   37    1.2  0.5  0.5   0.000%   0.000%   0.000%   0.001%   0.000%   0.000%   0.000%   0.000%   0.001%   0.000%
   38    2.2  0.5  0.5   0.000%   0.000%   0.001%   0.000%   0.000%   0.000%   0.000%   0.000%   0.000%   0.001%
   39    3.2  0.5  0.5   0.000%   0.000%   0.000%   0.000%   0.001%   0.000%   0.001%   0.000%   0.000%   0.000%
   40    4.2  0.5  0.5   0.000%   0.000%   0.000%   0.000%   0.000%   0.001%   0.001%   0.001%   0.001%   0.000%
   41    5.2  0.5  0.5   0.000%   0.000%   0.000%   0.000%   0.000%   0.001%   0.000%   0.000%   0.001%   0.000%
   42    6.2  0.5  0.5   0.000%   0.002%   0.000%   0.000%   0.002%   0.000%   0.000%   0.000%   0.000%   0.000%
   43    7.2  0.5  0.5   0.000%   0.002%   0.001%   0.000%   0.001%   0.000%   0.000%   0.000%   0.000%   0.000%
   44    8.2  0.5  0.5   0.002%   0.000%   0.000%   0.002%   0.000%   0.000%   0.000%   0.000%   0.000%   0.000%
   45    1.2  0.5 -0.5   0.000%   0.000%   0.001%   0.000%   0.000%   0.000%   0.000%   0.000%   0.000%   0.001%
   46    2.2  0.5 -0.5   0.000%   0.000%   0.000%   0.001%   0.000%   0.000%   0.000%   0.000%   0.001%   0.000%
   47    3.2  0.5 -0.5   0.000%   0.000%   0.000%   0.000%   0.000%   0.001%   0.000%   0.001%   0.000%   0.000%
   48    4.2  0.5 -0.5   0.000%   0.000%   0.000%   0.000%   0.001%   0.000%   0.001%   0.001%   0.000%   0.001%
   49    5.2  0.5 -0.5   0.000%   0.000%   0.000%   0.000%   0.001%   0.000%   0.000%   0.000%   0.000%   0.001%
   50    6.2  0.5 -0.5   0.002%   0.000%   0.000%   0.000%   0.000%   0.002%   0.000%   0.000%   0.000%   0.000%
   51    7.2  0.5 -0.5   0.002%   0.000%   0.000%   0.001%   0.000%   0.001%   0.000%   0.000%   0.000%   0.000%
   52    8.2  0.5 -0.5   0.000%   0.002%   0.002%   0.000%   0.000%   0.000%   0.000%   0.000%   0.000%   0.000%

   Nr   State  S   Sz      31       32       33       34       35       36       37       38       39       40

    1    1.2  1.5  1.5   0.000%   0.000%   0.000%   0.000%   0.001%   0.000%   0.003%   0.000%   0.000%   0.000%
    2    2.2  1.5  1.5   0.243%   0.153%   0.189%   0.097%   0.264%   0.913%   0.081%   0.405%   7.544%   6.363%
    3    3.2  1.5  1.5   3.719%   0.524%   0.010%   0.130%   0.077%   1.138%   0.058%   0.308%  11.516%  10.199%
    4    4.2  1.5  1.5   0.381%   0.168%   0.346%   0.056%   1.002%   0.237%   0.378%   0.079%   3.042%   3.034%
    5    5.2  1.5  1.5   1.165%  39.254%   0.000%   0.000%   0.310%   0.008%   0.838%   0.001%   4.593%   3.094%
    6    6.2  1.5  1.5   0.012%   0.279%   0.541%   0.011%   0.972%   0.041%   0.272%   0.028%   0.015%   0.009%
    7    7.2  1.5  1.5   0.540%   0.011%   0.486%  23.124%   2.144%  13.246%   0.270%   3.906%   0.000%   0.000%
    8    8.2  1.5  1.5   0.261%   1.109%   0.339%  16.095%   5.476%   9.288%  12.616%   3.059%   0.000%   0.000%
    9    9.2  1.5  1.5   0.159%   2.185%   0.176%   8.406%   7.660%   3.830%  29.430%   1.445%   0.002%   0.000%
   10    1.2  1.5  0.5   0.000%   0.000%   0.000%   0.000%   0.000%   0.003%   0.000%   0.001%   0.000%   0.000%
   11    2.2  1.5  0.5   3.538%   1.001%   0.260%   0.005%   0.287%   0.138%   0.917%   0.413%  15.037%   1.075%
   12    3.2  1.5  0.5   0.072%   1.240%   0.402%   0.009%   0.438%   0.003%   1.472%   0.002%   5.450%   3.527%
   13    4.2  1.5  0.5   3.660%   0.846%   0.147%   0.003%   0.155%   0.254%   0.527%   0.661%   3.105%  15.710%
   14    5.2  1.5  0.5   0.134%   0.029%   0.011%   0.540%   0.050%   0.965%   0.046%   0.261%   0.076%   0.070%
   15    6.2  1.5  0.5  32.616%   1.555%   0.000%   0.000%   0.006%   0.307%   0.001%   0.889%   3.760%   2.777%
   16    7.2  1.5  0.5   0.048%   1.762%   7.399%   1.416%  39.804%   0.141%   1.608%   0.516%   0.000%   0.000%
   17    8.2  1.5  0.5   0.207%   1.911%   7.625%   8.350%   2.626%   3.425%  23.717%   1.373%   0.001%   0.000%
   18    9.2  1.5  0.5   0.028%   1.186%   1.516%  22.309%   1.884%   2.903%  13.532%   0.886%   0.001%   0.000%
   19    1.2  1.5 -0.5   0.000%   0.000%   0.000%   0.000%   0.003%   0.000%   0.001%   0.000%   0.000%   0.000%
   20    2.2  1.5 -0.5   1.001%   3.538%   0.005%   0.260%   0.138%   0.287%   0.413%   0.917%   1.075%  15.037%
   21    3.2  1.5 -0.5   1.240%   0.072%   0.009%   0.402%   0.003%   0.438%   0.002%   1.472%   3.527%   5.450%
   22    4.2  1.5 -0.5   0.846%   3.660%   0.003%   0.147%   0.254%   0.155%   0.661%   0.527%  15.710%   3.105%
   23    5.2  1.5 -0.5   0.029%   0.134%   0.540%   0.011%   0.965%   0.050%   0.261%   0.046%   0.070%   0.076%
   24    6.2  1.5 -0.5   1.555%  32.616%   0.000%   0.000%   0.307%   0.006%   0.889%   0.001%   2.777%   3.760%
   25    7.2  1.5 -0.5   1.762%   0.048%   1.416%   7.399%   0.141%  39.804%   0.516%   1.608%   0.000%   0.000%
   26    8.2  1.5 -0.5   1.911%   0.207%   8.350%   7.625%   3.425%   2.626%   1.373%  23.717%   0.000%   0.001%
   27    9.2  1.5 -0.5   1.186%   0.028%  22.309%   1.516%   2.903%   1.884%   0.886%  13.532%   0.000%   0.001%
   28    1.2  1.5 -1.5   0.000%   0.000%   0.000%   0.000%   0.000%   0.001%   0.000%   0.003%   0.000%   0.000%
   29    2.2  1.5 -1.5   0.153%   0.243%   0.097%   0.189%   0.913%   0.264%   0.405%   0.081%   6.363%   7.544%
   30    3.2  1.5 -1.5   0.524%   3.719%   0.130%   0.010%   1.138%   0.077%   0.308%   0.058%  10.199%  11.516%
   31    4.2  1.5 -1.5   0.168%   0.381%   0.056%   0.346%   0.237%   1.002%   0.079%   0.378%   3.034%   3.042%
   32    5.2  1.5 -1.5  39.254%   1.165%   0.000%   0.000%   0.008%   0.310%   0.001%   0.838%   3.094%   4.593%
   33    6.2  1.5 -1.5   0.279%   0.012%   0.011%   0.541%   0.041%   0.972%   0.028%   0.272%   0.009%   0.015%
   34    7.2  1.5 -1.5   0.011%   0.540%  23.124%   0.486%  13.246%   2.144%   3.906%   0.270%   0.000%   0.000%
   35    8.2  1.5 -1.5   1.109%   0.261%  16.095%   0.339%   9.288%   5.476%   3.059%  12.616%   0.000%   0.000%
   36    9.2  1.5 -1.5   2.185%   0.159%   8.406%   0.176%   3.830%   7.660%   1.445%  29.430%   0.000%   0.002%
   37    1.2  0.5  0.5   0.000%   0.000%   0.000%   0.000%   0.000%   0.000%   0.000%   0.000%   0.000%   0.000%
   38    2.2  0.5  0.5   0.000%   0.002%   0.000%   0.000%   0.000%   0.000%   0.000%   0.000%   0.000%   0.000%
   39    3.2  0.5  0.5   0.000%   0.001%   0.000%   0.000%   0.000%   0.000%   0.000%   0.000%   0.000%   0.000%
   40    4.2  0.5  0.5   0.000%   0.000%   0.000%   0.000%   0.000%   0.000%   0.000%   0.000%   0.000%   0.000%
   41    5.2  0.5  0.5   0.001%   0.000%   0.000%   0.000%   0.000%   0.000%   0.000%   0.000%   0.000%   0.000%
   42    6.2  0.5  0.5   0.000%   0.000%   0.000%   0.000%   0.000%   0.000%   0.001%   0.000%   0.000%   0.000%
   43    7.2  0.5  0.5   0.000%   0.000%   0.000%   0.000%   0.001%   0.000%   0.000%   0.000%   0.000%   0.000%
   44    8.2  0.5  0.5   0.000%   0.000%   0.000%   0.000%   0.000%   0.001%   0.000%   0.000%   0.000%   0.000%
   45    1.2  0.5 -0.5   0.000%   0.000%   0.000%   0.000%   0.000%   0.000%   0.000%   0.000%   0.000%   0.000%
   46    2.2  0.5 -0.5   0.002%   0.000%   0.000%   0.000%   0.000%   0.000%   0.000%   0.000%   0.000%   0.000%
   47    3.2  0.5 -0.5   0.001%   0.000%   0.000%   0.000%   0.000%   0.000%   0.000%   0.000%   0.000%   0.000%
   48    4.2  0.5 -0.5   0.000%   0.000%   0.000%   0.000%   0.000%   0.000%   0.000%   0.000%   0.000%   0.000%
   49    5.2  0.5 -0.5   0.000%   0.001%   0.000%   0.000%   0.000%   0.000%   0.000%   0.000%   0.000%   0.000%
   50    6.2  0.5 -0.5   0.000%   0.000%   0.000%   0.000%   0.000%   0.000%   0.000%   0.001%   0.000%   0.000%
   51    7.2  0.5 -0.5   0.000%   0.000%   0.000%   0.000%   0.000%   0.001%   0.000%   0.000%   0.000%   0.000%
   52    8.2  0.5 -0.5   0.000%   0.000%   0.000%   0.000%   0.001%   0.000%   0.000%   0.000%   0.000%   0.000%

   Nr   State  S   Sz      41       42       43       44       45       46       47       48       49       50

    1    1.2  1.5  1.5   0.000%   0.000%   0.000%   0.000%   0.000%   0.000%   0.000%   0.000%   0.000%   0.000%
    2    2.2  1.5  1.5   8.481%   0.177%   1.367%   6.241%   9.541%   0.551%   0.082%   0.914%   0.120%   0.693%
    3    3.2  1.5  1.5   6.562%   0.127%   3.663%   0.604%   0.510%   1.118%   0.299%   1.358%   0.123%   0.721%
    4    4.2  1.5  1.5   0.802%   0.915%   3.585%  14.082%  13.329%   6.240%   0.137%   0.621%   0.342%   0.161%
    5    5.2  1.5  1.5   0.480%  18.310%   0.796%   1.618%   0.032%   0.008%   0.414%   0.444%   2.222%   0.134%
    6    6.2  1.5  1.5   0.476%   0.205%   0.280%   7.223%  35.917%   7.479%   0.138%   0.031%   0.114%   0.031%
    7    7.2  1.5  1.5   0.000%   0.000%   0.005%   0.000%   0.000%   0.000%   2.604%  37.419%   2.468%   6.885%
    8    8.2  1.5  1.5   0.000%   0.013%   0.004%   0.002%   0.000%   0.000%   3.877%  13.257%   4.727%  11.614%
    9    9.2  1.5  1.5   0.001%   0.031%   0.001%   0.004%   0.000%   0.000%   1.118%   4.845%  16.508%   5.956%
   10    1.2  1.5  0.5   0.000%   0.000%   0.000%   0.000%   0.000%   0.000%   0.000%   0.000%   0.000%   0.000%
   11    2.2  1.5  0.5   0.922%   5.879%   0.990%  11.908%   2.962%   0.558%   0.758%   0.421%   0.213%   0.072%
   12    3.2  1.5  0.5   0.170%  25.955%   0.990%   5.121%   3.328%   0.679%   0.279%   0.148%   0.337%   0.040%
   13    4.2  1.5  0.5   0.799%   5.810%   0.367%   6.198%   2.091%   0.613%   0.127%   1.795%   0.302%   0.619%
   14    5.2  1.5  0.5   3.068%   1.300%  30.697%   1.441%   2.618%  12.338%   0.051%   0.122%   0.030%   0.141%
   15    6.2  1.5  0.5  19.403%   0.079%   1.841%   0.953%   0.040%   0.046%   0.005%   1.261%   0.303%   2.687%
   16    7.2  1.5  0.5   0.001%   0.009%   0.001%   0.003%   0.001%   0.000%  10.689%   3.329%  26.701%   0.404%
   17    8.2  1.5  0.5   0.000%   0.014%   0.001%   0.009%   0.001%   0.000%   0.832%   5.527%   2.593%   3.745%
   18    9.2  1.5  0.5   0.000%   0.007%   0.001%   0.006%   0.000%   0.000%   0.824%   6.267%   2.160%   6.829%
   19    1.2  1.5 -0.5   0.000%   0.000%   0.000%   0.000%   0.000%   0.000%   0.000%   0.000%   0.000%   0.000%
   20    2.2  1.5 -0.5   5.879%   0.922%  11.908%   0.990%   0.558%   2.962%   0.421%   0.758%   0.072%   0.213%
   21    3.2  1.5 -0.5  25.955%   0.170%   5.121%   0.990%   0.679%   3.328%   0.148%   0.279%   0.040%   0.337%
   22    4.2  1.5 -0.5   5.810%   0.799%   6.198%   0.367%   0.613%   2.091%   1.795%   0.127%   0.619%   0.302%
   23    5.2  1.5 -0.5   1.300%   3.068%   1.441%  30.697%  12.338%   2.618%   0.122%   0.051%   0.141%   0.030%
   24    6.2  1.5 -0.5   0.079%  19.403%   0.953%   1.841%   0.046%   0.040%   1.261%   0.005%   2.687%   0.303%
   25    7.2  1.5 -0.5   0.009%   0.001%   0.003%   0.001%   0.000%   0.001%   3.329%  10.689%   0.404%  26.701%
   26    8.2  1.5 -0.5   0.014%   0.000%   0.009%   0.001%   0.000%   0.001%   5.527%   0.832%   3.745%   2.593%
   27    9.2  1.5 -0.5   0.007%   0.000%   0.006%   0.001%   0.000%   0.000%   6.267%   0.824%   6.829%   2.160%
   28    1.2  1.5 -1.5   0.000%   0.000%   0.000%   0.000%   0.000%   0.000%   0.000%   0.000%   0.000%   0.000%
   29    2.2  1.5 -1.5   0.177%   8.481%   6.241%   1.367%   0.551%   9.541%   0.914%   0.082%   0.693%   0.120%
   30    3.2  1.5 -1.5   0.127%   6.562%   0.604%   3.663%   1.118%   0.510%   1.358%   0.299%   0.721%   0.123%
   31    4.2  1.5 -1.5   0.915%   0.802%  14.082%   3.585%   6.240%  13.329%   0.621%   0.137%   0.161%   0.342%
   32    5.2  1.5 -1.5  18.310%   0.480%   1.618%   0.796%   0.008%   0.032%   0.444%   0.414%   0.134%   2.222%
   33    6.2  1.5 -1.5   0.205%   0.476%   7.223%   0.280%   7.479%  35.917%   0.031%   0.138%   0.031%   0.114%
   34    7.2  1.5 -1.5   0.000%   0.000%   0.000%   0.005%   0.000%   0.000%  37.419%   2.604%   6.885%   2.468%
   35    8.2  1.5 -1.5   0.013%   0.000%   0.002%   0.004%   0.000%   0.000%  13.257%   3.877%  11.614%   4.727%
   36    9.2  1.5 -1.5   0.031%   0.001%   0.004%   0.001%   0.000%   0.000%   4.845%   1.118%   5.956%  16.508%
   37    1.2  0.5  0.5   0.000%   0.000%   0.000%   0.000%   0.000%   0.000%   0.000%   0.000%   0.000%   0.000%
   38    2.2  0.5  0.5   0.000%   0.000%   0.000%   0.000%   0.000%   0.000%   0.000%   0.000%   0.000%   0.000%
   39    3.2  0.5  0.5   0.000%   0.000%   0.000%   0.000%   0.000%   0.000%   0.001%   0.000%   0.002%   0.000%
   40    4.2  0.5  0.5   0.000%   0.000%   0.000%   0.000%   0.000%   0.000%   0.000%   0.002%   0.000%   0.000%
   41    5.2  0.5  0.5   0.000%   0.000%   0.000%   0.000%   0.000%   0.000%   0.000%   0.001%   0.000%   0.001%
   42    6.2  0.5  0.5   0.000%   0.000%   0.000%   0.000%   0.000%   0.000%   0.000%   0.000%   0.000%   0.000%
   43    7.2  0.5  0.5   0.000%   0.000%   0.000%   0.000%   0.000%   0.000%   0.000%   0.000%   0.000%   0.000%
   44    8.2  0.5  0.5   0.000%   0.000%   0.000%   0.000%   0.000%   0.000%   0.000%   0.000%   0.000%   0.000%
   45    1.2  0.5 -0.5   0.000%   0.000%   0.000%   0.000%   0.000%   0.000%   0.000%   0.000%   0.000%   0.000%
   46    2.2  0.5 -0.5   0.000%   0.000%   0.000%   0.000%   0.000%   0.000%   0.000%   0.000%   0.000%   0.000%
   47    3.2  0.5 -0.5   0.000%   0.000%   0.000%   0.000%   0.000%   0.000%   0.000%   0.001%   0.000%   0.002%
   48    4.2  0.5 -0.5   0.000%   0.000%   0.000%   0.000%   0.000%   0.000%   0.002%   0.000%   0.000%   0.000%
   49    5.2  0.5 -0.5   0.000%   0.000%   0.000%   0.000%   0.000%   0.000%   0.001%   0.000%   0.001%   0.000%
   50    6.2  0.5 -0.5   0.000%   0.000%   0.000%   0.000%   0.000%   0.000%   0.000%   0.000%   0.000%   0.000%
   51    7.2  0.5 -0.5   0.000%   0.000%   0.000%   0.000%   0.000%   0.000%   0.000%   0.000%   0.000%   0.000%
   52    8.2  0.5 -0.5   0.000%   0.000%   0.000%   0.000%   0.000%   0.000%   0.000%   0.000%   0.000%   0.000%

   Nr   State  S   Sz      51       52

    1    1.2  1.5  1.5   0.000%   0.000%
    2    2.2  1.5  1.5   0.271%   0.668%
    3    3.2  1.5  1.5   0.660%   0.653%
    4    4.2  1.5  1.5   0.248%   0.393%
    5    5.2  1.5  1.5   1.038%   0.584%
    6    6.2  1.5  1.5   0.305%   0.189%
    7    7.2  1.5  1.5   0.032%   0.005%
    8    8.2  1.5  1.5   9.996%   1.963%
    9    9.2  1.5  1.5   2.065%  10.556%
   10    1.2  1.5  0.5   0.000%   0.000%
   11    2.2  1.5  0.5   0.262%   1.170%
   12    3.2  1.5  0.5   0.658%   0.367%
   13    4.2  1.5  0.5   0.638%   0.260%
   14    5.2  1.5  0.5   0.169%   0.295%
   15    6.2  1.5  0.5   0.405%   0.171%
   16    7.2  1.5  0.5   0.014%   0.003%
   17    8.2  1.5  0.5   3.230%  29.243%
   18    9.2  1.5  0.5  30.208%   3.277%
   19    1.2  1.5 -0.5   0.000%   0.000%
   20    2.2  1.5 -0.5   1.170%   0.262%
   21    3.2  1.5 -0.5   0.367%   0.658%
   22    4.2  1.5 -0.5   0.260%   0.638%
   23    5.2  1.5 -0.5   0.295%   0.169%
   24    6.2  1.5 -0.5   0.171%   0.405%
   25    7.2  1.5 -0.5   0.003%   0.014%
   26    8.2  1.5 -0.5  29.243%   3.230%
   27    9.2  1.5 -0.5   3.277%  30.208%
   28    1.2  1.5 -1.5   0.000%   0.000%
   29    2.2  1.5 -1.5   0.668%   0.271%
   30    3.2  1.5 -1.5   0.653%   0.660%
   31    4.2  1.5 -1.5   0.393%   0.248%
   32    5.2  1.5 -1.5   0.584%   1.038%
   33    6.2  1.5 -1.5   0.189%   0.305%
   34    7.2  1.5 -1.5   0.005%   0.032%
   35    8.2  1.5 -1.5   1.963%   9.996%
   36    9.2  1.5 -1.5  10.556%   2.065%
   37    1.2  0.5  0.5   0.001%   0.001%
   38    2.2  0.5  0.5   0.001%   0.001%
   39    3.2  0.5  0.5   0.000%   0.000%
   40    4.2  0.5  0.5   0.000%   0.000%
   41    5.2  0.5  0.5   0.000%   0.000%
   42    6.2  0.5  0.5   0.000%   0.000%
   43    7.2  0.5  0.5   0.000%   0.000%
   44    8.2  0.5  0.5   0.000%   0.000%
   45    1.2  0.5 -0.5   0.001%   0.001%
   46    2.2  0.5 -0.5   0.001%   0.001%
   47    3.2  0.5 -0.5   0.000%   0.000%
   48    4.2  0.5 -0.5   0.000%   0.000%
   49    5.2  0.5 -0.5   0.000%   0.000%
   50    6.2  0.5 -0.5   0.000%   0.000%
   51    7.2  0.5 -0.5   0.000%   0.000%
   52    8.2  0.5 -0.5   0.000%   0.000%


 Property matrices transformed in SO basis (not sym. adapted)
 ============================================================

 No matrix element <i|DMX|i> larger than 5E-7
 No matrix element <i|DMX|1> larger than 5E-7

 No matrix element <i|DMY|i> larger than 5E-7
 No matrix element <i|DMY|1> larger than 5E-7

 No matrix element <i|DMZ|i> larger than 5E-7
 No matrix element <i|DMZ|1> larger than 5E-7


 **********************************************************************************************************************************
 DATASETS  * FILE   NREC   LENGTH (MB)   RECORD NAMES
              1      24     1481.84       500      610      700      900      950      970     1000      129      960     1100   
                                          VAR    BASINP    GEOM    SYMINP    ZMAT    AOBASIS   BASIS     P2S    ABASIS      S 
                                         1400     1410     1200     1210     1080     1600     1650     1700     1380     1700(1)
                                         EKIN      POT      H0       H01     AOSYM     SMH    MOLCAS    OPER     JKOP     OPER   
                                         1101     1401     1411     1700(2)
                                          SR      EKINR    POTR     OPER   

              2       7     2930.85       700     1000      520     2100     2140     5302     5102   
                                         GEOM     BASIS   MCVARS     RHF     MCSCF    MRCI     MRCI   

 PROGRAMS   *        TOTAL        CI     LSINT        CI        CI     MULTI   RHF-SCF       INT
 CPU TIMES  *    125507.10 111196.24     25.84   6722.22   7550.65      7.60      0.48      3.62
 REAL TIME  *    126880.58 SEC
 DISK USED  *         2.94 GB (local),       40.16 GB (total)
 SF USED    *        15.26 GB
 GA USED    *         0.00 MB       (max)       0.00 MB       (current)
 **********************************************************************************************************************************

 CI/USERDEF energy=  -2229.692270449611

              CI              CI           MULTI         RHF-SCF
  -2229.84200082  -2229.64473237  -2228.94376616  -2229.03608999
 **********************************************************************************************************************************
 Molpro calculation terminated with 1 warning(s)
