
 Working directory              : /wrk/irikura/molpro.f4WDeHWTWa/
 Global scratch directory       : /wrk/irikura/molpro.f4WDeHWTWa/
 Wavefunction directory         : /home/irikura/wfu/
 Main file repository           : /wrk/irikura/molpro.f4WDeHWTWa/

 id        : nistki

 Nodes            nprocs
 pn112695.nist.gov   12
 GA implementation: MPI file
 GA implementation (serial work in mppx): MPI file

 Using customized tuning parameters: mindgm=1; mindgv=20; mindgc=4; mindgr=1; noblas=0; minvec=7
 default implementation of scratch files=sf  


 Variables initialized (1040), CPU time= 0.01 sec
 ***,As SO-CI
                                                                                 ! Rydberg functions
 memory,1500,M;
 
 gprint,orbitals,civector,basis;
 
 symmetry,xyz
 geometry={As};
 
                                                                                 !basis=AWCV5Z-X2C
 basis={
 spdfghi,as,AWCV5Z-X2C;C;
 spdf,1,even,nprim=1,ratio=3.0;
 }
 
 set,dkho=101
 
 NQ=9
 ND=8
 PAR=2                                                                           ! parity even (1) or odd (2)
 
 {rhf;wf,charge=0,sym=2,spin=3}
 
 {multi
     closed,8,6
     occ,9,12
     wf,charge=0,sym=PAR,spin=3;state,NQ;
     wf,charge=0,sym=PAR,spin=1;state,ND;
     expec2,lxx,lyy,lzz;
 }
 table, energy, ll
 title, Energies and &lt;L**2&gt; values
 
 core,2,3
 
 {ci;wf,sym=PAR,spin=3;state,NQ; save,5302.2}
                                                                                 !hlsdiag = energd4
 hlsdiag(1) = energd
 {ci;wf,sym=PAR,spin=1;state,ND; save,5102.2}
 hlsdiag(NQ+1) = energd4
 
 table,hlsdiag
 
 lsint
 {ci;hlsmat,ls,5302.2,5102.2;print,vls=0,hls=0}                                  !compute and diagonalize SO matrix
 Commands initialized (846), CPU time= 0.01 sec, 717 directives.
 Default parameters read. Elapsed time= 0.13 sec

 Checking input...
 Passed
1


                                         ***  PROGRAM SYSTEM MOLPRO  ***
                                       Copyright, TTI GmbH Stuttgart, 2015
                                    Version 2023.2 linked Fri Sep 22 03:27:09 2023


 **********************************************************************************************************************************
 LABEL *   As SO-CI                                                                                                                                                      
  (32 PROC) 64 bit mpp version                                                           DATE: 03-Sep-24          TIME: 10:08:50  
 **********************************************************************************************************************************

 SHA1:             3c61bfe44d37c8635c785372c339f5cbdd4e4b59
 **********************************************************************************************************************************

 Memory per process:      1500 MW
 Total memory per node:  18000 MW

 GA preallocation disabled
 GA check disabled

 Variable memory set to 1500.0 MW


 ZSYMEL=XYZ

 SETTING BASIS          =    USERDEF
 SETTING DKHO           =       101.00000000                                  
 SETTING NQ             =         9.00000000                                  
 SETTING ND             =         8.00000000                                  
 SETTING PAR            =         2.00000000                                  


 Recomputing integrals since basis changed


 Using spherical harmonics

 Library entry AS     S AWCV5Z-X2C           selected for orbital group  1
 Even tempered As S diffuse               selected for group 1    nprim= 1    centre=  0.010    ratio= 3.000    dratio= 1.000
 Library entry AS     P AWCV5Z-X2C           selected for orbital group  1
 Even tempered As P diffuse               selected for group 1    nprim= 1    centre=  0.007    ratio= 3.000    dratio= 1.000
 Library entry AS     D AWCV5Z-X2C           selected for orbital group  1
 Even tempered As D diffuse               selected for group 1    nprim= 1    centre=  0.016    ratio= 3.000    dratio= 1.000
 Library entry AS     F AWCV5Z-X2C           selected for orbital group  1
 Even tempered As F diffuse               selected for group 1    nprim= 1    centre=  0.030    ratio= 3.000    dratio= 1.000
 Library entry AS     G AWCV5Z-X2C           selected for orbital group  1
 Library entry AS     H AWCV5Z-X2C           selected for orbital group  1
 Library entry AS     I AWCV5Z-X2C           selected for orbital group  1


 PROGRAM * SEWARD (Integral evaluation for generally contracted gaussian basis sets)     Author: Roland Lindh, 1990

 Geometry written to block  1 of record 700

 Orientation using atomic masses  
 Molecule type: Atom
 User-specified symmetry elements: XYZ
 Symmetry elements: XYZ
 Rotational constants:       0.0000000      0.0000000      0.0000000 GHz  (calculated with average atomic masses)

 Point group  Ci  



 ATOMIC COORDINATES

 NR  ATOM    CHARGE       X              Y              Z

   1  AS     33.00    0.000000000    0.000000000    0.000000000


 BASIS DATA

   Nr Sym  Nuc  Type         Exponents   Contraction coefficients

    1.1 Ag    1  1s   137507530.000000     0.000022   -0.000007    0.000003   -0.000001    0.000000    0.000000
                                           0.000000    0.000000
    2.1 Ag             20515052.000000     0.000056   -0.000018    0.000007   -0.000002    0.000000    0.000000
                                           0.000000    0.000000
    3.1 Ag              4648716.400000     0.000138   -0.000044    0.000017   -0.000005    0.000000    0.000000
                                           0.000000    0.000000
    4.1 Ag              1311264.600000     0.000307   -0.000099    0.000039   -0.000011    0.000000    0.000000
                                           0.000000    0.000000
    5.1 Ag               426185.860000     0.000666   -0.000214    0.000084   -0.000023    0.000000    0.000000
                                           0.000000    0.000000
    6.1 Ag               153237.060000     0.001425   -0.000460    0.000180   -0.000050    0.000000    0.000000
                                           0.000000    0.000000
    7.1 Ag                59459.404000     0.003071   -0.000994    0.000389   -0.000108    0.000000    0.000000
                                           0.000000    0.000000
    8.1 Ag                24492.812000     0.006678   -0.002171    0.000850   -0.000235    0.000000    0.000000
                                           0.000000    0.000000
                          10590.253000     0.014612   -0.004792    0.001879   -0.000520    0.000000    0.000000
                                           0.000000    0.000000
                           4769.784100     0.031725   -0.010558    0.004146   -0.001148    0.000000    0.000000
                                           0.000000    0.000000
                           2226.369800     0.066733   -0.022894    0.009030   -0.002503    0.000000    0.000000
                                           0.000000    0.000000
                           1073.086200     0.130604   -0.047320    0.018785   -0.005209    0.000000    0.000000
                                           0.000000    0.000000
                            532.500590     0.222646   -0.089798    0.036192   -0.010065    0.000000    0.000000
                                           0.000000    0.000000
                            271.297550     0.297052   -0.144562    0.059732   -0.016654    0.000000    0.000000
                                           0.000000    0.000000
                            141.311950     0.259648   -0.169801    0.073549   -0.020682    0.000000    0.000000
                                           0.000000    0.000000
                             74.584433     0.112790   -0.058639    0.026204   -0.007362    0.000000    0.000000
                                           0.000000    0.000000
                             38.298338     0.014643    0.266850   -0.148168    0.043042    0.000000    0.000000
                                           0.000000    0.000000
                             20.469130     0.000202    0.521919   -0.396640    0.121655    0.000000    0.000000
                                           0.000000    0.000000
                             10.939578     0.000200    0.327383   -0.325185    0.102328    0.000000    0.000000
                                           0.000000    0.000000
                              5.590367    -0.000108    0.056874    0.225203   -0.083853    0.000000    0.000000
                                           0.000000    0.000000
                              2.882859     0.000001    0.001819    0.647947   -0.281481    0.000000    0.000000
                                           0.000000    0.000000
                              1.466086    -0.000019    0.001288    0.399976   -0.326753    0.000000    0.000000
                                           0.000000    0.000000
                              0.674839     0.000007   -0.000234    0.044642    0.010871    1.000000    0.000000
                                           0.000000    0.000000
                              0.346399    -0.000003    0.000117   -0.002084    0.509743    0.000000    1.000000
                                           0.000000    0.000000
                              0.159289     0.000002   -0.000055    0.000902    0.550950    0.000000    0.000000
                                           1.000000    0.000000
                              0.072109    -0.000000    0.000010   -0.000069    0.141095    0.000000    0.000000
                                           0.000000    1.000000
    9.1 Ag    1  1s           2.803900     1.000000
   10.1 Ag    1  1s           5.052600     1.000000
   11.1 Ag    1  1s           9.104900     1.000000
   12.1 Ag    1  1s          16.407200     1.000000
   13.1 Ag    1  1s           0.029418     1.000000
   14.1 Ag    1  1s           0.009806     1.000000
   15.1 Ag    1  3d0       1424.450600     0.000086
                            431.066760     0.000717
                            168.128640     0.004062
                             74.866724     0.016595
                             35.945855     0.050641
                             18.098474     0.120635
                              9.405780     0.215699
                              4.923904     0.287548
                              2.556493     0.294571
                              1.304233     0.216830
                              0.637118     0.094356
                              0.275795     0.015003
                              0.115300     0.000185
   16.1 Ag    1  3d2-      1424.450600     0.000086
                            431.066760     0.000717
                            168.128640     0.004062
                             74.866724     0.016595
                             35.945855     0.050641
                             18.098474     0.120635
                              9.405780     0.215699
                              4.923904     0.287548
                              2.556493     0.294571
                              1.304233     0.216830
                              0.637118     0.094356
                              0.275795     0.015003
                              0.115300     0.000185
   17.1 Ag    1  3d1+      1424.450600     0.000086
                            431.066760     0.000717
                            168.128640     0.004062
                             74.866724     0.016595
                             35.945855     0.050641
                             18.098474     0.120635
                              9.405780     0.215699
                              4.923904     0.287548
                              2.556493     0.294571
                              1.304233     0.216830
                              0.637118     0.094356
                              0.275795     0.015003
                              0.115300     0.000185
   18.1 Ag    1  3d2+      1424.450600     0.000086
                            431.066760     0.000717
                            168.128640     0.004062
                             74.866724     0.016595
                             35.945855     0.050641
                             18.098474     0.120635
                              9.405780     0.215699
                              4.923904     0.287548
                              2.556493     0.294571
                              1.304233     0.216830
                              0.637118     0.094356
                              0.275795     0.015003
                              0.115300     0.000185
   19.1 Ag    1  3d1-      1424.450600     0.000086
                            431.066760     0.000717
                            168.128640     0.004062
                             74.866724     0.016595
                             35.945855     0.050641
                             18.098474     0.120635
                              9.405780     0.215699
                              4.923904     0.287548
                              2.556493     0.294571
                              1.304233     0.216830
                              0.637118     0.094356
                              0.275795     0.015003
                              0.115300     0.000185
   20.1 Ag    1  3d0       1424.450600     0.000000
                            431.066760     0.000000
                            168.128640     0.000000
                             74.866724     0.000000
                             35.945855     0.000000
                             18.098474     0.000000
                              9.405780     0.000000
                              4.923904     0.000000
                              2.556493     0.000000
                              1.304233     1.000000
                              0.637118     0.000000
                              0.275795     0.000000
                              0.115300     0.000000
   21.1 Ag    1  3d2-      1424.450600     0.000000
                            431.066760     0.000000
                            168.128640     0.000000
                             74.866724     0.000000
                             35.945855     0.000000
                             18.098474     0.000000
                              9.405780     0.000000
                              4.923904     0.000000
                              2.556493     0.000000
                              1.304233     1.000000
                              0.637118     0.000000
                              0.275795     0.000000
                              0.115300     0.000000
   22.1 Ag    1  3d1+      1424.450600     0.000000
                            431.066760     0.000000
                            168.128640     0.000000
                             74.866724     0.000000
                             35.945855     0.000000
                             18.098474     0.000000
                              9.405780     0.000000
                              4.923904     0.000000
                              2.556493     0.000000
                              1.304233     1.000000
                              0.637118     0.000000
                              0.275795     0.000000
                              0.115300     0.000000
   23.1 Ag    1  3d2+      1424.450600     0.000000
                            431.066760     0.000000
                            168.128640     0.000000
                             74.866724     0.000000
                             35.945855     0.000000
                             18.098474     0.000000
                              9.405780     0.000000
                              4.923904     0.000000
                              2.556493     0.000000
                              1.304233     1.000000
                              0.637118     0.000000
                              0.275795     0.000000
                              0.115300     0.000000
   24.1 Ag    1  3d1-      1424.450600     0.000000
                            431.066760     0.000000
                            168.128640     0.000000
                             74.866724     0.000000
                             35.945855     0.000000
                             18.098474     0.000000
                              9.405780     0.000000
                              4.923904     0.000000
                              2.556493     0.000000
                              1.304233     1.000000
                              0.637118     0.000000
                              0.275795     0.000000
                              0.115300     0.000000
   25.1 Ag    1  3d0       1424.450600     0.000000
                            431.066760     0.000000
                            168.128640     0.000000
                             74.866724     0.000000
                             35.945855     0.000000
                             18.098474     0.000000
                              9.405780     0.000000
                              4.923904     0.000000
                              2.556493     0.000000
                              1.304233     0.000000
                              0.637118     1.000000
                              0.275795     0.000000
                              0.115300     0.000000
   26.1 Ag    1  3d2-      1424.450600     0.000000
                            431.066760     0.000000
                            168.128640     0.000000
                             74.866724     0.000000
                             35.945855     0.000000
                             18.098474     0.000000
                              9.405780     0.000000
                              4.923904     0.000000
                              2.556493     0.000000
                              1.304233     0.000000
                              0.637118     1.000000
                              0.275795     0.000000
                              0.115300     0.000000
   27.1 Ag    1  3d1+      1424.450600     0.000000
                            431.066760     0.000000
                            168.128640     0.000000
                             74.866724     0.000000
                             35.945855     0.000000
                             18.098474     0.000000
                              9.405780     0.000000
                              4.923904     0.000000
                              2.556493     0.000000
                              1.304233     0.000000
                              0.637118     1.000000
                              0.275795     0.000000
                              0.115300     0.000000
   28.1 Ag    1  3d2+      1424.450600     0.000000
                            431.066760     0.000000
                            168.128640     0.000000
                             74.866724     0.000000
                             35.945855     0.000000
                             18.098474     0.000000
                              9.405780     0.000000
                              4.923904     0.000000
                              2.556493     0.000000
                              1.304233     0.000000
                              0.637118     1.000000
                              0.275795     0.000000
                              0.115300     0.000000
   29.1 Ag    1  3d1-      1424.450600     0.000000
                            431.066760     0.000000
                            168.128640     0.000000
                             74.866724     0.000000
                             35.945855     0.000000
                             18.098474     0.000000
                              9.405780     0.000000
                              4.923904     0.000000
                              2.556493     0.000000
                              1.304233     0.000000
                              0.637118     1.000000
                              0.275795     0.000000
                              0.115300     0.000000
   30.1 Ag    1  3d0       1424.450600     0.000000
                            431.066760     0.000000
                            168.128640     0.000000
                             74.866724     0.000000
                             35.945855     0.000000
                             18.098474     0.000000
                              9.405780     0.000000
                              4.923904     0.000000
                              2.556493     0.000000
                              1.304233     0.000000
                              0.637118     0.000000
                              0.275795     1.000000
                              0.115300     0.000000
   31.1 Ag    1  3d2-      1424.450600     0.000000
                            431.066760     0.000000
                            168.128640     0.000000
                             74.866724     0.000000
                             35.945855     0.000000
                             18.098474     0.000000
                              9.405780     0.000000
                              4.923904     0.000000
                              2.556493     0.000000
                              1.304233     0.000000
                              0.637118     0.000000
                              0.275795     1.000000
                              0.115300     0.000000
   32.1 Ag    1  3d1+      1424.450600     0.000000
                            431.066760     0.000000
                            168.128640     0.000000
                             74.866724     0.000000
                             35.945855     0.000000
                             18.098474     0.000000
                              9.405780     0.000000
                              4.923904     0.000000
                              2.556493     0.000000
                              1.304233     0.000000
                              0.637118     0.000000
                              0.275795     1.000000
                              0.115300     0.000000
   33.1 Ag    1  3d2+      1424.450600     0.000000
                            431.066760     0.000000
                            168.128640     0.000000
                             74.866724     0.000000
                             35.945855     0.000000
                             18.098474     0.000000
                              9.405780     0.000000
                              4.923904     0.000000
                              2.556493     0.000000
                              1.304233     0.000000
                              0.637118     0.000000
                              0.275795     1.000000
                              0.115300     0.000000
   34.1 Ag    1  3d1-      1424.450600     0.000000
                            431.066760     0.000000
                            168.128640     0.000000
                             74.866724     0.000000
                             35.945855     0.000000
                             18.098474     0.000000
                              9.405780     0.000000
                              4.923904     0.000000
                              2.556493     0.000000
                              1.304233     0.000000
                              0.637118     0.000000
                              0.275795     1.000000
                              0.115300     0.000000
   35.1 Ag    1  3d0       1424.450600     0.000000
                            431.066760     0.000000
                            168.128640     0.000000
                             74.866724     0.000000
                             35.945855     0.000000
                             18.098474     0.000000
                              9.405780     0.000000
                              4.923904     0.000000
                              2.556493     0.000000
                              1.304233     0.000000
                              0.637118     0.000000
                              0.275795     0.000000
                              0.115300     1.000000
   36.1 Ag    1  3d2-      1424.450600     0.000000
                            431.066760     0.000000
                            168.128640     0.000000
                             74.866724     0.000000
                             35.945855     0.000000
                             18.098474     0.000000
                              9.405780     0.000000
                              4.923904     0.000000
                              2.556493     0.000000
                              1.304233     0.000000
                              0.637118     0.000000
                              0.275795     0.000000
                              0.115300     1.000000
   37.1 Ag    1  3d1+      1424.450600     0.000000
                            431.066760     0.000000
                            168.128640     0.000000
                             74.866724     0.000000
                             35.945855     0.000000
                             18.098474     0.000000
                              9.405780     0.000000
                              4.923904     0.000000
                              2.556493     0.000000
                              1.304233     0.000000
                              0.637118     0.000000
                              0.275795     0.000000
                              0.115300     1.000000
   38.1 Ag    1  3d2+      1424.450600     0.000000
                            431.066760     0.000000
                            168.128640     0.000000
                             74.866724     0.000000
                             35.945855     0.000000
                             18.098474     0.000000
                              9.405780     0.000000
                              4.923904     0.000000
                              2.556493     0.000000
                              1.304233     0.000000
                              0.637118     0.000000
                              0.275795     0.000000
                              0.115300     1.000000
   39.1 Ag    1  3d1-      1424.450600     0.000000
                            431.066760     0.000000
                            168.128640     0.000000
                             74.866724     0.000000
                             35.945855     0.000000
                             18.098474     0.000000
                              9.405780     0.000000
                              4.923904     0.000000
                              2.556493     0.000000
                              1.304233     0.000000
                              0.637118     0.000000
                              0.275795     0.000000
                              0.115300     1.000000
   40.1 Ag    1  3d0          2.619100     1.000000
   41.1 Ag    1  3d2-         2.619100     1.000000
   42.1 Ag    1  3d1+         2.619100     1.000000
   43.1 Ag    1  3d2+         2.619100     1.000000
   44.1 Ag    1  3d1-         2.619100     1.000000
   45.1 Ag    1  3d0          4.834200     1.000000
   46.1 Ag    1  3d2-         4.834200     1.000000
   47.1 Ag    1  3d1+         4.834200     1.000000
   48.1 Ag    1  3d2+         4.834200     1.000000
   49.1 Ag    1  3d1-         4.834200     1.000000
   50.1 Ag    1  3d0          8.922600     1.000000
   51.1 Ag    1  3d2-         8.922600     1.000000
   52.1 Ag    1  3d1+         8.922600     1.000000
   53.1 Ag    1  3d2+         8.922600     1.000000
   54.1 Ag    1  3d1-         8.922600     1.000000
   55.1 Ag    1  3d0         16.468900     1.000000
   56.1 Ag    1  3d2-        16.468900     1.000000
   57.1 Ag    1  3d1+        16.468900     1.000000
   58.1 Ag    1  3d2+        16.468900     1.000000
   59.1 Ag    1  3d1-        16.468900     1.000000
   60.1 Ag    1  3d0          0.048800     1.000000
   61.1 Ag    1  3d2-         0.048800     1.000000
   62.1 Ag    1  3d1+         0.048800     1.000000
   63.1 Ag    1  3d2+         0.048800     1.000000
   64.1 Ag    1  3d1-         0.048800     1.000000
   65.1 Ag    1  3d0          0.016267     1.000000
   66.1 Ag    1  3d2-         0.016267     1.000000
   67.1 Ag    1  3d1+         0.016267     1.000000
   68.1 Ag    1  3d2+         0.016267     1.000000
   69.1 Ag    1  3d1-         0.016267     1.000000
   70.1 Ag    1  5g0          0.370000     1.000000
   71.1 Ag    1  5g2-         0.370000     1.000000
   72.1 Ag    1  5g1+         0.370000     1.000000
   73.1 Ag    1  5g4+         0.370000     1.000000
   74.1 Ag    1  5g1-         0.370000     1.000000
   75.1 Ag    1  5g2+         0.370000     1.000000
   76.1 Ag    1  5g4-         0.370000     1.000000
   77.1 Ag    1  5g3+         0.370000     1.000000
   78.1 Ag    1  5g3-         0.370000     1.000000
   79.1 Ag    1  5g0          0.809200     1.000000
   80.1 Ag    1  5g2-         0.809200     1.000000
   81.1 Ag    1  5g1+         0.809200     1.000000
   82.1 Ag    1  5g4+         0.809200     1.000000
   83.1 Ag    1  5g1-         0.809200     1.000000
   84.1 Ag    1  5g2+         0.809200     1.000000
   85.1 Ag    1  5g4-         0.809200     1.000000
   86.1 Ag    1  5g3+         0.809200     1.000000
   87.1 Ag    1  5g3-         0.809200     1.000000
   88.1 Ag    1  5g0          1.958600     1.000000
   89.1 Ag    1  5g2-         1.958600     1.000000
   90.1 Ag    1  5g1+         1.958600     1.000000
   91.1 Ag    1  5g4+         1.958600     1.000000
   92.1 Ag    1  5g1-         1.958600     1.000000
   93.1 Ag    1  5g2+         1.958600     1.000000
   94.1 Ag    1  5g4-         1.958600     1.000000
   95.1 Ag    1  5g3+         1.958600     1.000000
   96.1 Ag    1  5g3-         1.958600     1.000000
   97.1 Ag    1  5g0          4.548600     1.000000
   98.1 Ag    1  5g2-         4.548600     1.000000
   99.1 Ag    1  5g1+         4.548600     1.000000
  100.1 Ag    1  5g4+         4.548600     1.000000
  101.1 Ag    1  5g1-         4.548600     1.000000
  102.1 Ag    1  5g2+         4.548600     1.000000
  103.1 Ag    1  5g4-         4.548600     1.000000
  104.1 Ag    1  5g3+         4.548600     1.000000
  105.1 Ag    1  5g3-         4.548600     1.000000
  106.1 Ag    1  5g0         10.563800     1.000000
  107.1 Ag    1  5g2-        10.563800     1.000000
  108.1 Ag    1  5g1+        10.563800     1.000000
  109.1 Ag    1  5g4+        10.563800     1.000000
  110.1 Ag    1  5g1-        10.563800     1.000000
  111.1 Ag    1  5g2+        10.563800     1.000000
  112.1 Ag    1  5g4-        10.563800     1.000000
  113.1 Ag    1  5g3+        10.563800     1.000000
  114.1 Ag    1  5g3-        10.563800     1.000000
  115.1 Ag    1  5g0          0.165500     1.000000
  116.1 Ag    1  5g2-         0.165500     1.000000
  117.1 Ag    1  5g1+         0.165500     1.000000
  118.1 Ag    1  5g4+         0.165500     1.000000
  119.1 Ag    1  5g1-         0.165500     1.000000
  120.1 Ag    1  5g2+         0.165500     1.000000
  121.1 Ag    1  5g4-         0.165500     1.000000
  122.1 Ag    1  5g3+         0.165500     1.000000
  123.1 Ag    1  5g3-         0.165500     1.000000
  124.1 Ag    1  7i6+         2.219700     1.000000
  125.1 Ag    1  7i2-         2.219700     1.000000
  126.1 Ag    1  7i5+         2.219700     1.000000
  127.1 Ag    1  7i4+         2.219700     1.000000
  128.1 Ag    1  7i5-         2.219700     1.000000
  129.1 Ag    1  7i2+         2.219700     1.000000
  130.1 Ag    1  7i6-         2.219700     1.000000
  131.1 Ag    1  7i3+         2.219700     1.000000
  132.1 Ag    1  7i4-         2.219700     1.000000
  133.1 Ag    1  7i0          2.219700     1.000000
  134.1 Ag    1  7i3-         2.219700     1.000000
  135.1 Ag    1  7i1-         2.219700     1.000000
  136.1 Ag    1  7i1+         2.219700     1.000000
    1.2 Au    1  2px      34166.161000     0.000134
                           8086.560800     0.000550
                           2626.511400     0.002349
                           1005.395000     0.008800
                            427.127350     0.029322
                            195.151130     0.082651
                             94.054308     0.186746
                             46.999880     0.313487
                             24.117457     0.341085
                             12.519982     0.187363
                              6.357325     0.037494
                              3.168052     0.002145
                              1.553481     0.000714
                              0.710325    -0.000048
                              0.320955     0.000045
                              0.139357    -0.000022
                              0.058410     0.000005
    2.2 Au    1  2py      34166.161000     0.000134
                           8086.560800     0.000550
                           2626.511400     0.002349
                           1005.395000     0.008800
                            427.127350     0.029322
                            195.151130     0.082651
                             94.054308     0.186746
                             46.999880     0.313487
                             24.117457     0.341085
                             12.519982     0.187363
                              6.357325     0.037494
                              3.168052     0.002145
                              1.553481     0.000714
                              0.710325    -0.000048
                              0.320955     0.000045
                              0.139357    -0.000022
                              0.058410     0.000005
    3.2 Au    1  2pz      34166.161000     0.000134
                           8086.560800     0.000550
                           2626.511400     0.002349
                           1005.395000     0.008800
                            427.127350     0.029322
                            195.151130     0.082651
                             94.054308     0.186746
                             46.999880     0.313487
                             24.117457     0.341085
                             12.519982     0.187363
                              6.357325     0.037494
                              3.168052     0.002145
                              1.553481     0.000714
                              0.710325    -0.000048
                              0.320955     0.000045
                              0.139357    -0.000022
                              0.058410     0.000005
    4.2 Au    1  2px      34166.161000    -0.000052
                           8086.560800    -0.000216
                           2626.511400    -0.000926
                           1005.395000    -0.003489
                            427.127350    -0.011779
                            195.151130    -0.033998
                             94.054308    -0.079931
                             46.999880    -0.140912
                             24.117457    -0.158199
                             12.519982    -0.001211
                              6.357325     0.306045
                              3.168052     0.470378
                              1.553481     0.297226
                              0.710325     0.052512
                              0.320955    -0.000126
                              0.139357     0.000897
                              0.058410    -0.000217
    5.2 Au    1  2py      34166.161000    -0.000052
                           8086.560800    -0.000216
                           2626.511400    -0.000926
                           1005.395000    -0.003489
                            427.127350    -0.011779
                            195.151130    -0.033998
                             94.054308    -0.079931
                             46.999880    -0.140912
                             24.117457    -0.158199
                             12.519982    -0.001211
                              6.357325     0.306045
                              3.168052     0.470378
                              1.553481     0.297226
                              0.710325     0.052512
                              0.320955    -0.000126
                              0.139357     0.000897
                              0.058410    -0.000217
    6.2 Au    1  2pz      34166.161000    -0.000052
                           8086.560800    -0.000216
                           2626.511400    -0.000926
                           1005.395000    -0.003489
                            427.127350    -0.011779
                            195.151130    -0.033998
                             94.054308    -0.079931
                             46.999880    -0.140912
                             24.117457    -0.158199
                             12.519982    -0.001211
                              6.357325     0.306045
                              3.168052     0.470378
                              1.553481     0.297226
                              0.710325     0.052512
                              0.320955    -0.000126
                              0.139357     0.000897
                              0.058410    -0.000217
    7.2 Au    1  2px      34166.161000     0.000000
                           8086.560800     0.000000
                           2626.511400     0.000000
                           1005.395000     0.000000
                            427.127350     0.000000
                            195.151130     0.000000
                             94.054308     0.000000
                             46.999880     0.000000
                             24.117457     0.000000
                             12.519982     1.000000
                              6.357325     0.000000
                              3.168052     0.000000
                              1.553481     0.000000
                              0.710325     0.000000
                              0.320955     0.000000
                              0.139357     0.000000
                              0.058410     0.000000
    8.2 Au    1  2py      34166.161000     0.000000
                           8086.560800     0.000000
                           2626.511400     0.000000
                           1005.395000     0.000000
                            427.127350     0.000000
                            195.151130     0.000000
                             94.054308     0.000000
                             46.999880     0.000000
                             24.117457     0.000000
                             12.519982     1.000000
                              6.357325     0.000000
                              3.168052     0.000000
                              1.553481     0.000000
                              0.710325     0.000000
                              0.320955     0.000000
                              0.139357     0.000000
                              0.058410     0.000000
    9.2 Au    1  2pz      34166.161000     0.000000
                           8086.560800     0.000000
                           2626.511400     0.000000
                           1005.395000     0.000000
                            427.127350     0.000000
                            195.151130     0.000000
                             94.054308     0.000000
                             46.999880     0.000000
                             24.117457     0.000000
                             12.519982     1.000000
                              6.357325     0.000000
                              3.168052     0.000000
                              1.553481     0.000000
                              0.710325     0.000000
                              0.320955     0.000000
                              0.139357     0.000000
                              0.058410     0.000000
   10.2 Au    1  2px      34166.161000     0.000000
                           8086.560800     0.000000
                           2626.511400     0.000000
                           1005.395000     0.000000
                            427.127350     0.000000
                            195.151130     0.000000
                             94.054308     0.000000
                             46.999880     0.000000
                             24.117457     0.000000
                             12.519982     0.000000
                              6.357325     1.000000
                              3.168052     0.000000
                              1.553481     0.000000
                              0.710325     0.000000
                              0.320955     0.000000
                              0.139357     0.000000
                              0.058410     0.000000
   11.2 Au    1  2py      34166.161000     0.000000
                           8086.560800     0.000000
                           2626.511400     0.000000
                           1005.395000     0.000000
                            427.127350     0.000000
                            195.151130     0.000000
                             94.054308     0.000000
                             46.999880     0.000000
                             24.117457     0.000000
                             12.519982     0.000000
                              6.357325     1.000000
                              3.168052     0.000000
                              1.553481     0.000000
                              0.710325     0.000000
                              0.320955     0.000000
                              0.139357     0.000000
                              0.058410     0.000000
   12.2 Au    1  2pz      34166.161000     0.000000
                           8086.560800     0.000000
                           2626.511400     0.000000
                           1005.395000     0.000000
                            427.127350     0.000000
                            195.151130     0.000000
                             94.054308     0.000000
                             46.999880     0.000000
                             24.117457     0.000000
                             12.519982     0.000000
                              6.357325     1.000000
                              3.168052     0.000000
                              1.553481     0.000000
                              0.710325     0.000000
                              0.320955     0.000000
                              0.139357     0.000000
                              0.058410     0.000000
   13.2 Au    1  2px      34166.161000     0.000000
                           8086.560800     0.000000
                           2626.511400     0.000000
                           1005.395000     0.000000
                            427.127350     0.000000
                            195.151130     0.000000
                             94.054308     0.000000
                             46.999880     0.000000
                             24.117457     0.000000
                             12.519982     0.000000
                              6.357325     0.000000
                              3.168052     1.000000
                              1.553481     0.000000
                              0.710325     0.000000
                              0.320955     0.000000
                              0.139357     0.000000
                              0.058410     0.000000
   14.2 Au    1  2py      34166.161000     0.000000
                           8086.560800     0.000000
                           2626.511400     0.000000
                           1005.395000     0.000000
                            427.127350     0.000000
                            195.151130     0.000000
                             94.054308     0.000000
                             46.999880     0.000000
                             24.117457     0.000000
                             12.519982     0.000000
                              6.357325     0.000000
                              3.168052     1.000000
                              1.553481     0.000000
                              0.710325     0.000000
                              0.320955     0.000000
                              0.139357     0.000000
                              0.058410     0.000000
   15.2 Au    1  2pz      34166.161000     0.000000
                           8086.560800     0.000000
                           2626.511400     0.000000
                           1005.395000     0.000000
                            427.127350     0.000000
                            195.151130     0.000000
                             94.054308     0.000000
                             46.999880     0.000000
                             24.117457     0.000000
                             12.519982     0.000000
                              6.357325     0.000000
                              3.168052     1.000000
                              1.553481     0.000000
                              0.710325     0.000000
                              0.320955     0.000000
                              0.139357     0.000000
                              0.058410     0.000000
   16.2 Au    1  2px      34166.161000     0.000000
                           8086.560800     0.000000
                           2626.511400     0.000000
                           1005.395000     0.000000
                            427.127350     0.000000
                            195.151130     0.000000
                             94.054308     0.000000
                             46.999880     0.000000
                             24.117457     0.000000
                             12.519982     0.000000
                              6.357325     0.000000
                              3.168052     0.000000
                              1.553481     1.000000
                              0.710325     0.000000
                              0.320955     0.000000
                              0.139357     0.000000
                              0.058410     0.000000
   17.2 Au    1  2py      34166.161000     0.000000
                           8086.560800     0.000000
                           2626.511400     0.000000
                           1005.395000     0.000000
                            427.127350     0.000000
                            195.151130     0.000000
                             94.054308     0.000000
                             46.999880     0.000000
                             24.117457     0.000000
                             12.519982     0.000000
                              6.357325     0.000000
                              3.168052     0.000000
                              1.553481     1.000000
                              0.710325     0.000000
                              0.320955     0.000000
                              0.139357     0.000000
                              0.058410     0.000000
   18.2 Au    1  2pz      34166.161000     0.000000
                           8086.560800     0.000000
                           2626.511400     0.000000
                           1005.395000     0.000000
                            427.127350     0.000000
                            195.151130     0.000000
                             94.054308     0.000000
                             46.999880     0.000000
                             24.117457     0.000000
                             12.519982     0.000000
                              6.357325     0.000000
                              3.168052     0.000000
                              1.553481     1.000000
                              0.710325     0.000000
                              0.320955     0.000000
                              0.139357     0.000000
                              0.058410     0.000000
   19.2 Au    1  2px      34166.161000     0.000000
                           8086.560800     0.000000
                           2626.511400     0.000000
                           1005.395000     0.000000
                            427.127350     0.000000
                            195.151130     0.000000
                             94.054308     0.000000
                             46.999880     0.000000
                             24.117457     0.000000
                             12.519982     0.000000
                              6.357325     0.000000
                              3.168052     0.000000
                              1.553481     0.000000
                              0.710325     1.000000
                              0.320955     0.000000
                              0.139357     0.000000
                              0.058410     0.000000
   20.2 Au    1  2py      34166.161000     0.000000
                           8086.560800     0.000000
                           2626.511400     0.000000
                           1005.395000     0.000000
                            427.127350     0.000000
                            195.151130     0.000000
                             94.054308     0.000000
                             46.999880     0.000000
                             24.117457     0.000000
                             12.519982     0.000000
                              6.357325     0.000000
                              3.168052     0.000000
                              1.553481     0.000000
                              0.710325     1.000000
                              0.320955     0.000000
                              0.139357     0.000000
                              0.058410     0.000000
   21.2 Au    1  2pz      34166.161000     0.000000
                           8086.560800     0.000000
                           2626.511400     0.000000
                           1005.395000     0.000000
                            427.127350     0.000000
                            195.151130     0.000000
                             94.054308     0.000000
                             46.999880     0.000000
                             24.117457     0.000000
                             12.519982     0.000000
                              6.357325     0.000000
                              3.168052     0.000000
                              1.553481     0.000000
                              0.710325     1.000000
                              0.320955     0.000000
                              0.139357     0.000000
                              0.058410     0.000000
   22.2 Au    1  2px      34166.161000     0.000000
                           8086.560800     0.000000
                           2626.511400     0.000000
                           1005.395000     0.000000
                            427.127350     0.000000
                            195.151130     0.000000
                             94.054308     0.000000
                             46.999880     0.000000
                             24.117457     0.000000
                             12.519982     0.000000
                              6.357325     0.000000
                              3.168052     0.000000
                              1.553481     0.000000
                              0.710325     0.000000
                              0.320955     1.000000
                              0.139357     0.000000
                              0.058410     0.000000
   23.2 Au    1  2py      34166.161000     0.000000
                           8086.560800     0.000000
                           2626.511400     0.000000
                           1005.395000     0.000000
                            427.127350     0.000000
                            195.151130     0.000000
                             94.054308     0.000000
                             46.999880     0.000000
                             24.117457     0.000000
                             12.519982     0.000000
                              6.357325     0.000000
                              3.168052     0.000000
                              1.553481     0.000000
                              0.710325     0.000000
                              0.320955     1.000000
                              0.139357     0.000000
                              0.058410     0.000000
   24.2 Au    1  2pz      34166.161000     0.000000
                           8086.560800     0.000000
                           2626.511400     0.000000
                           1005.395000     0.000000
                            427.127350     0.000000
                            195.151130     0.000000
                             94.054308     0.000000
                             46.999880     0.000000
                             24.117457     0.000000
                             12.519982     0.000000
                              6.357325     0.000000
                              3.168052     0.000000
                              1.553481     0.000000
                              0.710325     0.000000
                              0.320955     1.000000
                              0.139357     0.000000
                              0.058410     0.000000
   25.2 Au    1  2px      34166.161000     0.000000
                           8086.560800     0.000000
                           2626.511400     0.000000
                           1005.395000     0.000000
                            427.127350     0.000000
                            195.151130     0.000000
                             94.054308     0.000000
                             46.999880     0.000000
                             24.117457     0.000000
                             12.519982     0.000000
                              6.357325     0.000000
                              3.168052     0.000000
                              1.553481     0.000000
                              0.710325     0.000000
                              0.320955     0.000000
                              0.139357     1.000000
                              0.058410     0.000000
   26.2 Au    1  2py      34166.161000     0.000000
                           8086.560800     0.000000
                           2626.511400     0.000000
                           1005.395000     0.000000
                            427.127350     0.000000
                            195.151130     0.000000
                             94.054308     0.000000
                             46.999880     0.000000
                             24.117457     0.000000
                             12.519982     0.000000
                              6.357325     0.000000
                              3.168052     0.000000
                              1.553481     0.000000
                              0.710325     0.000000
                              0.320955     0.000000
                              0.139357     1.000000
                              0.058410     0.000000
   27.2 Au    1  2pz      34166.161000     0.000000
                           8086.560800     0.000000
                           2626.511400     0.000000
                           1005.395000     0.000000
                            427.127350     0.000000
                            195.151130     0.000000
                             94.054308     0.000000
                             46.999880     0.000000
                             24.117457     0.000000
                             12.519982     0.000000
                              6.357325     0.000000
                              3.168052     0.000000
                              1.553481     0.000000
                              0.710325     0.000000
                              0.320955     0.000000
                              0.139357     1.000000
                              0.058410     0.000000
   28.2 Au    1  2px      34166.161000     0.000000
                           8086.560800     0.000000
                           2626.511400     0.000000
                           1005.395000     0.000000
                            427.127350     0.000000
                            195.151130     0.000000
                             94.054308     0.000000
                             46.999880     0.000000
                             24.117457     0.000000
                             12.519982     0.000000
                              6.357325     0.000000
                              3.168052     0.000000
                              1.553481     0.000000
                              0.710325     0.000000
                              0.320955     0.000000
                              0.139357     0.000000
                              0.058410     1.000000
   29.2 Au    1  2py      34166.161000     0.000000
                           8086.560800     0.000000
                           2626.511400     0.000000
                           1005.395000     0.000000
                            427.127350     0.000000
                            195.151130     0.000000
                             94.054308     0.000000
                             46.999880     0.000000
                             24.117457     0.000000
                             12.519982     0.000000
                              6.357325     0.000000
                              3.168052     0.000000
                              1.553481     0.000000
                              0.710325     0.000000
                              0.320955     0.000000
                              0.139357     0.000000
                              0.058410     1.000000
   30.2 Au    1  2pz      34166.161000     0.000000
                           8086.560800     0.000000
                           2626.511400     0.000000
                           1005.395000     0.000000
                            427.127350     0.000000
                            195.151130     0.000000
                             94.054308     0.000000
                             46.999880     0.000000
                             24.117457     0.000000
                             12.519982     0.000000
                              6.357325     0.000000
                              3.168052     0.000000
                              1.553481     0.000000
                              0.710325     0.000000
                              0.320955     0.000000
                              0.139357     0.000000
                              0.058410     1.000000
   31.2 Au    1  2px          0.022043     1.000000
   32.2 Au    1  2py          0.022043     1.000000
   33.2 Au    1  2pz          0.022043     1.000000
   34.2 Au    1  2px          0.007348     1.000000
   35.2 Au    1  2py          0.007348     1.000000
   36.2 Au    1  2pz          0.007348     1.000000
   37.2 Au    1  4f1+         0.196000     1.000000
   38.2 Au    1  4f1-         0.196000     1.000000
   39.2 Au    1  4f0          0.196000     1.000000
   40.2 Au    1  4f3+         0.196000     1.000000
   41.2 Au    1  4f2-         0.196000     1.000000
   42.2 Au    1  4f3-         0.196000     1.000000
   43.2 Au    1  4f2+         0.196000     1.000000
   44.2 Au    1  4f1+         0.385900     1.000000
   45.2 Au    1  4f1-         0.385900     1.000000
   46.2 Au    1  4f0          0.385900     1.000000
   47.2 Au    1  4f3+         0.385900     1.000000
   48.2 Au    1  4f2-         0.385900     1.000000
   49.2 Au    1  4f3-         0.385900     1.000000
   50.2 Au    1  4f2+         0.385900     1.000000
   51.2 Au    1  4f1+         0.759900     1.000000
   52.2 Au    1  4f1-         0.759900     1.000000
   53.2 Au    1  4f0          0.759900     1.000000
   54.2 Au    1  4f3+         0.759900     1.000000
   55.2 Au    1  4f2-         0.759900     1.000000
   56.2 Au    1  4f3-         0.759900     1.000000
   57.2 Au    1  4f2+         0.759900     1.000000
   58.2 Au    1  4f1+         1.729000     1.000000
   59.2 Au    1  4f1-         1.729000     1.000000
   60.2 Au    1  4f0          1.729000     1.000000
   61.2 Au    1  4f3+         1.729000     1.000000
   62.2 Au    1  4f2-         1.729000     1.000000
   63.2 Au    1  4f3-         1.729000     1.000000
   64.2 Au    1  4f2+         1.729000     1.000000
   65.2 Au    1  4f1+         3.860200     1.000000
   66.2 Au    1  4f1-         3.860200     1.000000
   67.2 Au    1  4f0          3.860200     1.000000
   68.2 Au    1  4f3+         3.860200     1.000000
   69.2 Au    1  4f2-         3.860200     1.000000
   70.2 Au    1  4f3-         3.860200     1.000000
   71.2 Au    1  4f2+         3.860200     1.000000
   72.2 Au    1  4f1+         8.618200     1.000000
   73.2 Au    1  4f1-         8.618200     1.000000
   74.2 Au    1  4f0          8.618200     1.000000
   75.2 Au    1  4f3+         8.618200     1.000000
   76.2 Au    1  4f2-         8.618200     1.000000
   77.2 Au    1  4f3-         8.618200     1.000000
   78.2 Au    1  4f2+         8.618200     1.000000
   79.2 Au    1  4f1+        19.240900     1.000000
   80.2 Au    1  4f1-        19.240900     1.000000
   81.2 Au    1  4f0         19.240900     1.000000
   82.2 Au    1  4f3+        19.240900     1.000000
   83.2 Au    1  4f2-        19.240900     1.000000
   84.2 Au    1  4f3-        19.240900     1.000000
   85.2 Au    1  4f2+        19.240900     1.000000
   86.2 Au    1  4f1+         0.089900     1.000000
   87.2 Au    1  4f1-         0.089900     1.000000
   88.2 Au    1  4f0          0.089900     1.000000
   89.2 Au    1  4f3+         0.089900     1.000000
   90.2 Au    1  4f2-         0.089900     1.000000
   91.2 Au    1  4f3-         0.089900     1.000000
   92.2 Au    1  4f2+         0.089900     1.000000
   93.2 Au    1  4f1+         0.029967     1.000000
   94.2 Au    1  4f1-         0.029967     1.000000
   95.2 Au    1  4f0          0.029967     1.000000
   96.2 Au    1  4f3+         0.029967     1.000000
   97.2 Au    1  4f2-         0.029967     1.000000
   98.2 Au    1  4f3-         0.029967     1.000000
   99.2 Au    1  4f2+         0.029967     1.000000
  100.2 Au    1  6h1+         0.677300     1.000000
  101.2 Au    1  6h1-         0.677300     1.000000
  102.2 Au    1  6h2+         0.677300     1.000000
  103.2 Au    1  6h3+         0.677300     1.000000
  104.2 Au    1  6h4-         0.677300     1.000000
  105.2 Au    1  6h3-         0.677300     1.000000
  106.2 Au    1  6h4+         0.677300     1.000000
  107.2 Au    1  6h5-         0.677300     1.000000
  108.2 Au    1  6h0          0.677300     1.000000
  109.2 Au    1  6h5+         0.677300     1.000000
  110.2 Au    1  6h2-         0.677300     1.000000
  111.2 Au    1  6h1+         2.214300     1.000000
  112.2 Au    1  6h1-         2.214300     1.000000
  113.2 Au    1  6h2+         2.214300     1.000000
  114.2 Au    1  6h3+         2.214300     1.000000
  115.2 Au    1  6h4-         2.214300     1.000000
  116.2 Au    1  6h3-         2.214300     1.000000
  117.2 Au    1  6h4+         2.214300     1.000000
  118.2 Au    1  6h5-         2.214300     1.000000
  119.2 Au    1  6h0          2.214300     1.000000
  120.2 Au    1  6h5+         2.214300     1.000000
  121.2 Au    1  6h2-         2.214300     1.000000
  122.2 Au    1  6h1+         9.798600     1.000000
  123.2 Au    1  6h1-         9.798600     1.000000
  124.2 Au    1  6h2+         9.798600     1.000000
  125.2 Au    1  6h3+         9.798600     1.000000
  126.2 Au    1  6h4-         9.798600     1.000000
  127.2 Au    1  6h3-         9.798600     1.000000
  128.2 Au    1  6h4+         9.798600     1.000000
  129.2 Au    1  6h5-         9.798600     1.000000
  130.2 Au    1  6h0          9.798600     1.000000
  131.2 Au    1  6h5+         9.798600     1.000000
  132.2 Au    1  6h2-         9.798600     1.000000
  133.2 Au    1  6h1+         0.366800     1.000000
  134.2 Au    1  6h1-         0.366800     1.000000
  135.2 Au    1  6h2+         0.366800     1.000000
  136.2 Au    1  6h3+         0.366800     1.000000
  137.2 Au    1  6h4-         0.366800     1.000000
  138.2 Au    1  6h3-         0.366800     1.000000
  139.2 Au    1  6h4+         0.366800     1.000000
  140.2 Au    1  6h5-         0.366800     1.000000
  141.2 Au    1  6h0          0.366800     1.000000
  142.2 Au    1  6h5+         0.366800     1.000000
  143.2 Au    1  6h2-         0.366800     1.000000

 NUCLEAR CHARGE:                   33
 NUMBER OF PRIMITIVE AOS:         495
 NUMBER OF SYMMETRY AOS:          358
 NUMBER OF CONTRACTIONS:          279   (  136Ag  +  143Au  )
 NUMBER OF INNER CORE ORBITALS:     5   (    2Ag  +    3Au  )
 NUMBER OF OUTER CORE ORBITALS:     9   (    6Ag  +    3Au  )
 NUMBER OF VALENCE ORBITALS:        4   (    1Ag  +    3Au  )


 NUCLEAR REPULSION ENERGY    0.00000000

 One-electron integrals computed with SEWARD

 eXact-2-Component (X2C) method activated

 Computing Douglas-Kroll / X2C integrals

 AO integral compression algorithm  1   Integral accuracy      1.0D-11

     590.873 MB (compressed) written to integral file ( 11.7%)

     Node minimum: 35.127 MB, node maximum: 64.750 MB


 NUMBER OF SORTED TWO-ELECTRON INTEGRALS:   32019228.     BUFFER LENGTH:  32768
 NUMBER OF SEGMENTS:   3  SEGMENT LENGTH:   15986256      RECORD LENGTH: 524288

 Memory used in sort:      16.54 MW

 SORT1 READ   629150724. AND WROTE     5324440. INTEGRALS IN     17 RECORDS. CPU TIME:     2.70 SEC, REAL TIME:     2.77 SEC
 SORT2 READ    65846403. AND WROTE   384160150. INTEGRALS IN   2172 RECORDS. CPU TIME:     0.62 SEC, REAL TIME:     0.67 SEC

 Node minimum:    32007790.  Node maximum:    32019228. integrals

 OPERATOR DM      FOR CENTER  0  COORDINATES:    0.000000    0.000000    0.000000

 EXTRA SYMMETRY OF AOS IN SYMMETRY 1:   1 1 1 1 1 1 1 1 1 1   1 1 1 1 2 3 4 5 6 2   3 4 5 6 2 3 4 5 6 2   3 4 5 6 2 3 4 5 6 2
                                        3 4 5 6 2 3 4 5 6 2   3 4 5 6 2 3 4 5 6 2   3 4 5 6 2 3 4 5 6 7   8 9101112131415 7 8
                                        9101112131415 7 8 9  101112131415 7 8 910  1112131415 7 8 91011  12131415 7 8 9101112
                                       13141516171819202122  232425262728
 EXTRA SYMMETRY OF AOS IN SYMMETRY 2:   1 2 3 1 2 3 1 2 3 1   2 3 1 2 3 1 2 3 1 2   3 1 2 3 1 2 3 1 2 3   1 2 3 1 2 3 4 5 6 7
                                        8 910 4 5 6 7 8 910   4 5 6 7 8 910 4 5 6   7 8 910 4 5 6 7 8 9  10 4 5 6 7 8 910 4 5
                                        6 7 8 910 4 5 6 7 8   910 4 5 6 7 8 91011  12131415161718192021  11121314151617181920
                                       21111213141516171819  20211112131415161718  192021

 Eigenvalues of metric

         1 0.116E-05 0.444E-04 0.310E-03 0.103E-02 0.103E-02 0.103E-02 0.103E-02 0.103E-02
         2 0.112E-04 0.112E-04 0.112E-04 0.286E-02 0.286E-02 0.286E-02 0.108E-01 0.108E-01


 **********************************************************************************************************************************
 DATASETS  * FILE   NREC   LENGTH (MB)   RECORD NAMES
              1      22       31.52       500      610      700      900      950      970     1000      129      960     1700   
                                          VAR    BASINP    GEOM    SYMINP    ZMAT    AOBASIS   BASIS     P2S    ABASIS    OPER   
                                         1101     1401     1411     1412     1650     1100     1400     1410     1200     1210   
                                          SR      EKINR    POTR     PVPR    MOLCAS      S      EKIN      POT      H0       H01  
                                         1080     1600   
                                         AOSYM     SMH  

 PROGRAMS   *        TOTAL       INT
 CPU TIMES  *        13.44     13.24
 REAL TIME  *        14.79 SEC
 DISK USED  *        31.94 MB (local),        1.63 GB (total)
 GA USED    *         0.00 MB       (max)       0.00 MB       (current)
 **********************************************************************************************************************************


 Program * Restricted Hartree-Fock


   Atom=AS basis=MINAO             lmin=0  lmax=2

 Orbital guess generated from atomic densities.

 Initial alpha occupancy:   9   9
 Initial beta  occupancy:   9   6

 NELEC=   33   SYM=2   MS2= 3   THRE=1.0D-08   THRD=3.2D-06   THRG=3.2D-06  HFMA2=F  DIIS_START=2   DIIS_MAX=10   DIIS_INCORE=F

 Level shifts:    0.00 (CLOSED)    0.00 (OPEN)    0.30 (GAP_MIN)

 ITER           ETOT              DE          GRAD        DDIFF     DIIS  NEXP   TIME(IT)  TIME(TOT)  DIAG
   1    -2259.07962039   -2259.07962039     0.00D+00     0.57D-01     0     0       0.17      0.33    start
   2    -2259.09743788      -0.01781749     0.10D-01     0.59D-02     1     0       0.18      0.51    diag2
   3    -2259.10069034      -0.00325246     0.35D-02     0.16D-02     2     0       0.19      0.70    diag2
   4    -2259.10124651      -0.00055616     0.11D-02     0.27D-03     3     0       0.18      0.88    diag2
   5    -2259.10128861      -0.00004210     0.10D-03     0.13D-03     4     0       0.18      1.06    diag2
   6    -2259.10129151      -0.00000289     0.17D-04     0.36D-04     5     0       0.18      1.24    diag2
   7    -2259.10129154      -0.00000003     0.28D-05     0.45D-05     6     0       0.18      1.42    diag2
   8    -2259.10129154      -0.00000000     0.20D-06     0.74D-06     7     0       0.18      1.60    fixocc
   9    -2259.10129154      -0.00000000     0.30D-07     0.11D-06     0     0       0.19      1.79    diag

 Final alpha occupancy:   9   9
 Final beta  occupancy:   9   6

 !RHF STATE 1.2 Energy              -2259.101291535306
  RHF One-electron energy           -3146.463617498171
  RHF Two-electron energy             887.362325962865
  RHF Kinetic energy                 2400.385192562989
  RHF Nuclear energy                    0.000000000000
  RHF Virial quotient                  -0.941141154567

 !RHF STATE 1.2 Dipole moment           0.00000000     0.00000000     0.00000000
 Dipole moment /Debye                   0.00000000     0.00000000     0.00000000

 ELECTRON ORBITALS
 =================

  Orbital  Occupation    Energy    Cen Mu Typ  Coefficients
    1.1     2.00000  -438.96431     1  1  s    1.00000
    2.1     2.00000   -57.77717     1  2  s    1.00004
    3.1     2.00000    -8.27479     1  3  s    0.99973
    4.1     2.00000    -2.06749     1  1  d0   0.99999
    5.1     2.00000    -2.06749     1  1  d1-  0.99999
    6.1     2.00000    -2.06749     1  1  d2-  0.99999
    7.1     2.00000    -2.06749     1  1  d1+  0.99999
    8.1     2.00000    -2.06749     1  1  d2+  0.99999
    9.1     2.00000    -0.70316     1  4  s    1.00043
    1.2     2.00000   -50.48651     1  1  px   1.00000
    2.2     2.00000   -50.48651     1  1  py   1.00000
    3.2     2.00000   -50.48651     1  1  pz   1.00000
    4.2     2.00000    -5.93354     1  2  px   1.00002
    5.2     2.00000    -5.93354     1  2  py   1.00002
    6.2     2.00000    -5.93354     1  2  pz   1.00002
    7.2     1.00000    -0.36830     1  2  pz  -0.25249    1  8  pz   0.41296    1  9  pz   0.47704
    8.2     1.00000    -0.36830     1  2  py  -0.25249    1  8  py   0.41296    1  9  py   0.47704
    9.2     1.00000    -0.36830     1  2  px  -0.25249    1  8  px   0.41296    1  9  px   0.47704


 HOMO      9.2    -0.368302 =     -10.0220eV
 LUMO     10.1     0.014585 =       0.3969eV
 LUMO-HOMO         0.382887 =      10.4189eV

 Orbitals saved in record  2100.2


 **********************************************************************************************************************************
 DATASETS  * FILE   NREC   LENGTH (MB)   RECORD NAMES
              1      22       31.52       500      610      700      900      950      970     1000      129      960     1700   
                                          VAR    BASINP    GEOM    SYMINP    ZMAT    AOBASIS   BASIS     P2S    ABASIS    OPER   
                                         1101     1401     1411     1412     1650     1100     1400     1410     1200     1210   
                                          SR      EKINR    POTR     PVPR    MOLCAS      S      EKIN      POT      H0       H01  
                                         1080     1600   
                                         AOSYM     SMH  

              2       4        1.63       700     1000      520     2100   
                                         GEOM     BASIS   MCVARS     RHF  

 PROGRAMS   *        TOTAL   RHF-SCF       INT
 CPU TIMES  *        15.24      1.80     13.24
 REAL TIME  *        16.66 SEC
 DISK USED  *        38.06 MB (local),        1.70 GB (total)
 GA USED    *         0.00 MB       (max)       0.00 MB       (current)
 **********************************************************************************************************************************

 PROGRAM * MULTI (Direct Multiconfiguration SCF)       Authors: P.J. Knowles, H.-J. Werner (1984)
                                                                D.A. Kreplin, P.J. Knowles, H.-J. Werner (2019)

 Number of closed-shell orbitals:  14 (    8    6)
 Number of active  orbitals:        7 (    1    6)
 Number of external orbitals:     258 (  127  131)

 State symmetry 1

 Number of active electrons:   5    Spin symmetry=Quartet   Space symmetry=2
 Number of states:             9
 Number of CSFs:             104   (110 determinants, 245 intermediate states)

 State symmetry 2

 Number of active electrons:   5    Spin symmetry=Doublet   Space symmetry=2
 Number of states:             8
 Number of CSFs:             280   (390 determinants, 735 intermediate states)

 Molecular orbitals read from record     2100.2  Type=RHF/CANONICAL  
 *** IN SYMMETRY 1 ORBITAL  4 SYMMETRY CONTAMINATION OF 0.345D-02 HAS BEEN REMOVED
 *** IN SYMMETRY 1 ORBITAL  5 SYMMETRY CONTAMINATION OF 0.675D-03 HAS BEEN REMOVED
 *** IN SYMMETRY 1 ORBITAL  6 SYMMETRY CONTAMINATION OF 0.701D-03 HAS BEEN REMOVED
 *** IN SYMMETRY 1 ORBITAL  7 SYMMETRY CONTAMINATION OF 0.235D-03 HAS BEEN REMOVED
 *** IN SYMMETRY 1 ORBITAL  8 SYMMETRY CONTAMINATION OF 0.348D-02 HAS BEEN REMOVED

 EXTRA SYMMETRY OF MOS IN SYMMETRY 1:   1 1 1 2 6 3 4 5 1 1   2 6 4 3 5 1 2 6 3 4   5 1 2 6 3 4 51112 8   9 715141310 2 6 3 4
                                        5 1 711 8 912151413  10 2 6 3 4 5 1 711 8   91215141310 2 6 3 4   5 1 7 8111014131215
                                        9 2 6 3 5 425271728  212623241920182216 1  1310 71415 9 81211 2   6 3 4 5 11013141512
                                        8 911 7 5 4 3 6 2 1   4 6 3 5 2 1
 *** IN SYMMETRY 2 ORBITAL  2 SYMMETRY CONTAMINATION OF 0.335D-03 HAS BEEN REMOVED
 *** IN SYMMETRY 2 ORBITAL  3 SYMMETRY CONTAMINATION OF 0.335D-03 HAS BEEN REMOVED
 *** IN SYMMETRY 2 ORBITAL  5 SYMMETRY CONTAMINATION OF 0.117D-03 HAS BEEN REMOVED
 *** IN SYMMETRY 2 ORBITAL  6 SYMMETRY CONTAMINATION OF 0.117D-03 HAS BEEN REMOVED
 *** IN SYMMETRY 2 ORBITAL  7 SYMMETRY CONTAMINATION OF 0.208D-03 HAS BEEN REMOVED
 *** IN SYMMETRY 2 ORBITAL  8 SYMMETRY CONTAMINATION OF 0.208D-03 HAS BEEN REMOVED
 *** IN SYMMETRY 2 ORBITAL 10 SYMMETRY CONTAMINATION OF 0.323D-03 HAS BEEN REMOVED
 *** IN SYMMETRY 2 ORBITAL 11 SYMMETRY CONTAMINATION OF 0.349D-03 HAS BEEN REMOVED
 *** IN SYMMETRY 2 ORBITAL 12 SYMMETRY CONTAMINATION OF 0.137D-03 HAS BEEN REMOVED
 EXTRA SYMMETRY OF MOS IN SYMMETRY 2:   1 2 3 1 2 3 3 2 1 3   2 1 3 2 1 6 5 4 810   7 9 2 1 3 5 4 6 810   7 9 3 2 110 8 6 5 4
                                        7 910 8 4 5 6 7 912  19112116131418201517   3 2 1 6 4 510 8 7 9  12191121161714151318
                                       20 6 810 9 7 5 4 3 2   1121911211614131517  1820 6 5 8 410 7 9 1   2 310 8 7 9 6 4 520
                                       18171514161321111219   1 2 310 7 9 8 4 5 6   2 1 3

 Wavefunction dump at record             2140.2

 Convergence thresholds  0.10E-04 (gradient)  0.10E-05 (energy)

 Weight factors for state symmetry  1:    0.05882   0.05882   0.05882   0.05882   0.05882   0.05882   0.05882   0.05882
                                          0.05882
 Weight factors for state symmetry  2:    0.05882   0.05882   0.05882   0.05882   0.05882   0.05882   0.05882   0.05882
 
 Number of orbital rotations:  2759  ( 44 closed/active, 1802 closed/virtual, 0 active/active, 913 active/virtual )
 Total number of variables:    6869
 
 Second-order MCSCF: L-BFGS accelerated
 
 ITER  MIC  NCI  NEG     ENERGY(VAR)    ENERGY(PROJ) ENERGY CHANGE       GRAD(0)  GRAD(ORB)   GRAD(CI)      STEP      TIME
   1    8   14    0  -2258.92391847   -2258.93995912   -0.01604064    0.07868597 0.00030734 0.00000000  0.13E+01      3.96
   2    8   14    0  -2258.93961250   -2258.93962957   -0.00001707    0.00502619 0.00000004 0.00000000  0.22E-01      8.04
   3    5   10    0  -2258.93962959   -2258.93962959   -0.00000000    0.00000840 0.00000000 0.00000000  0.40E-04     11.70

 CONVERGENCE REACHED!  Final gradient:    0.00000000 ( 0.35E-08)
                       Final energy:  -2258.93962959
 
 Results for state 1.2 Quartet
 =============================
 !MCSCF STATE 1.2 Quartet Energy             -2259.099547837768
 Nuclear energy                                  0.00000000
 Kinetic energy                               2400.95462115
 One electron energy                         -3147.67837712
 Two electron energy                           888.57882928
 Virial ratio                                    1.94091722
 
 !MCSCF STATE 1.2 Quartet Dipole moment          0.00000000     0.00000000     0.00000000
 Dipole moment /Debye                            0.00000000     0.00000000     0.00000000
 
 Results for state 2.2 Quartet
 =============================
 !MCSCF STATE 2.2 Quartet Energy             -2258.837461046271
 Nuclear energy                                  0.00000000
 Kinetic energy                               2399.58238516
 One electron energy                         -3137.83308079
 Two electron energy                           878.99561975
 Virial ratio                                    1.94134608
 
 !MCSCF STATE 2.2 Quartet Dipole moment          0.00000000     0.00000000     0.00000000
 Dipole moment /Debye                            0.00000000     0.00000000     0.00000000
 
 Results for state 3.2 Quartet
 =============================
 !MCSCF STATE 3.2 Quartet Energy             -2258.837461046226
 Nuclear energy                                  0.00000000
 Kinetic energy                               2399.58238517
 One electron energy                         -3137.83308081
 Two electron energy                           878.99561977
 Virial ratio                                    1.94134608
 
 !MCSCF STATE 3.2 Quartet Dipole moment          0.00000000     0.00000000     0.00000000
 Dipole moment /Debye                            0.00000000     0.00000000     0.00000000
 
 Results for state 4.2 Quartet
 =============================
 !MCSCF STATE 4.2 Quartet Energy             -2258.837461046009
 Nuclear energy                                  0.00000000
 Kinetic energy                               2399.58238517
 One electron energy                         -3137.83308084
 Two electron energy                           878.99561979
 Virial ratio                                    1.94134608
 
 !MCSCF STATE 4.2 Quartet Dipole moment          0.00000000     0.00000000     0.00000000
 Dipole moment /Debye                            0.00000000     0.00000000     0.00000000
 
 Results for state 5.2 Quartet
 =============================
 !MCSCF STATE 5.2 Quartet Energy             -2258.837461045714
 Nuclear energy                                  0.00000000
 Kinetic energy                               2399.58238518
 One electron energy                         -3137.83308092
 Two electron energy                           878.99561987
 Virial ratio                                    1.94134608
 
 !MCSCF STATE 5.2 Quartet Dipole moment          0.00000000     0.00000000     0.00000000
[...]
   23    5.2  1.5 -0.5  10.063%   9.326%   4.460%   0.142%   0.402%  13.391%   2.188%   0.085%   5.306%   0.155%
   24    6.2  1.5 -0.5   0.023%   0.000%  13.795%   0.010%   0.003%   4.586%   5.539%   0.106%   2.793%   0.255%
   25    7.2  1.5 -0.5   0.465%   0.059%   0.024%   1.494%   0.956%   0.068%   0.439%   0.335%   1.651%   0.938%
   26    8.2  1.5 -0.5   0.182%   0.102%   0.041%   0.616%   2.821%   0.107%   0.084%   1.289%   0.102%   0.719%
   27    9.2  1.5 -0.5   0.100%   0.576%   0.108%   1.360%   0.125%   0.297%   1.377%   0.019%   2.253%   0.646%
   28    1.2  1.5 -1.5   0.000%   0.000%   0.000%   0.000%   0.000%   0.000%   0.000%   0.000%   0.000%   0.000%
   29    2.2  1.5 -1.5   8.999%   0.282%   3.809%   1.199%   3.156%  10.232%  22.817%   0.667%   1.544%   0.509%
   30    3.2  1.5 -1.5   2.941%   2.111%   4.662%   0.357%   0.989%  12.387%   1.183%   0.734%  31.247%   0.650%
   31    4.2  1.5 -1.5   2.777%  12.005%   1.407%   3.589%   9.637%   3.763%   8.356%   1.796%   0.280%   5.537%
   32    5.2  1.5 -1.5   0.011%   0.005%   0.002%  13.790%   4.599%   0.002%   0.113%   5.097%   0.125%   1.511%
   33    6.2  1.5 -1.5   9.278%  10.103%   0.129%   4.460%  13.404%   0.401%   0.122%   2.263%   0.127%   5.183%
   34    7.2  1.5 -1.5   0.236%   0.228%   0.260%   1.266%   0.567%   0.709%   1.703%   0.254%   1.111%   0.178%
   35    8.2  1.5 -1.5   0.359%   0.347%   0.411%   0.269%   0.005%   1.076%   3.360%   0.147%   0.832%   0.195%
   36    9.2  1.5 -1.5   0.159%   0.154%   0.179%   1.990%   0.808%   0.478%   0.831%   0.139%   1.332%   0.018%
   37    1.2  0.5  0.5   0.000%   0.000%   0.000%   0.001%   0.001%   0.000%   0.000%   0.001%   0.000%   0.001%
   38    2.2  0.5  0.5   0.000%   0.000%   0.001%   0.000%   0.000%   0.000%   0.001%   0.000%   0.000%   0.000%
   39    3.2  0.5  0.5   0.000%   0.000%   0.000%   0.000%   0.000%   0.001%   0.000%   0.000%   0.001%   0.000%
   40    4.2  0.5  0.5   0.000%   0.000%   0.000%   0.001%   0.001%   0.000%   0.000%   0.002%   0.000%   0.001%
   41    5.2  0.5  0.5   0.000%   0.000%   0.000%   0.001%   0.000%   0.000%   0.000%   0.001%   0.000%   0.000%
   42    6.2  0.5  0.5   0.001%   0.001%   0.000%   0.001%   0.002%   0.000%   0.000%   0.000%   0.000%   0.000%
   43    7.2  0.5  0.5   0.001%   0.001%   0.003%   0.000%   0.000%   0.000%   0.000%   0.000%   0.000%   0.000%
   44    8.2  0.5  0.5   0.001%   0.001%   0.001%   0.000%   0.000%   0.002%   0.000%   0.000%   0.000%   0.000%
   45    1.2  0.5 -0.5   0.000%   0.000%   0.001%   0.000%   0.000%   0.001%   0.001%   0.000%   0.001%   0.000%
   46    2.2  0.5 -0.5   0.000%   0.000%   0.000%   0.001%   0.000%   0.000%   0.000%   0.001%   0.000%   0.000%
   47    3.2  0.5 -0.5   0.000%   0.000%   0.000%   0.000%   0.001%   0.000%   0.000%   0.000%   0.000%   0.001%
   48    4.2  0.5 -0.5   0.000%   0.000%   0.001%   0.000%   0.000%   0.001%   0.002%   0.000%   0.001%   0.000%
   49    5.2  0.5 -0.5   0.000%   0.000%   0.001%   0.000%   0.000%   0.000%   0.001%   0.000%   0.000%   0.000%
   50    6.2  0.5 -0.5   0.001%   0.001%   0.001%   0.000%   0.000%   0.002%   0.000%   0.000%   0.000%   0.000%
   51    7.2  0.5 -0.5   0.001%   0.001%   0.000%   0.003%   0.000%   0.000%   0.000%   0.000%   0.000%   0.000%
   52    8.2  0.5 -0.5   0.001%   0.001%   0.000%   0.001%   0.002%   0.000%   0.000%   0.000%   0.000%   0.000%

   Nr   State  S   Sz      31       32       33       34       35       36       37       38       39       40

    1    1.2  1.5  1.5   0.000%   0.000%   0.000%   0.000%   0.000%   0.003%   0.000%   0.002%   0.000%   0.000%
    2    2.2  1.5  1.5   0.090%   2.219%   0.009%   0.275%   0.415%   0.206%   0.653%   0.330%   2.299%  16.072%
    3    3.2  1.5  1.5   0.095%   2.344%   0.068%   0.086%   0.330%   0.306%   0.520%   0.448%   2.133%  19.326%
    4    4.2  1.5  1.5   0.047%   0.891%   0.348%   0.104%   0.150%   0.472%   0.237%   0.746%   0.474%   4.878%
    5    5.2  1.5  1.5  37.451%   1.966%   0.000%   0.000%   0.003%   0.992%   0.001%   0.607%   5.611%   0.430%
    6    6.2  1.5  1.5   0.057%   0.009%   0.279%   0.314%   0.350%   0.248%   0.552%   0.452%   0.065%   0.114%
    7    7.2  1.5  1.5   1.224%   0.457%   8.246%   6.948%   1.596%  26.345%   3.238%   0.962%   0.000%   0.000%
    8    8.2  1.5  1.5   0.047%   0.832%  12.519%  10.549%   2.957%   5.930%   4.342%   6.970%   0.000%   0.000%
    9    9.2  1.5  1.5   2.022%   0.281%   5.565%   4.689%   1.452%   9.758%   1.861%  26.562%   0.000%   0.000%
   10    1.2  1.5  0.5   0.000%   0.000%   0.000%   0.000%   0.001%   0.001%   0.001%   0.002%   0.000%   0.000%
   11    2.2  1.5  0.5   0.793%   1.510%   0.141%   0.168%   0.282%   0.700%   0.179%   0.443%   5.356%   8.074%
   12    3.2  1.5  0.5   0.780%   0.177%   0.207%   0.232%   0.010%   0.959%   0.004%   0.631%   7.074%   0.018%
   13    4.2  1.5  0.5   0.865%   3.153%   0.065%   0.077%   0.697%   0.285%   0.436%   0.186%   1.492%  18.236%
   14    5.2  1.5  0.5   0.004%   0.010%   0.316%   0.277%   0.232%   0.376%   0.438%   0.557%   0.024%   0.101%
   15    6.2  1.5  0.5   1.759%  35.797%   0.000%   0.001%   0.999%   0.006%   0.597%   0.001%   0.952%   7.272%
   16    7.2  1.5  0.5   1.589%   0.096%   2.815%  14.335%   3.848%  12.570%   5.624%   7.133%   0.000%   0.000%
   17    8.2  1.5  0.5   2.238%   0.131%   2.697%   6.579%   3.901%  13.217%   7.325%  16.673%   0.000%   0.000%
   18    9.2  1.5  0.5   1.022%   0.035%  19.437%   2.653%   4.388%   6.010%   6.092%   5.191%   0.000%   0.000%
   19    1.2  1.5 -0.5   0.000%   0.000%   0.000%   0.000%   0.001%   0.001%   0.002%   0.001%   0.000%   0.000%
   20    2.2  1.5 -0.5   1.510%   0.793%   0.168%   0.141%   0.700%   0.282%   0.443%   0.179%   8.074%   5.356%
   21    3.2  1.5 -0.5   0.177%   0.780%   0.232%   0.207%   0.959%   0.010%   0.631%   0.004%   0.018%   7.074%
   22    4.2  1.5 -0.5   3.153%   0.865%   0.077%   0.065%   0.285%   0.697%   0.186%   0.436%  18.236%   1.492%
   23    5.2  1.5 -0.5   0.010%   0.004%   0.277%   0.316%   0.376%   0.232%   0.557%   0.438%   0.101%   0.024%
   24    6.2  1.5 -0.5  35.797%   1.759%   0.001%   0.000%   0.006%   0.999%   0.001%   0.597%   7.272%   0.952%
   25    7.2  1.5 -0.5   0.096%   1.589%  14.335%   2.815%  12.570%   3.848%   7.133%   5.624%   0.000%   0.000%
   26    8.2  1.5 -0.5   0.131%   2.238%   6.579%   2.697%  13.217%   3.901%  16.673%   7.325%   0.000%   0.000%
   27    9.2  1.5 -0.5   0.035%   1.022%   2.653%  19.437%   6.010%   4.388%   5.191%   6.092%   0.000%   0.000%
   28    1.2  1.5 -1.5   0.000%   0.000%   0.000%   0.000%   0.003%   0.000%   0.002%   0.000%   0.000%   0.000%
   29    2.2  1.5 -1.5   2.219%   0.090%   0.275%   0.009%   0.206%   0.415%   0.330%   0.653%  16.072%   2.299%
   30    3.2  1.5 -1.5   2.344%   0.095%   0.086%   0.068%   0.306%   0.330%   0.448%   0.520%  19.326%   2.133%
   31    4.2  1.5 -1.5   0.891%   0.047%   0.104%   0.348%   0.472%   0.150%   0.746%   0.237%   4.878%   0.474%
   32    5.2  1.5 -1.5   1.966%  37.451%   0.000%   0.000%   0.992%   0.003%   0.607%   0.001%   0.430%   5.611%
   33    6.2  1.5 -1.5   0.009%   0.057%   0.314%   0.279%   0.248%   0.350%   0.452%   0.552%   0.114%   0.065%
   34    7.2  1.5 -1.5   0.457%   1.224%   6.948%   8.246%  26.345%   1.596%   0.962%   3.238%   0.000%   0.000%
   35    8.2  1.5 -1.5   0.832%   0.047%  10.549%  12.519%   5.930%   2.957%   6.970%   4.342%   0.000%   0.000%
   36    9.2  1.5 -1.5   0.281%   2.022%   4.689%   5.565%   9.758%   1.452%  26.562%   1.861%   0.000%   0.000%
   37    1.2  0.5  0.5   0.000%   0.000%   0.000%   0.000%   0.000%   0.000%   0.000%   0.000%   0.000%   0.000%
   38    2.2  0.5  0.5   0.001%   0.000%   0.000%   0.000%   0.000%   0.000%   0.000%   0.000%   0.000%   0.000%
   39    3.2  0.5  0.5   0.001%   0.000%   0.000%   0.000%   0.000%   0.000%   0.000%   0.000%   0.000%   0.000%
   40    4.2  0.5  0.5   0.000%   0.000%   0.000%   0.000%   0.000%   0.000%   0.000%   0.000%   0.000%   0.000%
   41    5.2  0.5  0.5   0.000%   0.001%   0.000%   0.000%   0.000%   0.000%   0.000%   0.000%   0.000%   0.000%
   42    6.2  0.5  0.5   0.000%   0.000%   0.000%   0.000%   0.000%   0.000%   0.000%   0.000%   0.000%   0.000%
   43    7.2  0.5  0.5   0.000%   0.000%   0.000%   0.000%   0.000%   0.001%   0.000%   0.000%   0.000%   0.000%
   44    8.2  0.5  0.5   0.000%   0.000%   0.000%   0.000%   0.000%   0.000%   0.000%   0.001%   0.000%   0.000%
   45    1.2  0.5 -0.5   0.000%   0.000%   0.000%   0.000%   0.000%   0.000%   0.000%   0.000%   0.000%   0.000%
   46    2.2  0.5 -0.5   0.000%   0.001%   0.000%   0.000%   0.000%   0.000%   0.000%   0.000%   0.000%   0.000%
   47    3.2  0.5 -0.5   0.000%   0.001%   0.000%   0.000%   0.000%   0.000%   0.000%   0.000%   0.000%   0.000%
   48    4.2  0.5 -0.5   0.000%   0.000%   0.000%   0.000%   0.000%   0.000%   0.000%   0.000%   0.000%   0.000%
   49    5.2  0.5 -0.5   0.001%   0.000%   0.000%   0.000%   0.000%   0.000%   0.000%   0.000%   0.000%   0.000%
   50    6.2  0.5 -0.5   0.000%   0.000%   0.000%   0.000%   0.000%   0.000%   0.000%   0.000%   0.000%   0.000%
   51    7.2  0.5 -0.5   0.000%   0.000%   0.000%   0.000%   0.001%   0.000%   0.000%   0.000%   0.000%   0.000%
   52    8.2  0.5 -0.5   0.000%   0.000%   0.000%   0.000%   0.000%   0.000%   0.001%   0.000%   0.000%   0.000%

   Nr   State  S   Sz      41       42       43       44       45       46       47       48       49       50

    1    1.2  1.5  1.5   0.000%   0.000%   0.000%   0.000%   0.000%   0.000%   0.000%   0.000%   0.000%   0.000%
    2    2.2  1.5  1.5  12.212%   3.281%   2.458%   0.458%   1.849%   0.872%   0.151%   2.158%   0.157%   0.046%
    3    3.2  1.5  1.5   0.514%   0.913%   0.477%   3.729%   0.294%   7.133%   0.044%   0.366%   2.961%   0.335%
    4    4.2  1.5  1.5   0.702%   7.836%  13.016%  14.639%   3.445%   0.990%   0.502%   0.625%   0.071%   0.400%
    5    5.2  1.5  1.5   0.240%  11.067%   9.508%   0.168%   1.519%   0.051%   0.310%   0.323%   0.115%   0.570%
    6    6.2  1.5  1.5   5.269%   5.437%  13.166%   8.322%  18.533%   0.499%   0.128%   0.036%   0.026%   0.424%
    7    7.2  1.5  1.5   0.000%   0.000%   0.000%   0.000%   0.000%   0.000%   0.525%  21.173%  10.797%   2.051%
    8    8.2  1.5  1.5   0.000%   0.000%   0.000%   0.000%   0.000%   0.000%   5.712%  31.769%   8.239%   0.879%
    9    9.2  1.5  1.5   0.000%   0.000%   0.000%   0.000%   0.000%   0.000%   4.539%   2.946%   9.619%   5.932%
   10    1.2  1.5  0.5   0.000%   0.000%   0.000%   0.000%   0.000%   0.000%   0.000%   0.000%   0.000%   0.000%
   11    2.2  1.5  0.5   0.228%  17.597%   5.132%   0.673%   3.323%   0.111%   0.073%   1.094%   0.117%   0.366%
   12    3.2  1.5  0.5   1.252%   3.117%  10.071%   1.523%  21.794%   0.626%   0.360%   0.172%   0.033%   1.200%
   13    4.2  1.5  0.5   0.109%   9.512%   2.963%   0.115%   1.542%   0.047%   0.954%   1.593%   0.053%   0.472%
   14    5.2  1.5  0.5  11.323%   1.314%   3.270%   0.298%   1.072%  34.011%   0.032%   0.127%   0.511%   0.024%
   15    6.2  1.5  0.5   7.700%   0.376%   0.010%  10.004%   0.081%   2.206%   0.038%   0.886%   1.758%   0.334%
   16    7.2  1.5  0.5   0.000%   0.000%   0.000%   0.000%   0.000%   0.000%   3.254%   5.190%   8.577%   5.229%
   17    8.2  1.5  0.5   0.000%   0.000%   0.000%   0.000%   0.000%   0.000%   5.672%   4.553%   5.466%  14.574%
   18    9.2  1.5  0.5   0.000%   0.000%   0.000%   0.000%   0.000%   0.000%   0.935%   3.753%  17.059%   1.598%
   19    1.2  1.5 -0.5   0.000%   0.000%   0.000%   0.000%   0.000%   0.000%   0.000%   0.000%   0.000%   0.000%
   20    2.2  1.5 -0.5  17.597%   0.228%   0.673%   5.132%   0.111%   3.323%   1.094%   0.073%   0.366%   0.117%
   21    3.2  1.5 -0.5   3.117%   1.252%   1.523%  10.071%   0.626%  21.794%   0.172%   0.360%   1.200%   0.033%
   22    4.2  1.5 -0.5   9.512%   0.109%   0.115%   2.963%   0.047%   1.542%   1.593%   0.954%   0.472%   0.053%
   23    5.2  1.5 -0.5   1.314%  11.323%   0.298%   3.270%  34.011%   1.072%   0.127%   0.032%   0.024%   0.511%
   24    6.2  1.5 -0.5   0.376%   7.700%  10.004%   0.010%   2.206%   0.081%   0.886%   0.038%   0.334%   1.758%
   25    7.2  1.5 -0.5   0.000%   0.000%   0.000%   0.000%   0.000%   0.000%   5.190%   3.254%   5.229%   8.577%
   26    8.2  1.5 -0.5   0.000%   0.000%   0.000%   0.000%   0.000%   0.000%   4.553%   5.672%  14.574%   5.466%
   27    9.2  1.5 -0.5   0.000%   0.000%   0.000%   0.000%   0.000%   0.000%   3.753%   0.935%   1.598%  17.059%
   28    1.2  1.5 -1.5   0.000%   0.000%   0.000%   0.000%   0.000%   0.000%   0.000%   0.000%   0.000%   0.000%
   29    2.2  1.5 -1.5   3.281%  12.212%   0.458%   2.458%   0.872%   1.849%   2.158%   0.151%   0.046%   0.157%
   30    3.2  1.5 -1.5   0.913%   0.514%   3.729%   0.477%   7.133%   0.294%   0.366%   0.044%   0.335%   2.961%
   31    4.2  1.5 -1.5   7.836%   0.702%  14.639%  13.016%   0.990%   3.445%   0.625%   0.502%   0.400%   0.071%
   32    5.2  1.5 -1.5  11.067%   0.240%   0.168%   9.508%   0.051%   1.519%   0.323%   0.310%   0.570%   0.115%
   33    6.2  1.5 -1.5   5.437%   5.269%   8.322%  13.166%   0.499%  18.533%   0.036%   0.128%   0.424%   0.026%
   34    7.2  1.5 -1.5   0.000%   0.000%   0.000%   0.000%   0.000%   0.000%  21.173%   0.525%   2.051%  10.797%
   35    8.2  1.5 -1.5   0.000%   0.000%   0.000%   0.000%   0.000%   0.000%  31.769%   5.712%   0.879%   8.239%
   36    9.2  1.5 -1.5   0.000%   0.000%   0.000%   0.000%   0.000%   0.000%   2.946%   4.539%   5.932%   9.619%
   37    1.2  0.5  0.5   0.000%   0.000%   0.000%   0.000%   0.000%   0.000%   0.000%   0.001%   0.002%   0.000%
   38    2.2  0.5  0.5   0.000%   0.000%   0.000%   0.000%   0.000%   0.000%   0.001%   0.000%   0.000%   0.001%
   39    3.2  0.5  0.5   0.000%   0.000%   0.000%   0.000%   0.000%   0.000%   0.000%   0.000%   0.000%   0.000%
   40    4.2  0.5  0.5   0.000%   0.000%   0.000%   0.000%   0.000%   0.000%   0.000%   0.002%   0.000%   0.000%
   41    5.2  0.5  0.5   0.000%   0.000%   0.000%   0.000%   0.000%   0.000%   0.000%   0.001%   0.001%   0.000%
   42    6.2  0.5  0.5   0.000%   0.000%   0.000%   0.000%   0.000%   0.000%   0.000%   0.000%   0.000%   0.000%
   43    7.2  0.5  0.5   0.000%   0.000%   0.000%   0.000%   0.000%   0.000%   0.000%   0.000%   0.000%   0.000%
   44    8.2  0.5  0.5   0.000%   0.000%   0.000%   0.000%   0.000%   0.000%   0.000%   0.000%   0.000%   0.000%
   45    1.2  0.5 -0.5   0.000%   0.000%   0.000%   0.000%   0.000%   0.000%   0.001%   0.000%   0.000%   0.002%
   46    2.2  0.5 -0.5   0.000%   0.000%   0.000%   0.000%   0.000%   0.000%   0.000%   0.001%   0.001%   0.000%
   47    3.2  0.5 -0.5   0.000%   0.000%   0.000%   0.000%   0.000%   0.000%   0.000%   0.000%   0.000%   0.000%
   48    4.2  0.5 -0.5   0.000%   0.000%   0.000%   0.000%   0.000%   0.000%   0.002%   0.000%   0.000%   0.000%
   49    5.2  0.5 -0.5   0.000%   0.000%   0.000%   0.000%   0.000%   0.000%   0.001%   0.000%   0.000%   0.001%
   50    6.2  0.5 -0.5   0.000%   0.000%   0.000%   0.000%   0.000%   0.000%   0.000%   0.000%   0.000%   0.000%
   51    7.2  0.5 -0.5   0.000%   0.000%   0.000%   0.000%   0.000%   0.000%   0.000%   0.000%   0.000%   0.000%
   52    8.2  0.5 -0.5   0.000%   0.000%   0.000%   0.000%   0.000%   0.000%   0.000%   0.000%   0.000%   0.000%

   Nr   State  S   Sz      51       52

    1    1.2  1.5  1.5   0.000%   0.000%
    2    2.2  1.5  1.5   0.108%   0.466%
    3    3.2  1.5  1.5   0.176%   0.134%
    4    4.2  1.5  1.5   0.190%   0.085%
    5    5.2  1.5  1.5   2.351%   1.456%
    6    6.2  1.5  1.5   0.151%   0.095%
    7    7.2  1.5  1.5   3.371%   6.549%
    8    8.2  1.5  1.5   1.132%   1.118%
    9    9.2  1.5  1.5  13.252%   5.429%
   10    1.2  1.5  0.5   0.000%   0.000%
   11    2.2  1.5  0.5   1.069%   0.180%
   12    3.2  1.5  0.5   0.133%   0.069%
   13    4.2  1.5  0.5   0.207%   0.831%
   14    5.2  1.5  0.5   0.069%   0.097%
   15    6.2  1.5  0.5   0.554%   1.554%
   16    7.2  1.5  0.5  22.077%   1.228%
   17    8.2  1.5  0.5   5.729%   5.177%
   18    9.2  1.5  0.5   5.876%  19.085%
   19    1.2  1.5 -0.5   0.000%   0.000%
   20    2.2  1.5 -0.5   0.180%   1.069%
   21    3.2  1.5 -0.5   0.069%   0.133%
   22    4.2  1.5 -0.5   0.831%   0.207%
   23    5.2  1.5 -0.5   0.097%   0.069%
   24    6.2  1.5 -0.5   1.554%   0.554%
   25    7.2  1.5 -0.5   1.228%  22.077%
   26    8.2  1.5 -0.5   5.177%   5.729%
   27    9.2  1.5 -0.5  19.085%   5.876%
   28    1.2  1.5 -1.5   0.000%   0.000%
   29    2.2  1.5 -1.5   0.466%   0.108%
   30    3.2  1.5 -1.5   0.134%   0.176%
   31    4.2  1.5 -1.5   0.085%   0.190%
   32    5.2  1.5 -1.5   1.456%   2.351%
   33    6.2  1.5 -1.5   0.095%   0.151%
   34    7.2  1.5 -1.5   6.549%   3.371%
   35    8.2  1.5 -1.5   1.118%   1.132%
   36    9.2  1.5 -1.5   5.429%  13.252%
   37    1.2  0.5  0.5   0.000%   0.000%
   38    2.2  0.5  0.5   0.001%   0.000%
   39    3.2  0.5  0.5   0.002%   0.001%
   40    4.2  0.5  0.5   0.000%   0.000%
   41    5.2  0.5  0.5   0.000%   0.001%
   42    6.2  0.5  0.5   0.000%   0.000%
   43    7.2  0.5  0.5   0.000%   0.000%
   44    8.2  0.5  0.5   0.000%   0.000%
   45    1.2  0.5 -0.5   0.000%   0.000%
   46    2.2  0.5 -0.5   0.000%   0.001%
   47    3.2  0.5 -0.5   0.001%   0.002%
   48    4.2  0.5 -0.5   0.000%   0.000%
   49    5.2  0.5 -0.5   0.001%   0.000%
   50    6.2  0.5 -0.5   0.000%   0.000%
   51    7.2  0.5 -0.5   0.000%   0.000%
   52    8.2  0.5 -0.5   0.000%   0.000%


 Property matrices transformed in SO basis (not sym. adapted)
 ============================================================

 No matrix element <i|DMX|i> larger than 5E-7
 No matrix element <i|DMX|1> larger than 5E-7

 No matrix element <i|DMY|i> larger than 5E-7
 No matrix element <i|DMY|1> larger than 5E-7

 No matrix element <i|DMZ|i> larger than 5E-7
 No matrix element <i|DMZ|1> larger than 5E-7


 **********************************************************************************************************************************
 DATASETS  * FILE   NREC   LENGTH (MB)   RECORD NAMES
              1      24     7016.74       500      610      700      900      950      970     1000      129      960     1700   
                                          VAR    BASINP    GEOM    SYMINP    ZMAT    AOBASIS   BASIS     P2S    ABASIS    OPER   
                                         1101     1401     1411     1412     1650     1100     1400     1410     1200     1210   
                                          SR      EKINR    POTR     PVPR    MOLCAS      S      EKIN      POT      H0       H01  
                                         1080     1600     1380     1700(1)
                                         AOSYM     SMH     JKOP     OPER   

              2       7     6073.97       700     1000      520     2100     2140     5302     5102   
                                         GEOM     BASIS   MCVARS     RHF     MCSCF    MRCI     MRCI   

 PROGRAMS   *        TOTAL        CI     LSINT        CI        CI     MULTI   RHF-SCF       INT
 CPU TIMES  *    158210.25 133409.42     64.37  11742.74  12965.61     12.80      1.80     13.24
 REAL TIME  *    160230.83 SEC
 DISK USED  *         6.07 GB (local),       96.92 GB (total)
 SF USED    *        31.13 GB
 GA USED    *         0.00 MB       (max)       0.00 MB       (current)
 **********************************************************************************************************************************

 CI/USERDEF energy=  -2259.829441754123

              CI              CI           MULTI         RHF-SCF
  -2259.97446924  -2259.77865119  -2259.00798711  -2259.10129154
 **********************************************************************************************************************************
 Molpro calculation terminated with 1 warning(s)
