
 Working directory              : /wrk/irikura/molpro.nlncyQfMFa/
 Global scratch directory       : /wrk/irikura/molpro.nlncyQfMFa/
 Wavefunction directory         : /home/irikura/wfu/
 Main file repository           : /wrk/irikura/molpro.nlncyQfMFa/

 id        : nistki

 Nodes            nprocs
 pn112695.nist.gov   12
 GA implementation: MPI file
 GA implementation (serial work in mppx): MPI file

 Using customized tuning parameters: mindgm=1; mindgv=20; mindgc=4; mindgr=1; noblas=0; minvec=7
 default implementation of scratch files=sf  


 Variables initialized (1040), CPU time= 0.01 sec
 ***,As SO-CI
                                                                                 ! extra spdf diffuse functions
 memory,1500,M;
 
 gprint,orbitals,civector;
 gprint,basis
 
 symmetry,xyz
 geometry={As};
 
 basis={
 ecp,as,ECP10MDF;
 spdfghi,as,aug-cc-pwCV5Z-PP;C; spdf,1,even,nprim=1,ratio=3.0;
 }
 
 {rhf;wf,charge=0,sym=2,spin=3}
 
 PAR=2                                                                           ! parity even (1) or odd (2)
 NQ=1
 ND=8
 
 {multi
     closed,6,3
     occ,7,9
     wf,charge=0,sym=PAR,spin=3;state,NQ;
     wf,charge=0,sym=PAR,spin=1;state,ND;
     expec2,lxx,lyy,lzz;
 }
 table, energy, ll
 title, Energies and &lt;L**2&gt; values
 
 core,0,0
 
 {ci;wf,sym=PAR,spin=3;state,NQ; save,5302.2}
 if NQ.LT.2 then
 hlsdiag(1) = energd
 else
 hlsdiag = energd4
 endif
 
 {ci;wf,sym=PAR,spin=1;state,ND; save,5102.2}
 hlsdiag(NQ+1) = energd4
 
 table,hlsdiag
 
 {ci;hlsmat,ecp,5302.2,5102.2;print,vls=0,hls=0}                                 !compute and diagonalize SO matrix
 Commands initialized (846), CPU time= 0.02 sec, 717 directives.
 Default parameters read. Elapsed time= 0.13 sec

 Checking input...
 Passed
1


                                         ***  PROGRAM SYSTEM MOLPRO  ***
                                       Copyright, TTI GmbH Stuttgart, 2015
                                    Version 2023.2 linked Fri Sep 22 03:27:09 2023


 **********************************************************************************************************************************
 LABEL *   As SO-CI                                                                                                                                                      
  (32 PROC) 64 bit mpp version                                                           DATE: 06-Aug-24          TIME: 11:18:01  
 **********************************************************************************************************************************

 SHA1:             3c61bfe44d37c8635c785372c339f5cbdd4e4b59
 **********************************************************************************************************************************

 Memory per process:      1500 MW
 Total memory per node:  18000 MW

 GA preallocation disabled
 GA check disabled

 Variable memory set to 1500.0 MW



 ZSYMEL=XYZ

 SETTING BASIS          =    USERDEF


 Recomputing integrals since basis changed


 Using spherical harmonics

 Library entry As   ECP ECP10MDF                 selected for group  1
 Library entry AS     S AUG-CC-PWCV5Z-PP     selected for orbital group  1
 Even tempered As S diffuse               selected for group 1    nprim= 1    centre=  0.010    ratio= 3.000    dratio= 1.000
 Library entry AS     P AUG-CC-PWCV5Z-PP     selected for orbital group  1
 Even tempered As P diffuse               selected for group 1    nprim= 1    centre=  0.007    ratio= 3.000    dratio= 1.000
 Library entry AS     D AUG-CC-PWCV5Z-PP     selected for orbital group  1
 Even tempered As D diffuse               selected for group 1    nprim= 1    centre=  0.014    ratio= 3.000    dratio= 1.000
 Library entry AS     F AUG-CC-PWCV5Z-PP     selected for orbital group  1
 Even tempered As F diffuse               selected for group 1    nprim= 1    centre=  0.028    ratio= 3.000    dratio= 1.000
 Library entry AS     G AUG-CC-PWCV5Z-PP     selected for orbital group  1
 Library entry AS     H AUG-CC-PWCV5Z-PP     selected for orbital group  1
 Library entry AS     I AUG-CC-PWCV5Z-PP     selected for orbital group  1


 PROGRAM * SEWARD (Integral evaluation for generally contracted gaussian basis sets)     Author: Roland Lindh, 1990

 Geometry written to block  1 of record 700

 Orientation using atomic masses  
 Molecule type: Atom
 User-specified symmetry elements: XYZ
 Symmetry elements: XYZ
 Rotational constants:       0.0000000      0.0000000      0.0000000 GHz  (calculated with average atomic masses)

 Point group  Ci  



 ATOMIC COORDINATES

 NR  ATOM    CHARGE       X              Y              Z

   1  AS     23.00    0.000000000    0.000000000    0.000000000


          AS  CORE POTENTIAL

          g POTENTIAL

 POWERS             2
 EXPONENTIALS   1.000000    
 COEFFICIENTS   0.000000    

          s - g POTENTIAL

 POWERS             2              2
 EXPONENTIALS   28.72512       6.767681    
 COEFFICIENTS   370.1140       9.349296    

          p - g POTENTIAL

 POWERS             2              2              2              2
 EXPONENTIALS   45.33106       44.76741       19.53909       18.97347    
 COEFFICIENTS   99.14210       198.3079       28.38307       56.87146    

          d - g POTENTIAL

 POWERS             2              2              2              2              2              2
 EXPONENTIALS   51.05715       50.15134       16.10894       14.67222       3.851927       3.813502    
 COEFFICIENTS  -18.48514      -28.11353      -1.223895      -1.345765      0.1017570      0.1703380    

          f - g POTENTIAL

 POWERS             2              2
 EXPONENTIALS   11.94058       17.76116    
 COEFFICIENTS -0.7752300      -2.157259    


          AS  SPIN-ORBIT POTENTIAL

          p POTENTIAL

 POWERS             2              2              2              2
 EXPONENTIALS   45.33106       44.76741       19.53909       18.97347    
 COEFFICIENTS  -198.2842       198.3079      -56.76615       56.87146    

          d POTENTIAL

 POWERS             2              2              2              2              2              2
 EXPONENTIALS   51.05715       50.15134       16.10894       14.67222       3.851927       3.813502    
 COEFFICIENTS   18.48514      -18.74235       1.223895     -0.8971770     -0.1017570      0.1135580    

          f POTENTIAL

 POWERS             2              2
 EXPONENTIALS   11.94058       17.76116    
 COEFFICIENTS  0.5168200      -1.078629    


 BASIS DATA

   Nr Sym  Nuc  Type         Exponents   Contraction coefficients

    1.1 Ag    1  1s       72721.400000     0.000019    0.000000    0.000000    0.000000    0.000000    0.000000
                                           0.000000
    2.1 Ag                10918.700000     0.000147    0.000000    0.000000    0.000000    0.000000    0.000000
                                           0.000000
    3.1 Ag                 2483.490000     0.000731    0.000000    0.000000    0.000000    0.000000    0.000000
                                           0.000000
    4.1 Ag                  700.283000     0.002577    0.000000    0.000000    0.000000    0.000000    0.000000
                                           0.000000
    5.1 Ag                  220.866000     0.005901    0.000000    0.000000    0.000000    0.000000    0.000000
                                           0.000000
    6.1 Ag                   54.862400    -0.010895    0.000000    0.000000    0.000000    0.000000    0.000000
                                           0.000000
    7.1 Ag                   34.271200     0.188614    1.000000    0.000000    0.000000    0.000000    0.000000
                                           0.000000
                             21.412200    -0.332600    0.000000    0.000000    0.000000    0.000000    0.000000
                                           0.000000
                             11.209000    -0.223693    0.000000    0.000000    0.000000    0.000000    0.000000
                                           0.000000
                              4.709030     0.272423    0.000000    0.000000    0.000000    0.000000    0.000000
                                           0.000000
                              2.628020     0.595157    0.000000    0.000000    0.000000    0.000000    0.000000
                                           0.000000
                              1.377300     0.353144    0.000000    1.000000    0.000000    0.000000    0.000000
                                           0.000000
                              0.619687     0.038141    0.000000    0.000000    1.000000    0.000000    0.000000
                                           0.000000
                              0.335222    -0.003620    0.000000    0.000000    0.000000    1.000000    0.000000
                                           0.000000
                              0.158124     0.001273    0.000000    0.000000    0.000000    0.000000    1.000000
                                           0.000000
                              0.072326    -0.000142    0.000000    0.000000    0.000000    0.000000    0.000000
                                           1.000000
    8.1 Ag    1  1s          20.482300     1.000000
    9.1 Ag    1  1s          10.645300     1.000000
   10.1 Ag    1  1s           5.532700     1.000000
   11.1 Ag    1  1s           2.875500     1.000000
   12.1 Ag    1  1s           0.029200     1.000000
   13.1 Ag    1  1s           0.009733     1.000000
   14.1 Ag    1  3d0       1074.560000     0.000078
                            326.213000     0.000815
                            128.470000     0.005491
                             59.391600     0.026234
                             29.713600     0.069497
                             15.263300     0.146848
                              8.036260     0.234594
                              4.245850     0.288383
                              2.228400     0.276233
                              1.149910     0.188092
                              0.567315     0.073856
                              0.246812     0.010389
   15.1 Ag    1  3d2-      1074.560000     0.000078
                            326.213000     0.000815
                            128.470000     0.005491
                             59.391600     0.026234
                             29.713600     0.069497
                             15.263300     0.146848
                              8.036260     0.234594
                              4.245850     0.288383
                              2.228400     0.276233
                              1.149910     0.188092
                              0.567315     0.073856
                              0.246812     0.010389
   16.1 Ag    1  3d1+      1074.560000     0.000078
                            326.213000     0.000815
                            128.470000     0.005491
                             59.391600     0.026234
                             29.713600     0.069497
                             15.263300     0.146848
                              8.036260     0.234594
                              4.245850     0.288383
                              2.228400     0.276233
                              1.149910     0.188092
                              0.567315     0.073856
                              0.246812     0.010389
   17.1 Ag    1  3d2+      1074.560000     0.000078
                            326.213000     0.000815
                            128.470000     0.005491
                             59.391600     0.026234
                             29.713600     0.069497
                             15.263300     0.146848
                              8.036260     0.234594
                              4.245850     0.288383
                              2.228400     0.276233
                              1.149910     0.188092
                              0.567315     0.073856
                              0.246812     0.010389
   18.1 Ag    1  3d1-      1074.560000     0.000078
                            326.213000     0.000815
                            128.470000     0.005491
                             59.391600     0.026234
                             29.713600     0.069497
                             15.263300     0.146848
                              8.036260     0.234594
                              4.245850     0.288383
                              2.228400     0.276233
                              1.149910     0.188092
                              0.567315     0.073856
                              0.246812     0.010389
   19.1 Ag    1  3d0       1074.560000     0.000000
                            326.213000     0.000000
                            128.470000     0.000000
                             59.391600     0.000000
                             29.713600     0.000000
                             15.263300     0.000000
                              8.036260     0.000000
                              4.245850     0.000000
                              2.228400     0.000000
                              1.149910     1.000000
                              0.567315     0.000000
                              0.246812     0.000000
   20.1 Ag    1  3d2-      1074.560000     0.000000
                            326.213000     0.000000
                            128.470000     0.000000
                             59.391600     0.000000
                             29.713600     0.000000
                             15.263300     0.000000
                              8.036260     0.000000
                              4.245850     0.000000
                              2.228400     0.000000
                              1.149910     1.000000
                              0.567315     0.000000
                              0.246812     0.000000
   21.1 Ag    1  3d1+      1074.560000     0.000000
                            326.213000     0.000000
                            128.470000     0.000000
                             59.391600     0.000000
                             29.713600     0.000000
                             15.263300     0.000000
                              8.036260     0.000000
                              4.245850     0.000000
                              2.228400     0.000000
                              1.149910     1.000000
                              0.567315     0.000000
                              0.246812     0.000000
   22.1 Ag    1  3d2+      1074.560000     0.000000
                            326.213000     0.000000
                            128.470000     0.000000
                             59.391600     0.000000
                             29.713600     0.000000
                             15.263300     0.000000
                              8.036260     0.000000
                              4.245850     0.000000
                              2.228400     0.000000
                              1.149910     1.000000
                              0.567315     0.000000
                              0.246812     0.000000
   23.1 Ag    1  3d1-      1074.560000     0.000000
                            326.213000     0.000000
                            128.470000     0.000000
                             59.391600     0.000000
                             29.713600     0.000000
                             15.263300     0.000000
                              8.036260     0.000000
                              4.245850     0.000000
                              2.228400     0.000000
                              1.149910     1.000000
                              0.567315     0.000000
                              0.246812     0.000000
   24.1 Ag    1  3d0       1074.560000     0.000000
                            326.213000     0.000000
                            128.470000     0.000000
                             59.391600     0.000000
                             29.713600     0.000000
                             15.263300     0.000000
                              8.036260     0.000000
                              4.245850     0.000000
                              2.228400     0.000000
                              1.149910     0.000000
                              0.567315     1.000000
                              0.246812     0.000000
   25.1 Ag    1  3d2-      1074.560000     0.000000
                            326.213000     0.000000
                            128.470000     0.000000
                             59.391600     0.000000
                             29.713600     0.000000
                             15.263300     0.000000
                              8.036260     0.000000
                              4.245850     0.000000
                              2.228400     0.000000
                              1.149910     0.000000
                              0.567315     1.000000
                              0.246812     0.000000
   26.1 Ag    1  3d1+      1074.560000     0.000000
                            326.213000     0.000000
                            128.470000     0.000000
                             59.391600     0.000000
                             29.713600     0.000000
                             15.263300     0.000000
                              8.036260     0.000000
                              4.245850     0.000000
                              2.228400     0.000000
                              1.149910     0.000000
                              0.567315     1.000000
                              0.246812     0.000000
   27.1 Ag    1  3d2+      1074.560000     0.000000
                            326.213000     0.000000
                            128.470000     0.000000
                             59.391600     0.000000
                             29.713600     0.000000
                             15.263300     0.000000
                              8.036260     0.000000
                              4.245850     0.000000
                              2.228400     0.000000
                              1.149910     0.000000
                              0.567315     1.000000
                              0.246812     0.000000
   28.1 Ag    1  3d1-      1074.560000     0.000000
                            326.213000     0.000000
                            128.470000     0.000000
                             59.391600     0.000000
                             29.713600     0.000000
                             15.263300     0.000000
                              8.036260     0.000000
                              4.245850     0.000000
                              2.228400     0.000000
                              1.149910     0.000000
                              0.567315     1.000000
                              0.246812     0.000000
   29.1 Ag    1  3d0       1074.560000     0.000000
                            326.213000     0.000000
                            128.470000     0.000000
                             59.391600     0.000000
                             29.713600     0.000000
                             15.263300     0.000000
                              8.036260     0.000000
                              4.245850     0.000000
                              2.228400     0.000000
                              1.149910     0.000000
                              0.567315     0.000000
                              0.246812     1.000000
   30.1 Ag    1  3d2-      1074.560000     0.000000
                            326.213000     0.000000
                            128.470000     0.000000
                             59.391600     0.000000
                             29.713600     0.000000
                             15.263300     0.000000
                              8.036260     0.000000
                              4.245850     0.000000
                              2.228400     0.000000
                              1.149910     0.000000
                              0.567315     0.000000
                              0.246812     1.000000
   31.1 Ag    1  3d1+      1074.560000     0.000000
                            326.213000     0.000000
                            128.470000     0.000000
                             59.391600     0.000000
                             29.713600     0.000000
                             15.263300     0.000000
                              8.036260     0.000000
                              4.245850     0.000000
                              2.228400     0.000000
                              1.149910     0.000000
                              0.567315     0.000000
                              0.246812     1.000000
   32.1 Ag    1  3d2+      1074.560000     0.000000
                            326.213000     0.000000
                            128.470000     0.000000
                             59.391600     0.000000
                             29.713600     0.000000
                             15.263300     0.000000
                              8.036260     0.000000
                              4.245850     0.000000
                              2.228400     0.000000
                              1.149910     0.000000
                              0.567315     0.000000
                              0.246812     1.000000
   33.1 Ag    1  3d1-      1074.560000     0.000000
                            326.213000     0.000000
                            128.470000     0.000000
                             59.391600     0.000000
                             29.713600     0.000000
                             15.263300     0.000000
                              8.036260     0.000000
                              4.245850     0.000000
                              2.228400     0.000000
                              1.149910     0.000000
                              0.567315     0.000000
                              0.246812     1.000000
   34.1 Ag    1  3d0          0.104500     1.000000
   35.1 Ag    1  3d2-         0.104500     1.000000
   36.1 Ag    1  3d1+         0.104500     1.000000
   37.1 Ag    1  3d2+         0.104500     1.000000
   38.1 Ag    1  3d1-         0.104500     1.000000
   39.1 Ag    1  3d0         12.406000     1.000000
   40.1 Ag    1  3d2-        12.406000     1.000000
   41.1 Ag    1  3d1+        12.406000     1.000000
   42.1 Ag    1  3d2+        12.406000     1.000000
   43.1 Ag    1  3d1-        12.406000     1.000000
   44.1 Ag    1  3d0          7.208700     1.000000
   45.1 Ag    1  3d2-         7.208700     1.000000
   46.1 Ag    1  3d1+         7.208700     1.000000
   47.1 Ag    1  3d2+         7.208700     1.000000
   48.1 Ag    1  3d1-         7.208700     1.000000
   49.1 Ag    1  3d0          4.188700     1.000000
   50.1 Ag    1  3d2-         4.188700     1.000000
   51.1 Ag    1  3d1+         4.188700     1.000000
   52.1 Ag    1  3d2+         4.188700     1.000000
   53.1 Ag    1  3d1-         4.188700     1.000000
   54.1 Ag    1  3d0          2.433900     1.000000
   55.1 Ag    1  3d2-         2.433900     1.000000
   56.1 Ag    1  3d1+         2.433900     1.000000
   57.1 Ag    1  3d2+         2.433900     1.000000
   58.1 Ag    1  3d1-         2.433900     1.000000
   59.1 Ag    1  3d0          0.040700     1.000000
   60.1 Ag    1  3d2-         0.040700     1.000000
   61.1 Ag    1  3d1+         0.040700     1.000000
   62.1 Ag    1  3d2+         0.040700     1.000000
   63.1 Ag    1  3d1-         0.040700     1.000000
   64.1 Ag    1  3d0          0.013567     1.000000
   65.1 Ag    1  3d2-         0.013567     1.000000
   66.1 Ag    1  3d1+         0.013567     1.000000
   67.1 Ag    1  3d2+         0.013567     1.000000
   68.1 Ag    1  3d1-         0.013567     1.000000
   69.1 Ag    1  5g0          0.806000     1.000000
   70.1 Ag    1  5g2-         0.806000     1.000000
   71.1 Ag    1  5g1+         0.806000     1.000000
   72.1 Ag    1  5g4+         0.806000     1.000000
   73.1 Ag    1  5g1-         0.806000     1.000000
   74.1 Ag    1  5g2+         0.806000     1.000000
   75.1 Ag    1  5g4-         0.806000     1.000000
   76.1 Ag    1  5g3+         0.806000     1.000000
   77.1 Ag    1  5g3-         0.806000     1.000000
   78.1 Ag    1  5g0          0.378100     1.000000
   79.1 Ag    1  5g2-         0.378100     1.000000
   80.1 Ag    1  5g1+         0.378100     1.000000
   81.1 Ag    1  5g4+         0.378100     1.000000
   82.1 Ag    1  5g1-         0.378100     1.000000
   83.1 Ag    1  5g2+         0.378100     1.000000
   84.1 Ag    1  5g4-         0.378100     1.000000
   85.1 Ag    1  5g3+         0.378100     1.000000
   86.1 Ag    1  5g3-         0.378100     1.000000
   87.1 Ag    1  5g0         11.788400     1.000000
   88.1 Ag    1  5g2-        11.788400     1.000000
   89.1 Ag    1  5g1+        11.788400     1.000000
   90.1 Ag    1  5g4+        11.788400     1.000000
   91.1 Ag    1  5g1-        11.788400     1.000000
   92.1 Ag    1  5g2+        11.788400     1.000000
   93.1 Ag    1  5g4-        11.788400     1.000000
   94.1 Ag    1  5g3+        11.788400     1.000000
   95.1 Ag    1  5g3-        11.788400     1.000000
   96.1 Ag    1  5g0          4.842800     1.000000
   97.1 Ag    1  5g2-         4.842800     1.000000
   98.1 Ag    1  5g1+         4.842800     1.000000
   99.1 Ag    1  5g4+         4.842800     1.000000
  100.1 Ag    1  5g1-         4.842800     1.000000
  101.1 Ag    1  5g2+         4.842800     1.000000
  102.1 Ag    1  5g4-         4.842800     1.000000
  103.1 Ag    1  5g3+         4.842800     1.000000
  104.1 Ag    1  5g3-         4.842800     1.000000
  105.1 Ag    1  5g0          1.989500     1.000000
  106.1 Ag    1  5g2-         1.989500     1.000000
  107.1 Ag    1  5g1+         1.989500     1.000000
  108.1 Ag    1  5g4+         1.989500     1.000000
  109.1 Ag    1  5g1-         1.989500     1.000000
  110.1 Ag    1  5g2+         1.989500     1.000000
  111.1 Ag    1  5g4-         1.989500     1.000000
  112.1 Ag    1  5g3+         1.989500     1.000000
  113.1 Ag    1  5g3-         1.989500     1.000000
  114.1 Ag    1  5g0          0.162500     1.000000
  115.1 Ag    1  5g2-         0.162500     1.000000
  116.1 Ag    1  5g1+         0.162500     1.000000
  117.1 Ag    1  5g4+         0.162500     1.000000
  118.1 Ag    1  5g1-         0.162500     1.000000
  119.1 Ag    1  5g2+         0.162500     1.000000
  120.1 Ag    1  5g4-         0.162500     1.000000
  121.1 Ag    1  5g3+         0.162500     1.000000
  122.1 Ag    1  5g3-         0.162500     1.000000
  123.1 Ag    1  7i6+         2.257100     1.000000
  124.1 Ag    1  7i2-         2.257100     1.000000
  125.1 Ag    1  7i5+         2.257100     1.000000
  126.1 Ag    1  7i4+         2.257100     1.000000
  127.1 Ag    1  7i5-         2.257100     1.000000
  128.1 Ag    1  7i2+         2.257100     1.000000
  129.1 Ag    1  7i6-         2.257100     1.000000
  130.1 Ag    1  7i3+         2.257100     1.000000
  131.1 Ag    1  7i4-         2.257100     1.000000
  132.1 Ag    1  7i0          2.257100     1.000000
  133.1 Ag    1  7i3-         2.257100     1.000000
  134.1 Ag    1  7i1-         2.257100     1.000000
  135.1 Ag    1  7i1+         2.257100     1.000000
    1.2 Au    1  2px       1376.840000     0.000055
                            323.221000     0.000390
                             72.904500     0.006136
                             29.835800    -0.040129
                             18.602800    -0.064678
                              7.479220     0.204379
                              4.073270     0.402982
                              2.157420     0.371723
                              1.114570     0.148516
                              0.510021     0.015123
                              0.239733    -0.000109
                              0.110571     0.000286
                              0.049600    -0.000076
    2.2 Au    1  2py       1376.840000     0.000055
                            323.221000     0.000390
                             72.904500     0.006136
                             29.835800    -0.040129
                             18.602800    -0.064678
                              7.479220     0.204379
                              4.073270     0.402982
                              2.157420     0.371723
                              1.114570     0.148516
                              0.510021     0.015123
                              0.239733    -0.000109
                              0.110571     0.000286
                              0.049600    -0.000076
    3.2 Au    1  2pz       1376.840000     0.000055
                            323.221000     0.000390
                             72.904500     0.006136
                             29.835800    -0.040129
                             18.602800    -0.064678
                              7.479220     0.204379
                              4.073270     0.402982
                              2.157420     0.371723
                              1.114570     0.148516
                              0.510021     0.015123
                              0.239733    -0.000109
                              0.110571     0.000286
                              0.049600    -0.000076
    4.2 Au    1  2px       1376.840000     0.000000
                            323.221000     0.000000
                             72.904500     0.000000
                             29.835800     1.000000
                             18.602800     0.000000
                              7.479220     0.000000
                              4.073270     0.000000
                              2.157420     0.000000
                              1.114570     0.000000
                              0.510021     0.000000
                              0.239733     0.000000
                              0.110571     0.000000
                              0.049600     0.000000
    5.2 Au    1  2py       1376.840000     0.000000
                            323.221000     0.000000
                             72.904500     0.000000
                             29.835800     1.000000
                             18.602800     0.000000
                              7.479220     0.000000
                              4.073270     0.000000
                              2.157420     0.000000
                              1.114570     0.000000
                              0.510021     0.000000
                              0.239733     0.000000
                              0.110571     0.000000
                              0.049600     0.000000
    6.2 Au    1  2pz       1376.840000     0.000000
                            323.221000     0.000000
                             72.904500     0.000000
                             29.835800     1.000000
                             18.602800     0.000000
                              7.479220     0.000000
                              4.073270     0.000000
                              2.157420     0.000000
                              1.114570     0.000000
                              0.510021     0.000000
                              0.239733     0.000000
                              0.110571     0.000000
                              0.049600     0.000000
    7.2 Au    1  2px       1376.840000     0.000000
                            323.221000     0.000000
                             72.904500     0.000000
                             29.835800     0.000000
                             18.602800     0.000000
                              7.479220     0.000000
                              4.073270     0.000000
                              2.157420     0.000000
                              1.114570     1.000000
                              0.510021     0.000000
                              0.239733     0.000000
                              0.110571     0.000000
                              0.049600     0.000000
    8.2 Au    1  2py       1376.840000     0.000000
                            323.221000     0.000000
                             72.904500     0.000000
                             29.835800     0.000000
                             18.602800     0.000000
                              7.479220     0.000000
                              4.073270     0.000000
                              2.157420     0.000000
                              1.114570     1.000000
                              0.510021     0.000000
                              0.239733     0.000000
                              0.110571     0.000000
                              0.049600     0.000000
    9.2 Au    1  2pz       1376.840000     0.000000
                            323.221000     0.000000
                             72.904500     0.000000
                             29.835800     0.000000
                             18.602800     0.000000
                              7.479220     0.000000
                              4.073270     0.000000
                              2.157420     0.000000
                              1.114570     1.000000
                              0.510021     0.000000
                              0.239733     0.000000
                              0.110571     0.000000
                              0.049600     0.000000
   10.2 Au    1  2px       1376.840000     0.000000
                            323.221000     0.000000
                             72.904500     0.000000
                             29.835800     0.000000
                             18.602800     0.000000
                              7.479220     0.000000
                              4.073270     0.000000
                              2.157420     0.000000
                              1.114570     0.000000
                              0.510021     1.000000
                              0.239733     0.000000
                              0.110571     0.000000
                              0.049600     0.000000
   11.2 Au    1  2py       1376.840000     0.000000
                            323.221000     0.000000
                             72.904500     0.000000
                             29.835800     0.000000
                             18.602800     0.000000
                              7.479220     0.000000
                              4.073270     0.000000
                              2.157420     0.000000
                              1.114570     0.000000
                              0.510021     1.000000
                              0.239733     0.000000
                              0.110571     0.000000
                              0.049600     0.000000
   12.2 Au    1  2pz       1376.840000     0.000000
                            323.221000     0.000000
                             72.904500     0.000000
                             29.835800     0.000000
                             18.602800     0.000000
                              7.479220     0.000000
                              4.073270     0.000000
                              2.157420     0.000000
                              1.114570     0.000000
                              0.510021     1.000000
                              0.239733     0.000000
                              0.110571     0.000000
                              0.049600     0.000000
   13.2 Au    1  2px       1376.840000     0.000000
                            323.221000     0.000000
                             72.904500     0.000000
                             29.835800     0.000000
                             18.602800     0.000000
                              7.479220     0.000000
                              4.073270     0.000000
                              2.157420     0.000000
                              1.114570     0.000000
                              0.510021     0.000000
                              0.239733     1.000000
                              0.110571     0.000000
                              0.049600     0.000000
   14.2 Au    1  2py       1376.840000     0.000000
                            323.221000     0.000000
                             72.904500     0.000000
                             29.835800     0.000000
                             18.602800     0.000000
                              7.479220     0.000000
                              4.073270     0.000000
                              2.157420     0.000000
                              1.114570     0.000000
                              0.510021     0.000000
                              0.239733     1.000000
                              0.110571     0.000000
                              0.049600     0.000000
   15.2 Au    1  2pz       1376.840000     0.000000
                            323.221000     0.000000
                             72.904500     0.000000
                             29.835800     0.000000
                             18.602800     0.000000
                              7.479220     0.000000
                              4.073270     0.000000
                              2.157420     0.000000
                              1.114570     0.000000
                              0.510021     0.000000
                              0.239733     1.000000
                              0.110571     0.000000
                              0.049600     0.000000
   16.2 Au    1  2px       1376.840000     0.000000
                            323.221000     0.000000
                             72.904500     0.000000
                             29.835800     0.000000
                             18.602800     0.000000
                              7.479220     0.000000
                              4.073270     0.000000
                              2.157420     0.000000
                              1.114570     0.000000
                              0.510021     0.000000
                              0.239733     0.000000
                              0.110571     1.000000
                              0.049600     0.000000
   17.2 Au    1  2py       1376.840000     0.000000
                            323.221000     0.000000
                             72.904500     0.000000
                             29.835800     0.000000
                             18.602800     0.000000
                              7.479220     0.000000
                              4.073270     0.000000
                              2.157420     0.000000
                              1.114570     0.000000
                              0.510021     0.000000
                              0.239733     0.000000
                              0.110571     1.000000
                              0.049600     0.000000
   18.2 Au    1  2pz       1376.840000     0.000000
                            323.221000     0.000000
                             72.904500     0.000000
                             29.835800     0.000000
                             18.602800     0.000000
                              7.479220     0.000000
                              4.073270     0.000000
                              2.157420     0.000000
                              1.114570     0.000000
                              0.510021     0.000000
                              0.239733     0.000000
                              0.110571     1.000000
                              0.049600     0.000000
   19.2 Au    1  2px       1376.840000     0.000000
                            323.221000     0.000000
                             72.904500     0.000000
                             29.835800     0.000000
                             18.602800     0.000000
                              7.479220     0.000000
                              4.073270     0.000000
                              2.157420     0.000000
                              1.114570     0.000000
                              0.510021     0.000000
                              0.239733     0.000000
                              0.110571     0.000000
                              0.049600     1.000000
   20.2 Au    1  2py       1376.840000     0.000000
                            323.221000     0.000000
                             72.904500     0.000000
                             29.835800     0.000000
                             18.602800     0.000000
                              7.479220     0.000000
                              4.073270     0.000000
                              2.157420     0.000000
                              1.114570     0.000000
                              0.510021     0.000000
                              0.239733     0.000000
                              0.110571     0.000000
                              0.049600     1.000000
   21.2 Au    1  2pz       1376.840000     0.000000
                            323.221000     0.000000
                             72.904500     0.000000
                             29.835800     0.000000
                             18.602800     0.000000
                              7.479220     0.000000
                              4.073270     0.000000
                              2.157420     0.000000
                              1.114570     0.000000
                              0.510021     0.000000
                              0.239733     0.000000
                              0.110571     0.000000
                              0.049600     1.000000
   22.2 Au    1  2px         12.932100     1.000000
   23.2 Au    1  2py         12.932100     1.000000
   24.2 Au    1  2pz         12.932100     1.000000
   25.2 Au    1  2px          7.146700     1.000000
   26.2 Au    1  2py          7.146700     1.000000
   27.2 Au    1  2pz          7.146700     1.000000
   28.2 Au    1  2px          3.949500     1.000000
   29.2 Au    1  2py          3.949500     1.000000
   30.2 Au    1  2pz          3.949500     1.000000
   31.2 Au    1  2px          2.182700     1.000000
   32.2 Au    1  2py          2.182700     1.000000
   33.2 Au    1  2pz          2.182700     1.000000
   34.2 Au    1  2px          0.019900     1.000000
   35.2 Au    1  2py          0.019900     1.000000
   36.2 Au    1  2pz          0.019900     1.000000
   37.2 Au    1  2px          0.006633     1.000000
   38.2 Au    1  2py          0.006633     1.000000
   39.2 Au    1  2pz          0.006633     1.000000
   40.2 Au    1  4f1+         0.769000     1.000000
   41.2 Au    1  4f1-         0.769000     1.000000
   42.2 Au    1  4f0          0.769000     1.000000
   43.2 Au    1  4f3+         0.769000     1.000000
   44.2 Au    1  4f2-         0.769000     1.000000
   45.2 Au    1  4f3-         0.769000     1.000000
   46.2 Au    1  4f2+         0.769000     1.000000
   47.2 Au    1  4f1+         0.392800     1.000000
   48.2 Au    1  4f1-         0.392800     1.000000
   49.2 Au    1  4f0          0.392800     1.000000
   50.2 Au    1  4f3+         0.392800     1.000000
   51.2 Au    1  4f2-         0.392800     1.000000
   52.2 Au    1  4f3-         0.392800     1.000000
   53.2 Au    1  4f2+         0.392800     1.000000
   54.2 Au    1  4f1+         0.200700     1.000000
   55.2 Au    1  4f1-         0.200700     1.000000
   56.2 Au    1  4f0          0.200700     1.000000
   57.2 Au    1  4f3+         0.200700     1.000000
   58.2 Au    1  4f2-         0.200700     1.000000
   59.2 Au    1  4f3-         0.200700     1.000000
   60.2 Au    1  4f2+         0.200700     1.000000
   61.2 Au    1  4f1+        18.154600     1.000000
   62.2 Au    1  4f1-        18.154600     1.000000
   63.2 Au    1  4f0         18.154600     1.000000
   64.2 Au    1  4f3+        18.154600     1.000000
   65.2 Au    1  4f2-        18.154600     1.000000
   66.2 Au    1  4f3-        18.154600     1.000000
   67.2 Au    1  4f2+        18.154600     1.000000
   68.2 Au    1  4f1+         8.261700     1.000000
   69.2 Au    1  4f1-         8.261700     1.000000
   70.2 Au    1  4f0          8.261700     1.000000
   71.2 Au    1  4f3+         8.261700     1.000000
   72.2 Au    1  4f2-         8.261700     1.000000
   73.2 Au    1  4f3-         8.261700     1.000000
   74.2 Au    1  4f2+         8.261700     1.000000
   75.2 Au    1  4f1+         3.759700     1.000000
   76.2 Au    1  4f1-         3.759700     1.000000
   77.2 Au    1  4f0          3.759700     1.000000
   78.2 Au    1  4f3+         3.759700     1.000000
   79.2 Au    1  4f2-         3.759700     1.000000
   80.2 Au    1  4f3-         3.759700     1.000000
   81.2 Au    1  4f2+         3.759700     1.000000
   82.2 Au    1  4f1+         1.710900     1.000000
   83.2 Au    1  4f1-         1.710900     1.000000
   84.2 Au    1  4f0          1.710900     1.000000
   85.2 Au    1  4f3+         1.710900     1.000000
   86.2 Au    1  4f2-         1.710900     1.000000
   87.2 Au    1  4f3-         1.710900     1.000000
   88.2 Au    1  4f2+         1.710900     1.000000
   89.2 Au    1  4f1+         0.082700     1.000000
   90.2 Au    1  4f1-         0.082700     1.000000
   91.2 Au    1  4f0          0.082700     1.000000
   92.2 Au    1  4f3+         0.082700     1.000000
   93.2 Au    1  4f2-         0.082700     1.000000
   94.2 Au    1  4f3-         0.082700     1.000000
   95.2 Au    1  4f2+         0.082700     1.000000
   96.2 Au    1  4f1+         0.027567     1.000000
   97.2 Au    1  4f1-         0.027567     1.000000
   98.2 Au    1  4f0          0.027567     1.000000
   99.2 Au    1  4f3+         0.027567     1.000000
  100.2 Au    1  4f2-         0.027567     1.000000
  101.2 Au    1  4f3-         0.027567     1.000000
  102.2 Au    1  4f2+         0.027567     1.000000
  103.2 Au    1  6h1+         0.693100     1.000000
  104.2 Au    1  6h1-         0.693100     1.000000
  105.2 Au    1  6h2+         0.693100     1.000000
  106.2 Au    1  6h3+         0.693100     1.000000
  107.2 Au    1  6h4-         0.693100     1.000000
  108.2 Au    1  6h3-         0.693100     1.000000
  109.2 Au    1  6h4+         0.693100     1.000000
  110.2 Au    1  6h5-         0.693100     1.000000
  111.2 Au    1  6h0          0.693100     1.000000
  112.2 Au    1  6h5+         0.693100     1.000000
  113.2 Au    1  6h2-         0.693100     1.000000
  114.2 Au    1  6h1+        10.343000     1.000000
  115.2 Au    1  6h1-        10.343000     1.000000
  116.2 Au    1  6h2+        10.343000     1.000000
  117.2 Au    1  6h3+        10.343000     1.000000
  118.2 Au    1  6h4-        10.343000     1.000000
  119.2 Au    1  6h3-        10.343000     1.000000
  120.2 Au    1  6h4+        10.343000     1.000000
  121.2 Au    1  6h5-        10.343000     1.000000
  122.2 Au    1  6h0         10.343000     1.000000
  123.2 Au    1  6h5+        10.343000     1.000000
  124.2 Au    1  6h2-        10.343000     1.000000
  125.2 Au    1  6h1+         2.210000     1.000000
  126.2 Au    1  6h1-         2.210000     1.000000
  127.2 Au    1  6h2+         2.210000     1.000000
  128.2 Au    1  6h3+         2.210000     1.000000
  129.2 Au    1  6h4-         2.210000     1.000000
  130.2 Au    1  6h3-         2.210000     1.000000
  131.2 Au    1  6h4+         2.210000     1.000000
  132.2 Au    1  6h5-         2.210000     1.000000
  133.2 Au    1  6h0          2.210000     1.000000
  134.2 Au    1  6h5+         2.210000     1.000000
  135.2 Au    1  6h2-         2.210000     1.000000
  136.2 Au    1  6h1+         0.330400     1.000000
  137.2 Au    1  6h1-         0.330400     1.000000
  138.2 Au    1  6h2+         0.330400     1.000000
  139.2 Au    1  6h3+         0.330400     1.000000
  140.2 Au    1  6h4-         0.330400     1.000000
  141.2 Au    1  6h3-         0.330400     1.000000
  142.2 Au    1  6h4+         0.330400     1.000000
  143.2 Au    1  6h5-         0.330400     1.000000
  144.2 Au    1  6h0          0.330400     1.000000
  145.2 Au    1  6h5+         0.330400     1.000000
  146.2 Au    1  6h2-         0.330400     1.000000

 NUCLEAR CHARGE:                   23
 NUMBER OF PRIMITIVE AOS:         485
 NUMBER OF SYMMETRY AOS:          348
 NUMBER OF CONTRACTIONS:          281   (  135Ag  +  146Au  )
 NUMBER OF INNER CORE ORBITALS:     0   (    0Ag  +    0Au  )
 NUMBER OF OUTER CORE ORBITALS:     9   (    6Ag  +    3Au  )
 NUMBER OF VALENCE ORBITALS:        4   (    1Ag  +    3Au  )


 LX: Ag           LY: Ag           LZ: Ag 


 NUCLEAR REPULSION ENERGY    0.00000000

 EXTRA SYMMETRY OF AOS IN SYMMETRY 1:   1 1 1 1 1 1 1 1 1 1   1 1 1 2 3 4 5 6 2 3   4 5 6 2 3 4 5 6 2 3   4 5 6 2 3 4 5 6 2 3
                                        4 5 6 2 3 4 5 6 2 3   4 5 6 2 3 4 5 6 2 3   4 5 6 2 3 4 5 6 7 8   9101112131415 7 8 9
                                       101112131415 7 8 910  1112131415 7 8 91011  12131415 7 8 9101112  131415 7 8 910111213
                                       14151617181920212223  2425262728
 EXTRA SYMMETRY OF AOS IN SYMMETRY 2:   1 2 3 1 2 3 1 2 3 1   2 3 1 2 3 1 2 3 1 2   3 1 2 3 1 2 3 1 2 3   1 2 3 1 2 3 1 2 3 4
                                        5 6 7 8 910 4 5 6 7   8 910 4 5 6 7 8 910   4 5 6 7 8 910 4 5 6   7 8 910 4 5 6 7 8 9
                                       10 4 5 6 7 8 910 4 5   6 7 8 910 4 5 6 7 8   9101112131415161718  19202111121314151617
                                       18192021111213141516  17181920211112131415  161718192021


 Eigenvalues of metric

         1 0.186E-04 0.202E-03 0.696E-03 0.142E-02 0.142E-02 0.142E-02 0.142E-02 0.142E-02
         2 0.124E-04 0.124E-04 0.124E-04 0.713E-03 0.713E-03 0.713E-03 0.389E-02 0.389E-02


 Contracted 2-electron integrals neglected if value below      1.0D-12
 AO integral compression algorithm  1   Integral accuracy      1.0D-12

     676.332 MB (compressed) written to integral file ( 13.1%)

     Node minimum: 45.351 MB, node maximum: 69.992 MB


 NUMBER OF SORTED TWO-ELECTRON INTEGRALS:   32937480.     BUFFER LENGTH:  32768
 NUMBER OF SEGMENTS:   3  SEGMENT LENGTH:   15973200      RECORD LENGTH: 524288

 Memory used in sort:      16.53 MW

 SORT1 READ   646821870. AND WROTE     5447433. INTEGRALS IN     17 RECORDS. CPU TIME:     3.30 SEC, REAL TIME:     3.42 SEC
 SORT2 READ    68050572. AND WROTE   395255076. INTEGRALS IN   2352 RECORDS. CPU TIME:     0.67 SEC, REAL TIME:     0.74 SEC

 Node minimum:    32924208.  Node maximum:    32960820. integrals

 OPERATOR DM      FOR CENTER  0  COORDINATES:    0.000000    0.000000    0.000000


 **********************************************************************************************************************************
 DATASETS  * FILE   NREC   LENGTH (MB)   RECORD NAMES
              1      19       30.69       500      610      700      900      950      970     1000      129      960     1100   
                                          VAR    BASINP    GEOM    SYMINP    ZMAT    AOBASIS   BASIS     P2S    ABASIS      S 
                                         1400     1410     1420     1200     1210     1080     1700     1600     1650   
                                           T        V       ECP      H0       H01     AOSYM    OPER      SMH    MOLCAS    

 PROGRAMS   *        TOTAL       INT
 CPU TIMES  *        11.48     11.26
 REAL TIME  *        12.90 SEC
 DISK USED  *        31.11 MB (local),        1.71 GB (total)
 GA USED    *         0.00 MB       (max)       0.00 MB       (current)
 **********************************************************************************************************************************


 Program * Restricted Hartree-Fock


   Atom=AS basis=cc-pVTZ-PP        lmin=0  lmax=2

 Orbital guess generated from atomic densities.

 Initial alpha occupancy:   7   6
 Initial beta  occupancy:   7   3

 NELEC=   23   SYM=2   MS2= 3   THRE=1.0D-08   THRD=3.2D-06   THRG=3.2D-06  HFMA2=F  DIIS_START=2   DIIS_MAX=10   DIIS_INCORE=F

 Level shifts:    0.00 (CLOSED)    0.00 (OPEN)    0.30 (GAP_MIN)

 ITER           ETOT              DE          GRAD        DDIFF     DIIS  NEXP   TIME(IT)  TIME(TOT)  DIAG
   1     -331.19458855    -331.19458855     0.00D+00     0.44D-01     0     0       0.21      0.39    start
   2     -331.20876481      -0.01417627     0.12D-02     0.10D-02     1     0       0.23      0.62    diag2
   3     -331.20966397      -0.00089915     0.89D-03     0.26D-03     2     0       0.22      0.84    diag2
   4     -331.20997379      -0.00030982     0.25D-03     0.21D-03     3     0       0.22      1.06    diag2
   5     -331.21002495      -0.00005116     0.79D-04     0.13D-03     4     0       0.22      1.28    diag2
   6     -331.21002576      -0.00000081     0.16D-04     0.22D-04     5     0       0.22      1.50    diag2
   7     -331.21002577      -0.00000001     0.14D-05     0.29D-05     6     0       0.21      1.71    diag2
   8     -331.21002577      -0.00000000     0.14D-06     0.45D-06     0     0       0.22      1.93    fixocc

 Final alpha occupancy:   7   6
 Final beta  occupancy:   7   3

 !RHF STATE 1.2 Energy               -331.210025769504
  RHF One-electron energy            -587.018717689911
  RHF Two-electron energy             255.808691920407
  RHF Kinetic energy                  233.768703432215
  RHF Nuclear energy                    0.000000000000
  RHF Virial quotient                  -1.416827919677

 !RHF STATE 1.2 Dipole moment           0.00000000     0.00000000     0.00000000
 Dipole moment /Debye                   0.00000000     0.00000000     0.00000000

 ELECTRON ORBITALS
 =================

  Orbital  Occupation    Energy    Cen Mu Typ  Coefficients
    1.1     2.00000    -8.08651     1  1  s    0.99980
    2.1     2.00000    -2.07178     1  1  d0   0.99999
    3.1     2.00000    -2.07178     1  1  d2-  0.68315    1  1  d2+  0.44834    1  1  d1- -0.56458
    4.1     2.00000    -2.07178     1  1  d1+ -0.58558    1  1  d2+  0.73570    1  1  d1-  0.31856
    5.1     2.00000    -2.07178     1  1  d2-  0.66750    1  1  d1-  0.72693
    6.1     2.00000    -2.07178     1  1  d2- -0.27093    1  1  d1+  0.79608    1  1  d2+  0.49144
    7.1     2.00000    -0.70293     1  1  s   -0.35596    1  5  s    0.49724    1  6  s    0.53640
    1.2     2.00000    -5.99995     1  1  py  -0.34035    1  1  pz   0.94021
    2.2     2.00000    -5.99995     1  1  py   0.94021    1  1  pz   0.34035
    3.2     2.00000    -5.99995     1  1  px   0.99992
    4.2     1.00000    -0.36833     1  5  px   0.44402    1  6  px   0.38165
    5.2     1.00000    -0.36833     1  5  py   0.44401    1  6  py   0.38164
    6.2     1.00000    -0.36833     1  5  pz   0.44401    1  6  pz   0.38164


 HOMO      6.2    -0.368325 =     -10.0226eV
 LUMO      8.1     0.014459 =       0.3935eV
 LUMO-HOMO         0.382785 =      10.4161eV

 Orbitals saved in record  2100.2


 **********************************************************************************************************************************
 DATASETS  * FILE   NREC   LENGTH (MB)   RECORD NAMES
              1      19       30.69       500      610      700      900      950      970     1000      129      960     1100   
                                          VAR    BASINP    GEOM    SYMINP    ZMAT    AOBASIS   BASIS     P2S    ABASIS      S 
                                         1400     1410     1420     1200     1210     1080     1700     1600     1650   
                                           T        V       ECP      H0       H01     AOSYM    OPER      SMH    MOLCAS    

              2       4        1.64       700     1000      520     2100   
                                         GEOM     BASIS   MCVARS     RHF  

 PROGRAMS   *        TOTAL   RHF-SCF       INT
 CPU TIMES  *        13.41      1.93     11.26
 REAL TIME  *        14.92 SEC
 DISK USED  *        37.01 MB (local),        1.78 GB (total)
 GA USED    *         0.00 MB       (max)       0.00 MB       (current)
 **********************************************************************************************************************************
 SETTING PAR            =         2.00000000                                  
 SETTING NQ             =         1.00000000                                  
 SETTING ND             =         8.00000000                                  

 PROGRAM * MULTI (Direct Multiconfiguration SCF)       Authors: P.J. Knowles, H.-J. Werner (1984)
                                                                D.A. Kreplin, P.J. Knowles, H.-J. Werner (2019)

 Number of closed-shell orbitals:   9 (    6    3)
 Number of active  orbitals:        7 (    1    6)
 Number of external orbitals:     265 (  128  137)

 State symmetry 1

 Number of active electrons:   5    Spin symmetry=Quartet   Space symmetry=2
 Number of states:             1
 Number of CSFs:             104   (110 determinants, 245 intermediate states)

 State symmetry 2

 Number of active electrons:   5    Spin symmetry=Doublet   Space symmetry=2
 Number of states:             8
 Number of CSFs:             280   (390 determinants, 735 intermediate states)

 Molecular orbitals read from record     2100.2  Type=RHF/CANONICAL  
 *** IN SYMMETRY 1 ORBITAL  2 SYMMETRY CONTAMINATION OF 0.803D-02 HAS BEEN REMOVED
 *** IN SYMMETRY 1 ORBITAL  3 SYMMETRY CONTAMINATION OF 0.623D+00 HAS BEEN REMOVED
 *** IN SYMMETRY 1 ORBITAL  4 SYMMETRY CONTAMINATION OF 0.583D+00 HAS BEEN REMOVED
 *** IN SYMMETRY 1 ORBITAL  5 SYMMETRY CONTAMINATION OF 0.552D+00 HAS BEEN REMOVED
 *** IN SYMMETRY 1 ORBITAL  6 SYMMETRY CONTAMINATION OF 0.554D+00 HAS BEEN REMOVED

 EXTRA SYMMETRY OF MOS IN SYMMETRY 1:   1 2 3 5 6 4 1 1 2 6   4 3 5 1 2 6 4 5 3 1   2 6 4 3 51415 91112   8 71310 2 6 4 3 5 1
                                        911 8121310 71415 2   6 4 3 5 111 9 81213  101415 7 2 6 4 5 3 1  11 912 810131514 7 2
                                        6 4 5 3172126232419  18202216252728 1 2 4   6 5 311 9 7 8121415  1013 2 4 6 3 5 1 9 7
                                       11 81214151013 1 2 6   4 5 3 1 1
 *** IN SYMMETRY 2 ORBITAL  1 SYMMETRY CONTAMINATION OF 0.266D+00 HAS BEEN REMOVED
 *** IN SYMMETRY 2 ORBITAL  2 SYMMETRY CONTAMINATION OF 0.266D+00 HAS BEEN REMOVED
 *** IN SYMMETRY 2 ORBITAL  5 SYMMETRY CONTAMINATION OF 0.770D-02 HAS BEEN REMOVED
 *** IN SYMMETRY 2 ORBITAL  6 SYMMETRY CONTAMINATION OF 0.770D-02 HAS BEEN REMOVED
 *** IN SYMMETRY 2 ORBITAL  7 SYMMETRY CONTAMINATION OF 0.818D-01 HAS BEEN REMOVED
 *** IN SYMMETRY 2 ORBITAL  8 SYMMETRY CONTAMINATION OF 0.507D-01 HAS BEEN REMOVED
 *** IN SYMMETRY 2 ORBITAL  9 SYMMETRY CONTAMINATION OF 0.362D-01 HAS BEEN REMOVED
 EXTRA SYMMETRY OF MOS IN SYMMETRY 2:   3 2 1 1 2 3 3 1 2 1   2 3 610 8 5 4 9 7 3   1 2 7 9 6 4 510 8 3   1 2 7 9 5 4 6 810 2
                                        1 3 7 9 810 5 4 620  18111221131915171416   7 9 810 5 4 6 2 1 3  11122113151720181914
                                       16 7 9 810 5 4 6 3 2   1191416151711122113  1820 5 4 9 7 810 6 3   2 1 5 4 9 7 810 620
                                       18151719111214161321   3 2 1 5 4 6 9 7 810   3 2 1 3 2 1

 Wavefunction dump at record             2140.2

 Convergence thresholds  0.10E-04 (gradient)  0.10E-05 (energy)

 Weight factors for state symmetry  1:    0.11111
 Weight factors for state symmetry  2:    0.11111   0.11111   0.11111   0.11111   0.11111   0.11111   0.11111   0.11111
 
 Number of orbital rotations:  2153  ( 24 closed/active, 1179 closed/virtual, 0 active/active, 950 active/virtual )
 Total number of variables:    5383
 
 Second-order MCSCF: L-BFGS accelerated
 
 ITER  MIC  NCI  NEG     ENERGY(VAR)    ENERGY(PROJ) ENERGY CHANGE       GRAD(0)  GRAD(ORB)   GRAD(CI)      STEP      TIME
   1   12   22    0   -331.14122689    -331.15437813   -0.01315123    0.02401523 0.00005582 0.00000000  0.17E+01      3.68
   2    8   14    0   -331.15334972    -331.15343403   -0.00008432    0.00495967 0.00000940 0.00000000  0.13E+00      6.80
   3    8   16    0   -331.15343405    -331.15343405   -0.00000000    0.00000270 0.00000000 0.00000000  0.93E-04      9.99

 CONVERGENCE REACHED!  Final gradient:    0.00000003 ( 0.29E-07)
                       Final energy:   -331.15343405
 
 Results for state 1.2 Quartet
 =============================
 !MCSCF STATE 1.2 Quartet Energy              -331.217699705960
 Nuclear energy                                  0.00000000
 Kinetic energy                                233.81417538
 One electron energy                          -586.90811494
 Two electron energy                           255.69041524
 Virial ratio                                    2.41658520
 
 !MCSCF STATE 1.2 Quartet Dipole moment          0.00000000     0.00000000     0.00000000
 Dipole moment /Debye                            0.00000000     0.00000000     0.00000000
 
 Results for state 1.2 Doublet
 =============================
 !MCSCF STATE 1.2 Doublet Energy              -331.154576901079
 Nuclear energy                                  0.00000000
 Kinetic energy                                233.73188182
 One electron energy                          -586.58783777
 Two electron energy                           255.43326087
 Virial ratio                                    2.41681389
 
 !MCSCF STATE 1.2 Doublet Dipole moment          0.00000000     0.00000000     0.00000000
 Dipole moment /Debye                            0.00000000     0.00000000     0.00000000
 
 Results for state 2.2 Doublet
 =============================
 !MCSCF STATE 2.2 Doublet Energy              -331.154576901077
 Nuclear energy                                  0.00000000
 Kinetic energy                                233.73188182
 One electron energy                          -586.58783777
 Two electron energy                           255.43326087
 Virial ratio                                    2.41681389
 
 !MCSCF STATE 2.2 Doublet Dipole moment          0.00000000     0.00000000     0.00000000
 Dipole moment /Debye                            0.00000000     0.00000000     0.00000000
 
 Results for state 3.2 Doublet
 =============================
 !MCSCF STATE 3.2 Doublet Energy              -331.154576901058
 Nuclear energy                                  0.00000000
 Kinetic energy                                233.73188182
 One electron energy                          -586.58783777
 Two electron energy                           255.43326087
 Virial ratio                                    2.41681389
 
 !MCSCF STATE 3.2 Doublet Dipole moment          0.00000000     0.00000000     0.00000000
 Dipole moment /Debye                            0.00000000     0.00000000     0.00000000
 
 Results for state 4.2 Doublet
 =============================
 !MCSCF STATE 4.2 Doublet Energy              -331.154576901044
 Nuclear energy                                  0.00000000
 Kinetic energy                                233.73188182
 One electron energy                          -586.58783777
 Two electron energy                           255.43326087
 Virial ratio                                    2.41681389
 
 !MCSCF STATE 4.2 Doublet Dipole moment          0.00000000     0.00000000     0.00000000
 Dipole moment /Debye                            0.00000000     0.00000000     0.00000000
 
 Results for state 5.2 Doublet
 =============================
 !MCSCF STATE 5.2 Doublet Energy              -331.154576901040
 Nuclear energy                                  0.00000000
 Kinetic energy                                233.73188182
 One electron energy                          -586.58783777
 Two electron energy                           255.43326087
 Virial ratio                                    2.41681389
 
 !MCSCF STATE 5.2 Doublet Dipole moment          0.00000000     0.00000000     0.00000000
 Dipole moment /Debye                            0.00000000     0.00000000     0.00000000
 
 Results for state 6.2 Doublet
 =============================
 !MCSCF STATE 6.2 Doublet Energy              -331.130107405397
 Nuclear energy                                  0.00000000
 Kinetic energy                                233.72805985
 One electron energy                          -586.48020862
 Two electron energy                           255.35010122
 Virial ratio                                    2.41673237
 
 !MCSCF STATE 6.2 Doublet Dipole moment          0.00000000     0.00000000     0.00000000
 Dipole moment /Debye                            0.00000000     0.00000000     0.00000000
 
 Results for state 7.2 Doublet
 =============================
 !MCSCF STATE 7.2 Doublet Energy              -331.130107405360
 Nuclear energy                                  0.00000000
 Kinetic energy                                233.72805985
 One electron energy                          -586.48020862
 Two electron energy                           255.35010122
 Virial ratio                                    2.41673237
 
 !MCSCF STATE 7.2 Doublet Dipole moment          0.00000000     0.00000000     0.00000000
 Dipole moment /Debye                            0.00000000     0.00000000     0.00000000
 
 Results for state 8.2 Doublet
 =============================
 !MCSCF STATE 8.2 Doublet Energy              -331.130107405334
 Nuclear energy                                  0.00000000
 Kinetic energy                                233.72805985
 One electron energy                          -586.48020862
 Two electron energy                           255.35010122
 Virial ratio                                    2.41673237
 
 !MCSCF STATE 8.2 Doublet Dipole moment          0.00000000     0.00000000     0.00000000
 Dipole moment /Debye                            0.00000000     0.00000000     0.00000000
 
 State-averaged charge density matrix saved on record 2140.2 (density set 1)
 
 No non-zero expectation values
 
 Expectation values for two-electron operators:
 
 ? Warning
 ? Transition properties are only calculated between states of the same symmetry
 ? The problem occurs in mu_properties_expec2

 !MCSCF expec      <1.2 Quartet|LXLX|1.2 Quartet>    -0.000000000000
 !MCSCF expec      <1.2 Doublet|LXLX|1.2 Doublet>     3.826873190367
 !MCSCF expec      <2.2 Doublet|LXLX|2.2 Doublet>     4.000000000000
 !MCSCF expec      <3.2 Doublet|LXLX|3.2 Doublet>     0.999999863584
 !MCSCF expec      <4.2 Doublet|LXLX|4.2 Doublet>     0.999993514696
 !MCSCF expec      <5.2 Doublet|LXLX|5.2 Doublet>     0.173153731161
 !MCSCF expec      <6.2 Doublet|LXLX|6.2 Doublet>    -0.000000000000
 !MCSCF expec      <7.2 Doublet|LXLX|7.2 Doublet>     1.000000000000
 !MCSCF expec      <8.2 Doublet|LXLX|8.2 Doublet>     1.000000000000
 
 !MCSCF expec      <1.2 Quartet|LYLY|1.2 Quartet>    -0.000000000000
 !MCSCF expec      <1.2 Doublet|LYLY|1.2 Doublet>     1.791475092210
 !MCSCF expec      <2.2 Doublet|LYLY|2.2 Doublet>     1.000000000000
 !MCSCF expec      <3.2 Doublet|LYLY|3.2 Doublet>     3.999998982031
 !MCSCF expec      <4.2 Doublet|LYLY|4.2 Doublet>     1.000008990798
 !MCSCF expec      <5.2 Doublet|LYLY|5.2 Doublet>     2.208465228668
 !MCSCF expec      <6.2 Doublet|LYLY|6.2 Doublet>     1.000000000000
 !MCSCF expec      <7.2 Doublet|LYLY|7.2 Doublet>     0.000000754770
 !MCSCF expec      <8.2 Doublet|LYLY|8.2 Doublet>     0.999999238117
 
 !MCSCF expec      <1.2 Quartet|LZLZ|1.2 Quartet>    -0.000000000000
 !MCSCF expec      <1.2 Doublet|LZLZ|1.2 Doublet>     0.381651717423
 !MCSCF expec      <2.2 Doublet|LZLZ|2.2 Doublet>     1.000000000000
 !MCSCF expec      <3.2 Doublet|LZLZ|3.2 Doublet>     1.000001154386
 !MCSCF expec      <4.2 Doublet|LZLZ|4.2 Doublet>     3.999997494507
 !MCSCF expec      <5.2 Doublet|LZLZ|5.2 Doublet>     3.618381040170
 !MCSCF expec      <6.2 Doublet|LZLZ|6.2 Doublet>     1.000000000000
 !MCSCF expec      <7.2 Doublet|LZLZ|7.2 Doublet>     0.999999245230
 !MCSCF expec      <8.2 Doublet|LZLZ|8.2 Doublet>     0.000000761883
 
 !MCSCF expec      <1.2 Quartet|L**2|1.2 Quartet>    -0.000000000000
 !MCSCF expec      <1.2 Doublet|L**2|1.2 Doublet>     6.000000000000
 !MCSCF expec      <2.2 Doublet|L**2|2.2 Doublet>     6.000000000000
 !MCSCF expec      <3.2 Doublet|L**2|3.2 Doublet>     6.000000000000
 !MCSCF expec      <4.2 Doublet|L**2|4.2 Doublet>     6.000000000000
 !MCSCF expec      <5.2 Doublet|L**2|5.2 Doublet>     6.000000000000
 !MCSCF expec      <6.2 Doublet|L**2|6.2 Doublet>     2.000000000000
 !MCSCF expec      <7.2 Doublet|L**2|7.2 Doublet>     2.000000000000
 !MCSCF expec      <8.2 Doublet|L**2|8.2 Doublet>     2.000000000000
 
 EXTRA SYMMETRY OF MOS IN SYMMETRY 1:   1 3 5 6 2 4 1 1 4 2   6 3 5 1 4 2 6 3 5 1   3 5 6 2 4 9 712 811  14151310 4 2 6 3 5 1
                                       1310111415 812 7 9 6   3 5 2 4 11310111415   812 7 9 3 5 6 2 4 1  1310141511 812 7 9 3
                                        5 6 2 4221620182724  19232617212528 1 5 3   6 2 4101315141112 8   7 9 3 5 6 2 4 11310
                                       14151112 8 7 9 1 5 3   6 2 4 1 1
 EXTRA SYMMETRY OF MOS IN SYMMETRY 2:   2 1 3 3 1 2 2 1 3 1   3 2 1 3 2 4 6 810 5   7 9 4 6 810 5 9 7 1   3 2 4 6 810 5 7 9 1
                                        3 2 7 9 510 8 6 411  19211314161215172018   7 9 5 810 6 4 2 1 3  20181517121416211319
                                       11 7 9 5 810 6 4 2 1   3182015171214162113  1911 7 9 5 810 6 4 2   1 3 9 7 5 810 6 420
                                       18151712161421131911   2 1 3 7 9 510 8 6 4   2 3 1 2 3 1
 
  NATURAL ORBITALS (STATE AVERAGED)
  =================================

  Orbital  Occupation    Energy    Cen Mu Typ  Coefficients
    1.1     2.00000    -8.10685     1  1  s    1.00104
    2.1     2.00000    -2.09217     1  1  d2-  1.00010
    3.1     2.00000    -2.09217     1  1  d2+  1.00010
    4.1     2.00000    -2.09217     1  1  d1-  1.00010
    5.1     2.00000    -2.09217     1  1  d0   1.00010
    6.1     2.00000    -2.09217     1  1  d1+  1.00010
    7.1     1.97803    -0.71309     1  1  s   -0.35548    1  5  s    0.51915    1  6  s    0.52816
    1.2     2.00000    -6.02026     1  1  py   0.99974
    2.2     2.00000    -6.02026     1  1  px   0.99974
    3.2     2.00000    -6.02026     1  1  pz   0.99974
    4.2     1.00235    -0.16216     1  5  pz   0.41006    1  6  pz   0.37859
    5.2     1.00235    -0.16216     1  5  px   0.41006    1  6  px   0.37859
    6.2     1.00235    -0.16216     1  5  py   0.41006    1  6  py   0.37859
    7.2     0.00497     0.48747     1  1  py   0.32267    1  4  py  -0.81390    1  5  py  -0.50230    1  6  py   0.77538
                                    1  7  py   0.38486
    8.2     0.00497     0.48747     1  1  px   0.32267    1  4  px  -0.81390    1  5  px  -0.50230    1  6  px   0.77538
                                    1  7  px   0.38486
    9.2     0.00497     0.48747     1  1  pz   0.32267    1  4  pz  -0.81390    1  5  pz  -0.50230    1  6  pz   0.77538
                                    1  7  pz   0.38486
 
 Natural orbital dump (state averaged) at molpro section 2140.2 (Orbital set 2)
 
 Transform the CI vectors
 
 CI Coefficients of symmetry 2 (Quartet)
 =======================================
 
 2 aaa000       0.99644928
 
 Energy:     -331.21769971
 
 
 CI Coefficients of symmetry 2 (Doublet)
 =======================================

 State:              1               2               3               4               5               6               7
 2 aba000      -0.16908689      0.00001020      0.00031331      0.00234688      0.79496494     -0.00000000     -0.00000000
 2 baa000       0.77300632     -0.00004663     -0.00005956     -0.00063173     -0.25104992      0.00000000      0.00000000
 2 0a2000      -0.00004246     -0.70386357     -0.00000000     -0.00000000     -0.00000000      0.69601856     -0.00000000
 2 2a0000       0.00004246      0.70386357     -0.00000000      0.00000000      0.00000000      0.69601856      0.00000000
 2 20a000      -0.00003847      0.00000000      0.70386343     -0.00034656     -0.00028456      0.00000000      0.69601830
 2 02a000       0.00003847     -0.00000000     -0.70386343      0.00034656      0.00028456     -0.00000000      0.69601830
 2 a02000       0.00010704     -0.00000001     -0.00034570     -0.70386035      0.00210083     -0.00000000      0.00060468
 2 a20000      -0.00010704      0.00000001      0.00034570      0.70386035     -0.00210083      0.00000000      0.00060468
 2 aab000      -0.60391944      0.00003643     -0.00025375     -0.00171515     -0.54391502     -0.00000000     -0.00000000
 0 2a2000       0.00000000      0.00000000      0.00000000      0.00000000     -0.00000000     -0.14509270     -0.00000000
 0 22a000       0.00000000      0.00000000      0.00000000     -0.00000000     -0.00000000      0.00000000     -0.14509265
 0 a22000      -0.00000000     -0.00000000      0.00000000      0.00000000     -0.00000000      0.00000000     -0.00012605
 
 Energy:     -331.15457690   -331.15457690   -331.15457690   -331.15457690   -331.15457690   -331.13010741   -331.13010741

 State:              8
 2 aba000       0.00000000
 2 baa000      -0.00000000
 2 0a2000      -0.00000000
 2 2a0000      -0.00000000
 2 20a000      -0.00060468
 2 02a000      -0.00060468
 2 a02000       0.69601830
 2 a20000       0.69601830
 2 aab000       0.00000000
 0 2a2000      -0.00000000
 0 22a000       0.00012605
 0 a22000      -0.14509264
 
 Energy:     -331.13010741
 


 **********************************************************************************************************************************
 DATASETS  * FILE   NREC   LENGTH (MB)   RECORD NAMES
              1      21       94.20       500      610      700      900      950      970     1000      129      960     1100   
                                          VAR    BASINP    GEOM    SYMINP    ZMAT    AOBASIS   BASIS     P2S    ABASIS      S 
                                         1400     1410     1420     1200     1210     1080     1700     1600     1650     1380   
                                           T        V       ECP      H0       H01     AOSYM    OPER      SMH    MOLCAS    JKOP   
                                         1700(1)
                                         OPER   

              2       5        3.11       700     1000      520     2100     2140   
                                         GEOM     BASIS   MCVARS     RHF     MCSCF   

 PROGRAMS   *        TOTAL     MULTI   RHF-SCF       INT
 CPU TIMES  *        24.23     10.81      1.93     11.26
 REAL TIME  *        26.92 SEC
 DISK USED  *        97.43 MB (local),        2.49 GB (total)
 SF USED    *       167.41 MB
 GA USED    *         0.00 MB       (max)       0.00 MB       (current)
 **********************************************************************************************************************************

 Energies and &lt;L**2&gt; values

         ENERGY     LL
    -331.2176997  -0.0
    -331.1545769   6.0
    -331.1545769   6.0
    -331.1545769   6.0
    -331.1545769   6.0
    -331.1545769   6.0
    -331.1301074   2.0
    -331.1301074   2.0
    -331.1301074   2.0
                                                  


 PROGRAM * CI (Multireference internally contracted CI)     Authors: H.-J. Werner, P.J. Knowles, 1987


 Convergence thresholds:  THRVAR = 1.00D-08  THRDEN = 1.00D-06

 Number of optimized states: 1  Roots:    1
 Number of reference states: 1  Roots:    1

 Reference symmetry:                   2   Quartet 
 Number of electrons:                 23
 Maximum number of shells:             5
 Maximum number of spin couplings:   165

 Reference space:       86 conf      104 CSFs
 N elec internal:    18764 conf    67760 CSFs
 N-1 el internal:    14189 conf   101369 CSFs
 N-2 el internal:     4931 conf    61610 CSFs

 Number of electrons in valence space:                     23
 Maximum number of open shell orbitals in reference space:  5
 Maximum number of open shell orbitals in internal spaces: 11


 Number of closed-shell orbitals:   9 (   6   3 )
 Number of active  orbitals:        7 (   1   6 )
 Number of external orbitals:     265 ( 128 137 )

 Molecular orbitals read from record     2140.2  Type=MCSCF/NATURAL (state averaged)

 Valence orbitals related to previous ones by unitary transformation. Operators transformed.


 Number of p-space configurations:   1

 Reference wavefunction optimized for reference space (refopt=1)

 State     Reference Energy 
     1      -331.21769971

 Number of blocks in overlap matrix:   167   Smallest eigenvalue:  0.83D-06
 Number of N-2 electron functions:     251
 Number of N-1 electron functions:  101369

 Number of internal configurations:                33680
 Number of singly external configurations:      13431721
 Number of doubly external configurations:       4408056
 Total number of contracted configurations:     17873457
 Total number of uncontracted configurations: 1093301154

 Diagonal Coupling coefficients finished.               Storage:  10293144 words, CPU-Time:      0.84 seconds.
 Energy denominators for pairs finished in 1 passes.    Storage:   3590878 words, CPU-time:      0.69 seconds.

  ITER. STATE  ROOT     SQ.NORM     CORR.ENERGY   TOTAL ENERGY   ENERGY CHANGE       DEN1      VAR(S)    VAR(P)      TIME
    1     1     1     1.00000000     0.00000000  -331.21769971     0.00000000    -1.13222815  0.44D-01  0.59D-01     3.21
    2     1     1     1.07243039    -0.95122212  -332.16892183    -0.95122212    -0.02567828  0.36D-02  0.10D-02    97.26
    3     1     1     1.05853729    -0.97513245  -332.19283215    -0.02391033    -0.00051709  0.84D-04  0.25D-04   191.59
    4     1     1     1.05764185    -0.97562806  -332.19332777    -0.00049561    -0.00002053  0.27D-05  0.14D-05   285.95
    5     1     1     1.05771907    -0.97564850  -332.19334820    -0.00002044    -0.00000079  0.50D-07  0.11D-06   380.19
    6     1     1     1.05776570    -0.97564937  -332.19334907    -0.00000087    -0.00000004  0.22D-08  0.62D-08   474.44


 =====================================
 Analysis of CPU times by interactions
 =====================================

       I      S      P

 I   0.7%
 S   0.7%  72.1%
 P   0.2%  19.2%   2.4%

 Initialization:   0.4%
 Other:            4.2%

 Total CPU:      474.4 seconds
 =====================================



 Wavefunction saved on  5302.2

 Reference coefficients greater than 0.0500000
 =============================================
 2222222222///000           0.9686818


 RESULTS FOR STATE 1.2
 =====================

 Coefficient of reference function:   C(0) = 0.97193825 (fixed)   0.97210446 (relaxed)

 Energy contributions of configuration classes

 CLASS          SQ.NORM        ECORR1        ECORR2
 +++++++++++++++++++++++++++++++++++++++++++++++++++
 Internals    0.00076745   -0.00258365   -0.00314799
 Singles      0.01648598   -0.09295876   -0.10300632
 Pairs        0.04132405   -0.88010697   -0.86949505
 Total        1.05857748   -0.97564938   -0.97564937
 +++++++++++++++++++++++++++++++++++++++++++++++++++


 Reference energy                    -331.21769971
 Nuclear energy                         0.00000000
 Kinetic energy                       234.27957219
 One electron energy                 -585.95816258
 Two electron energy                  253.76481350
 Virial quotient                       -1.41793561
 Correlation energy                    -0.97564937
 !MRCI STATE 1.2 Energy              -332.193349073716

 Properties without orbital relaxation:

 !MRCI STATE 1.2 Dipole moment          0.00000000     0.00000000     0.00000000
 Dipole moment /Debye                   0.00000000     0.00000000     0.00000000

 Cluster corrected energies          -332.25050015 (Davidson, fixed reference)
 Cluster corrected energies          -332.25014700 (Davidson, relaxed reference)

 Cluster corrected energies          -332.24729562 (Pople, fixed reference)
 Cluster corrected energies          -332.24694622 (Pople, relaxed reference)



 **********************************************************************************************************************************
 DATASETS  * FILE   NREC   LENGTH (MB)   RECORD NAMES
[...]

    6    2.2  0.5  0.5  -0.000045634   0.000008273   0.000076038   0.000022321  -0.001072883   0.004298823  -0.001528569  -0.001191911
                         0.001484421  -0.000041901   0.005756112  -0.000055963  -0.024283582  -0.553447078   0.228343586   0.162495395

    7    3.2  0.5  0.5  -0.000081336  -0.002401341   0.000001679   0.000580582   0.428332940  -0.019650235  -0.066478239   0.094293787
                        -0.000179380  -0.005196518  -0.000005469  -0.001484593  -0.293329975   0.013078349  -0.183308019   0.261714380

    8    4.2  0.5  0.5   0.000164310   0.004644950   0.000020610   0.002746237   0.329766349  -0.014709983   0.103974448  -0.150628238
                        -0.000076343  -0.002182110  -0.000000834   0.001199013   0.487189053  -0.021915096  -0.041033884   0.058267354

    9    5.2  0.5  0.5  -0.004239033   0.000182625   0.004162845  -0.000082218  -0.001380275  -0.034285714   0.508727492   0.353511800
                        -0.000000688  -0.000015088  -0.000088836  -0.000037379   0.000387132  -0.000083527   0.002884419   0.003997605

   10    6.2  0.5  0.5  -0.040895411   0.001367666  -0.041690325   0.000363797   0.006960666   0.154489078   0.007171424   0.004713533
                         0.000034138  -0.000013735   0.000215852   0.000166583  -0.000117314   0.000531906  -0.001100900  -0.000598427

   11    7.2  0.5  0.5   0.000140436  -0.000001424  -0.000166568  -0.000098989   0.000200041  -0.000939029   0.000836841   0.000515046
                         0.056531393  -0.001997335  -0.014587993   0.000170174  -0.003306064  -0.069837591  -0.112930755  -0.079684696

   12    8.2  0.5  0.5   0.000198732   0.005898380  -0.000005125   0.023799943   0.071092043  -0.003204037   0.024241151  -0.034315256
                         0.000543985   0.014482129  -0.000629811  -0.050998548  -0.045979095   0.001785541   0.070991334  -0.100018580

   13    1.2  0.5 -0.5   0.002993914  -0.000145283  -0.005133487   0.000087199   0.008687841   0.196097499  -0.483765098  -0.336205271
                         0.000018569   0.000012972   0.000056225   0.000037614  -0.001113803   0.002263610  -0.007018678  -0.006668608

   14    2.2  0.5 -0.5  -0.000023769  -0.000613718   0.000002923   0.002458525   0.467046684  -0.021161179   0.051423399  -0.072122602
                        -0.000035485  -0.001352383  -0.000060179  -0.005205215  -0.296967243   0.011960265   0.154148656  -0.216659780

   15    3.2  0.5 -0.5   0.000215156  -0.000005990   0.000088051  -0.000000743  -0.000676043  -0.021732332  -0.008667483  -0.006483214
                        -0.005720485   0.000196867  -0.001591647   0.000005673   0.023594871   0.518689972   0.278047855   0.194882411

   16    4.2  0.5 -0.5  -0.005127030   0.000181037  -0.002996171   0.000018404   0.026380232   0.587911099   0.161265922   0.111569129
                        -0.000225222   0.000007186  -0.000049121   0.000009314   0.000859318   0.021437308   0.008789375   0.006840681

   17    5.2  0.5 -0.5  -0.000174352  -0.003911889   0.000090316   0.003750385   0.018241942  -0.000403243  -0.334918615   0.482858366
                         0.000056399   0.001632951   0.000000122   0.001808808   0.029030134  -0.001375654   0.113208195  -0.160186702

   18    6.2  0.5 -0.5  -0.001267492  -0.037755038  -0.000400123  -0.037839296  -0.082328839   0.003589606  -0.004667322   0.007160049
                         0.000513968   0.015716008   0.000000542  -0.017501927  -0.130725363   0.005964844   0.000889725  -0.001172603

   19    7.2  0.5 -0.5  -0.000767796  -0.021638822   0.000019419  -0.006206979   0.059720193  -0.002697534  -0.025151035   0.035746212
                        -0.001843866  -0.052226233   0.000195911   0.013202678  -0.036216976   0.001921819  -0.075613104   0.107127327

   20    8.2  0.5 -0.5   0.000133058  -0.000026064  -0.000483269  -0.000266096   0.000183965  -0.001312306   0.001676195   0.001080205
                         0.015636663  -0.000578563  -0.056276599   0.000570861   0.003663355   0.084654791  -0.105728159  -0.075008240


   Nr   State  S   Sz        9            10            11            12            13            14            15            16

    1    1.2  1.5  1.5   0.000000842  -0.000000392   0.000000920   0.000000018   0.000004431  -0.000000973  -0.000024075   0.000000000
                        -0.000000000   0.000000000  -0.000000000   0.000000000   0.000000000  -0.000000000   0.000000000  -0.000000000

    2    1.2  1.5  0.5  -0.000000442  -0.000000942   0.000000005  -0.000000091  -0.000001686  -0.000007734   0.000000017  -0.000025247
                        -0.000000516  -0.000001112  -0.000000000   0.000000102   0.000000875   0.000004032   0.000000030  -0.000008210

    3    1.2  1.5 -0.5  -0.000001458   0.000000679   0.000000135   0.000000004  -0.000008720   0.000001899   0.000026548   0.000000025
                        -0.000000022   0.000000014   0.000000024  -0.000000003  -0.000000153   0.000000030  -0.000000094  -0.000000023

    4    1.2  1.5 -1.5   0.000000249   0.000000535   0.000000014  -0.000000722   0.000000871   0.000003965  -0.000000000   0.000022921
                         0.000000302   0.000000650  -0.000000011   0.000000570  -0.000000435  -0.000001979  -0.000000000   0.000007364

    5    1.2  0.5  0.5  -0.177941096  -0.367144287  -0.000256678   0.013426687  -0.088792087  -0.389280996   0.000000554  -0.000055137
                        -0.202053709  -0.435135498   0.000348666  -0.007203326   0.044205247   0.203635601   0.000000051  -0.000017638

    6    2.2  0.5  0.5  -0.003595197   0.003925872  -0.008995947   0.000474134   0.003176593  -0.000302626   0.000000662   0.000000060
                         0.607595504  -0.284196115   0.225964462   0.004863973  -0.307140236   0.066756049   0.000019961   0.000000078

    7    3.2  0.5  0.5  -0.119453437  -0.256100939  -0.007658265   0.401550101  -0.027981689  -0.128789567  -0.000000030   0.000011986
                         0.104673356   0.224321527  -0.008824464   0.468792878  -0.052863967  -0.239743009   0.000000014  -0.000042157

    8    4.2  0.5  0.5  -0.027022081  -0.057357617  -0.012028257   0.569222749   0.029821349   0.130547946  -0.000000072   0.000029207
                        -0.029004902  -0.061762611   0.009645522  -0.493018554  -0.016529641  -0.076296275  -0.000000006   0.000007555

    9    5.2  0.5  0.5   0.054210295  -0.025626262   0.011709683   0.000224427   0.753447835  -0.170120131   0.000063802   0.000000534
                         0.000243220  -0.000617987  -0.000647869   0.000034369   0.007614385   0.001755386  -0.000000310   0.000000097

   10    6.2  0.5  0.5  -0.000000066   0.000000027   0.000005973   0.000000121  -0.000003592   0.000000763   0.577260767  -0.000402385
                        -0.000000090   0.000000062   0.000000072  -0.000000009  -0.000000626   0.000000180  -0.001011607  -0.000976819

   11    7.2  0.5  0.5   0.000000079  -0.000000042  -0.000000094   0.000000008   0.000000540  -0.000000130   0.001012474   0.000308649
                        -0.000010064   0.000004679  -0.000005083  -0.000000094  -0.000057298   0.000012482   0.577741747  -0.000130764

   12    8.2  0.5  0.5   0.000003571   0.000007695   0.000000009  -0.000000734  -0.000006115  -0.000028148   0.000804578  -0.178451388
                        -0.000003051  -0.000006527   0.000000038  -0.000000655  -0.000011722  -0.000053993   0.000218122   0.548758234

   13    1.2  0.5 -0.5   0.569285303  -0.269083082   0.015000819   0.000417557   0.439247079  -0.099187330  -0.000057890  -0.000000543
                         0.007216172  -0.009112078  -0.002671942   0.000114447   0.008315979   0.000109569  -0.000000072  -0.000000121

   14    2.2  0.5 -0.5   0.217021006   0.467026273  -0.002643421   0.147146345   0.030088196   0.140030184   0.000000081  -0.000006735
                        -0.183533995  -0.388679408  -0.004110397   0.171723085   0.059591628   0.273380254  -0.000000056   0.000018802

   15    3.2  0.5 -0.5  -0.010609500   0.004981678   0.024440756   0.000538191   0.008144086  -0.001422925  -0.000001483   0.000000025
                         0.340287051  -0.158747655  -0.616775401  -0.011671784  -0.272024148   0.059795896   0.000043803   0.000000022

   16    4.2  0.5 -0.5   0.084135312  -0.039566074   0.752282755   0.015417610  -0.150880264   0.034064407   0.000030118   0.000000070
                         0.005075980  -0.002450086   0.033948328   0.000111260  -0.009951569   0.001469027   0.000001741   0.000000017

   17    5.2  0.5 -0.5   0.016753358   0.034618479   0.000154787  -0.009589505   0.152990962   0.670710555   0.000000539  -0.000060649
                         0.019401345   0.041717816  -0.000166101   0.006751134  -0.074415765  -0.343349632   0.000000071  -0.000019811

   18    6.2  0.5 -0.5  -0.000000065  -0.000000112   0.000000100  -0.000004642  -0.000000602  -0.000002934  -0.000681883  -0.549284423
                         0.000000018   0.000000006  -0.000000067   0.000003760   0.000000501   0.000002165   0.000806923  -0.177532079

   19    7.2  0.5 -0.5  -0.000003587  -0.000007723   0.000000064  -0.000003078   0.000005691   0.000026076   0.000253859  -0.177680024
                         0.000003004   0.000006453   0.000000069  -0.000004046   0.000011109   0.000051023   0.000218904   0.549742085

   20    8.2  0.5 -0.5   0.000000154  -0.000000088  -0.000000170   0.000000016   0.000001068  -0.000000235  -0.002047803  -0.000832734
                        -0.000010089   0.000004696   0.000000969   0.000000035  -0.000060880   0.000013219  -0.577040989  -0.000038431


   Nr   State  S   Sz       17            18            19            20

    1    1.2  1.5  1.5   0.000000000  -0.063955886   0.000000000   0.024380344
                        -0.000000000  -0.000000000   0.000000000   0.000000000

    2    1.2  1.5  0.5   0.011180738   0.000059264   0.044487680   0.000155461
                         0.021665536  -0.000021462  -0.045946621  -0.000056298

    3    1.2  1.5 -0.5  -0.000008353   0.024380218  -0.000148298   0.063954528
                        -0.000062475  -0.000096446   0.000073112  -0.000252993

    4    1.2  1.5 -1.5  -0.029554460   0.000000000   0.016889761   0.000000000
                        -0.056717627   0.000000000  -0.017582295   0.000000000

    5    1.2  0.5  0.5   0.032870053   0.000869703   0.068457342   0.000890466
                         0.062104196  -0.000037671  -0.070303930  -0.000100043

    6    2.2  0.5  0.5   0.000114107   0.000899603  -0.000048408   0.000998467
                        -0.000138985  -0.019158979  -0.000252083   0.119159105

    7    3.2  0.5  0.5  -0.098008860  -0.000044451  -0.032497309  -0.000036842
                         0.055788965  -0.000013256  -0.028186216   0.000084597

    8    4.2  0.5  0.5  -0.049221080  -0.000090173   0.047538718  -0.000025509
                        -0.084912933   0.000009028  -0.051727267  -0.000139675

    9    5.2  0.5  0.5  -0.000391018   0.093621011  -0.000744269   0.076165762
                        -0.000683728   0.000006968   0.000613223  -0.001343277

   10    6.2  0.5  0.5   0.000193821  -0.504869632  -0.001379523   0.620053711
                        -0.000490039   0.000854281  -0.000071130  -0.001251175

   11    7.2  0.5  0.5   0.000161010   0.001468894   0.000006965   0.000364518
                         0.000057081   0.789135337  -0.000447743   0.126769226

   12    8.2  0.5  0.5  -0.253320858  -0.000232887   0.536823468   0.001250231
                         0.130728628   0.000057103   0.519779350   0.001712896

   13    1.2  0.5 -0.5   0.000368488  -0.070264984   0.000689028  -0.098125469
                         0.000788681  -0.000451178  -0.000572868   0.000665315

   14    2.2  0.5 -0.5  -0.016574933   0.000070526  -0.085241896  -0.000148258
                         0.009651287  -0.000165419  -0.083268891  -0.000209543

   15    3.2  0.5 -0.5  -0.000032297  -0.004184428  -0.000086531   0.002185918
                        -0.000033295   0.112697098  -0.000032036  -0.042962305

   16    4.2  0.5 -0.5  -0.000033664   0.098048248   0.000083057  -0.070236979
                        -0.000084139   0.004411588   0.000115158  -0.001551307

   17    5.2  0.5 -0.5   0.043269099   0.000787038   0.053733428   0.000957836
                         0.083022159   0.000030809  -0.053997652  -0.000111925

   18    6.2  0.5 -0.5  -0.232546171   0.000345013   0.430451593   0.000904384
                        -0.448125377  -0.000398336  -0.446295414  -0.001044142

   19    7.2  0.5 -0.5   0.700503100  -0.000125025  -0.091169239  -0.000327723
                        -0.363362277  -0.000116410  -0.088083707  -0.000305156

   20    8.2  0.5 -0.5  -0.000056979   0.001128019  -0.000369172   0.002957049
                        -0.000232918   0.285061676  -0.002088254   0.747222366


 Composition of spin-orbit eigenvectors
 ======================================

   Nr   State  S   Sz       1        2        3        4        5        6        7        8        9       10

    1    1.2  1.5  1.5  92.230%   0.111%   7.138%   0.000%   0.000%   0.037%   0.010%   0.005%   0.000%   0.000%
    2    1.2  1.5  0.5   0.012%   7.126%   0.012%  92.329%   0.016%   0.000%   0.012%   0.024%   0.000%   0.000%
    3    1.2  1.5 -0.5   7.126%   0.012%  92.329%   0.012%   0.000%   0.016%   0.024%   0.012%   0.000%   0.000%
    4    1.2  1.5 -1.5   0.111%  92.230%   0.000%   7.138%   0.037%   0.000%   0.005%   0.010%   0.000%   0.000%
    5    1.2  0.5  0.5   0.000%   0.001%   0.000%   0.003%   3.846%   0.008%  11.308%  23.408%   7.249%  32.414%
    6    2.2  0.5  0.5   0.000%   0.000%   0.003%   0.000%   0.059%  30.632%   5.214%   2.641%  36.919%   8.078%
    7    3.2  0.5  0.5   0.000%   0.003%   0.000%   0.000%  26.951%   0.056%   3.802%   7.739%   2.523%  11.591%
    8    4.2  0.5  0.5   0.000%   0.003%   0.000%   0.001%  34.610%   0.070%   1.249%   2.608%   0.157%   0.710%
    9    5.2  0.5  0.5   0.002%   0.000%   0.002%   0.000%   0.000%   0.118%  25.881%  12.499%   0.294%   0.066%
   10    6.2  0.5  0.5   0.167%   0.000%   0.174%   0.000%   0.005%   2.387%   0.005%   0.002%   0.000%   0.000%
   11    7.2  0.5  0.5   0.320%   0.000%   0.021%   0.000%   0.001%   0.488%   1.275%   0.635%   0.000%   0.000%
   12    8.2  0.5  0.5   0.000%   0.024%   0.000%   0.317%   0.717%   0.001%   0.563%   1.118%   0.000%   0.000%
   13    1.2  0.5 -0.5   0.001%   0.000%   0.003%   0.000%   0.008%   3.846%  23.408%  11.308%  32.414%   7.249%
   14    2.2  0.5 -0.5   0.000%   0.000%   0.000%   0.003%  30.632%   0.059%   2.641%   5.214%   8.078%  36.919%
   15    3.2  0.5 -0.5   0.003%   0.000%   0.000%   0.000%   0.056%  26.951%   7.739%   3.802%  11.591%   2.523%
   16    4.2  0.5 -0.5   0.003%   0.000%   0.001%   0.000%   0.070%  34.610%   2.608%   1.249%   0.710%   0.157%
   17    5.2  0.5 -0.5   0.000%   0.002%   0.000%   0.002%   0.118%   0.000%  12.499%  25.881%   0.066%   0.294%
   18    6.2  0.5 -0.5   0.000%   0.167%   0.000%   0.174%   2.387%   0.005%   0.002%   0.005%   0.000%   0.000%
   19    7.2  0.5 -0.5   0.000%   0.320%   0.000%   0.021%   0.488%   0.001%   0.635%   1.275%   0.000%   0.000%
   20    8.2  0.5 -0.5   0.024%   0.000%   0.317%   0.000%   0.001%   0.717%   1.118%   0.563%   0.000%   0.000%

   Nr   State  S   Sz      11       12       13       14       15       16       17       18       19       20

    1    1.2  1.5  1.5   0.000%   0.000%   0.000%   0.000%   0.000%   0.000%   0.000%   0.409%   0.000%   0.059%
    2    1.2  1.5  0.5   0.000%   0.000%   0.000%   0.000%   0.000%   0.000%   0.059%   0.000%   0.409%   0.000%
    3    1.2  1.5 -0.5   0.000%   0.000%   0.000%   0.000%   0.000%   0.000%   0.000%   0.059%   0.000%   0.409%
    4    1.2  1.5 -1.5   0.000%   0.000%   0.000%   0.000%   0.000%   0.000%   0.409%   0.000%   0.059%   0.000%
    5    1.2  0.5  0.5   0.000%   0.023%   0.984%  19.301%   0.000%   0.000%   0.494%   0.000%   0.963%   0.000%
    6    2.2  0.5  0.5   5.114%   0.002%   9.435%   0.446%   0.000%   0.000%   0.000%   0.037%   0.000%   1.420%
    7    3.2  0.5  0.5   0.014%  38.101%   0.358%   7.406%   0.000%   0.000%   1.272%   0.000%   0.185%   0.000%
    8    4.2  0.5  0.5   0.024%  56.708%   0.116%   2.286%   0.000%   0.000%   0.963%   0.000%   0.494%   0.000%
    9    5.2  0.5  0.5   0.014%   0.000%  56.774%   2.894%   0.000%   0.000%   0.000%   0.876%   0.000%   0.580%
   10    6.2  0.5  0.5   0.000%   0.000%   0.000%   0.000%  33.323%   0.000%   0.000%  25.489%   0.000%  38.447%
   11    7.2  0.5  0.5   0.000%   0.000%   0.000%   0.000%  33.379%   0.000%   0.000%  62.274%   0.000%   1.607%
   12    8.2  0.5  0.5   0.000%   0.000%   0.000%   0.000%   0.000%  33.298%   8.126%   0.000%  55.835%   0.000%
   13    1.2  0.5 -0.5   0.023%   0.000%  19.301%   0.984%   0.000%   0.000%   0.000%   0.494%   0.000%   0.963%
   14    2.2  0.5 -0.5   0.002%   5.114%   0.446%   9.435%   0.000%   0.000%   0.037%   0.000%   1.420%   0.000%
   15    3.2  0.5 -0.5  38.101%   0.014%   7.406%   0.358%   0.000%   0.000%   0.000%   1.272%   0.000%   0.185%
   16    4.2  0.5 -0.5  56.708%   0.024%   2.286%   0.116%   0.000%   0.000%   0.000%   0.963%   0.000%   0.494%
   17    5.2  0.5 -0.5   0.000%   0.014%   2.894%  56.774%   0.000%   0.000%   0.876%   0.000%   0.580%   0.000%
   18    6.2  0.5 -0.5   0.000%   0.000%   0.000%   0.000%   0.000%  33.323%  25.489%   0.000%  38.447%   0.000%
   19    7.2  0.5 -0.5   0.000%   0.000%   0.000%   0.000%   0.000%  33.379%  62.274%   0.000%   1.607%   0.000%
   20    8.2  0.5 -0.5   0.000%   0.000%   0.000%   0.000%  33.298%   0.000%   0.000%   8.126%   0.000%  55.835%


 Property matrices transformed in SO basis (not sym. adapted)
 ============================================================

 No matrix element <i|DMX|i> larger than 5E-7
 No matrix element <i|DMX|1> larger than 5E-7

 No matrix element <i|DMY|i> larger than 5E-7
 No matrix element <i|DMY|1> larger than 5E-7

 No matrix element <i|DMZ|i> larger than 5E-7
 No matrix element <i|DMZ|1> larger than 5E-7


 **********************************************************************************************************************************
 DATASETS  * FILE   NREC   LENGTH (MB)   RECORD NAMES
              1      21       94.20       500      610      700      900      950      970     1000      129      960     1100   
                                          VAR    BASINP    GEOM    SYMINP    ZMAT    AOBASIS   BASIS     P2S    ABASIS      S 
                                         1400     1410     1420     1200     1210     1080     1700     1600     1650     1380   
                                           T        V       ECP      H0       H01     AOSYM    OPER      SMH    MOLCAS    JKOP   
                                         1700(1)
                                         OPER   

              2       7     3170.22       700     1000      520     2100     2140     5302     5102   
                                         GEOM     BASIS   MCVARS     RHF     MCSCF    MRCI     MRCI   

 PROGRAMS   *        TOTAL        CI        CI        CI     MULTI   RHF-SCF       INT
 CPU TIMES  *     54750.15  39608.63  14640.59    476.68     10.81      1.93     11.26
 REAL TIME  *     55511.94 SEC
 DISK USED  *         3.19 GB (local),       39.60 GB (total)
 SF USED    *        29.75 GB
 GA USED    *         0.00 MB       (max)       0.00 MB       (current)
 **********************************************************************************************************************************

 CI/USERDEF energy=   -332.166176075260

              CI              CI           MULTI         RHF-SCF
   -332.10907146   -332.19334907   -331.13010741   -331.21002577
 **********************************************************************************************************************************
 Molpro calculation terminated with 1 warning(s)
