
 Working directory              : /wrk/irikura/molpro.VvuAoJleHi/
 Global scratch directory       : /wrk/irikura/molpro.VvuAoJleHi/
 Wavefunction directory         : /home/irikura/wfu/
 Main file repository           : /wrk/irikura/molpro.VvuAoJleHi/

 id        : nistki

 Nodes            nprocs
 pn125343.nist.gov   28
 GA implementation: MPI file
 GA implementation (serial work in mppx): MPI file

 Using customized tuning parameters: mindgm=1; mindgv=20; mindgc=4; mindgr=1; noblas=0; minvec=7
 default implementation of scratch files=sf  


 Variables initialized (1042), CPU time= 0.01 sec
 ***,Te SO-CI
                                                                                 ! add some Rydberg states
                                                                                 ! active space (6/7)
 memory,1500,M;
 
 gprint,orbitals,civector;
 
 symmetry,xyz
 geometry={Te};
 
 basis={
 ecp,te,ECP28MDF;
 spdfghi,te,aug-cc-pwCV5Z-PP;C; spdf,1,even,nprim=1,ratio=3.0;
 }
 
 NT=6
 NS=6
 NQ=3
 PAR=1                                                                           ! parity even (1) or odd (2)
 
 {rhf;wf,charge=1,sym=2,spin=3}
 
 {multi
     closed,6,3
     occ,7,9
     wf,charge=0,sym=PAR,spin=2;state,NT;
     wf,charge=0,sym=PAR,spin=0;state,NS;
     wf,charge=0,sym=PAR,spin=4;state,NQ;
     expec2,lxx,lyy,lzz;
 }
 table, energy, ll
 title, Energies and &lt;L**2&gt; values
 
 core,0,0
 
 {ci;wf,sym=PAR,spin=2;state,NT; save,5302.2}
 hlsdiag = energd4
                                                                                 !hlsdiag(1) = energd
 {ci;wf,sym=PAR,spin=0;state,NS; save,5102.2}
 hlsdiag(NT+1) = energd4
 {ci;wf,sym=PAR,spin=4;state,NQ; save,5502.2}
 hlsdiag(NT+NS+1) = energd4
 
 table,hlsdiag
 
 {ci;hlsmat,ecp,5302.2,5102.2,5502.2;print,vls=0,hls=0}                          !compute and diagonalize SO matrix
 Commands initialized (847), CPU time= 0.01 sec, 718 directives.
 Default parameters read. Elapsed time= 0.13 sec

 Checking input...
 Passed
1


                                         ***  PROGRAM SYSTEM MOLPRO  ***
                                       Copyright, TTI GmbH Stuttgart, 2015
                                    Version 2024.1 linked Mon Jun 17 07:53:25 2024


 **********************************************************************************************************************************
 LABEL *   Te SO-CI                                                                                                                                                      
  (64 PROC) 64 bit mpp version                                                           DATE: 27-Jan-25          TIME: 15:30:17  
 **********************************************************************************************************************************

 SHA1:             0134236b472f03f1f5189f93707d8671e415b05c
 **********************************************************************************************************************************

 Memory per process:      1500 MW
 Total memory per node:  42000 MW

 GA preallocation disabled
 GA check disabled

 Variable memory set to 1500.0 MW


 ZSYMEL=XYZ

 SETTING BASIS          =    USERDEF
 SETTING NT             =         6.00000000                                  
 SETTING NS             =         6.00000000                                  
 SETTING NQ             =         3.00000000                                  
 SETTING PAR            =         1.00000000                                  


 Recomputing integrals since basis changed


 Using spherical harmonics

 Library entry Te   ECP ECP28MDF                 selected for group  1
 Library entry TE     S AUG-CC-PWCV5Z-PP     selected for orbital group  1
 Even tempered Te S diffuse               selected for group 1    nprim= 1    centre=  0.009    ratio= 3.000    dratio= 1.000
 Library entry TE     P AUG-CC-PWCV5Z-PP     selected for orbital group  1
 Even tempered Te P diffuse               selected for group 1    nprim= 1    centre=  0.007    ratio= 3.000    dratio= 1.000
 Library entry TE     D AUG-CC-PWCV5Z-PP     selected for orbital group  1
 Even tempered Te D diffuse               selected for group 1    nprim= 1    centre=  0.015    ratio= 3.000    dratio= 1.000
 Library entry TE     F AUG-CC-PWCV5Z-PP     selected for orbital group  1
 Even tempered Te F diffuse               selected for group 1    nprim= 1    centre=  0.025    ratio= 3.000    dratio= 1.000
 Library entry TE     G AUG-CC-PWCV5Z-PP     selected for orbital group  1
 Library entry TE     H AUG-CC-PWCV5Z-PP     selected for orbital group  1
 Library entry TE     I AUG-CC-PWCV5Z-PP     selected for orbital group  1


 PROGRAM * SEWARD (Integral evaluation for generally contracted gaussian basis sets)     Author: Roland Lindh, 1990

 Geometry written to block  1 of record 700

 Orientation using atomic masses  
 Molecule type: Atom
 User-specified symmetry elements: XYZ
 Symmetry elements: XYZ
 Rotational constants:       0.0000000      0.0000000      0.0000000 GHz  (calculated with average atomic masses)

 Point group  Ci  



 ATOMIC COORDINATES

 NR  ATOM    CHARGE       X              Y              Z

   1  TE     24.00    0.000000000    0.000000000    0.000000000

 NUCLEAR CHARGE:                   24
 NUMBER OF PRIMITIVE AOS:         485
 NUMBER OF SYMMETRY AOS:          348
 NUMBER OF CONTRACTIONS:          281   (  135Ag  +  146Au  )
 NUMBER OF INNER CORE ORBITALS:     0   (    0Ag  +    0Au  )
 NUMBER OF OUTER CORE ORBITALS:     9   (    6Ag  +    3Au  )
 NUMBER OF VALENCE ORBITALS:        4   (    1Ag  +    3Au  )


 LX: Ag           LY: Ag           LZ: Ag 


 NUCLEAR REPULSION ENERGY    0.00000000

 EXTRA SYMMETRY OF AOS IN SYMMETRY 1:   1 1 1 1 1 1 1 1 1 1   1 1 1 2 3 4 5 6 2 3   4 5 6 2 3 4 5 6 2 3   4 5 6 2 3 4 5 6 2 3
                                        4 5 6 2 3 4 5 6 2 3   4 5 6 2 3 4 5 6 2 3   4 5 6 2 3 4 5 6 7 8   9101112131415 7 8 9
                                       101112131415 7 8 910  1112131415 7 8 91011  12131415 7 8 9101112  131415 7 8 910111213
                                       14151617181920212223  2425262728
 EXTRA SYMMETRY OF AOS IN SYMMETRY 2:   1 2 3 1 2 3 1 2 3 1   2 3 1 2 3 1 2 3 1 2   3 1 2 3 1 2 3 1 2 3   1 2 3 1 2 3 1 2 3 4
                                        5 6 7 8 910 4 5 6 7   8 910 4 5 6 7 8 910   4 5 6 7 8 910 4 5 6   7 8 910 4 5 6 7 8 9
                                       10 4 5 6 7 8 910 4 5   6 7 8 910 4 5 6 7 8   9101112131415161718  19202111121314151617
                                       18192021111213141516  17181920211112131415  161718192021


 Eigenvalues of metric

         1 0.549E-05 0.283E-04 0.217E-03 0.217E-03 0.217E-03 0.217E-03 0.217E-03 0.268E-03
         2 0.224E-06 0.224E-06 0.224E-06 0.401E-03 0.401E-03 0.401E-03 0.254E-02 0.254E-02


 Contracted 2-electron integrals neglected if value below      1.0D-14
 AO integral compression algorithm  1   Integral accuracy      1.0D-14

     910.426 MB (compressed) written to integral file ( 17.6%)

     Node minimum: 21.234 MB, node maximum: 54.264 MB


 NUMBER OF SORTED TWO-ELECTRON INTEGRALS:   14108412.     BUFFER LENGTH:  32768
 NUMBER OF SEGMENTS:   1  SEGMENT LENGTH:   14108412      RECORD LENGTH: 524288

 Memory used in sort:      14.67 MW

 SORT1 READ   646821870. AND WROTE     2419204. INTEGRALS IN      7 RECORDS. CPU TIME:     4.38 SEC, REAL TIME:     4.55 SEC
 SORT2 READ    68066261. AND WROTE   395255076. INTEGRALS IN   2828 RECORDS. CPU TIME:     0.26 SEC, REAL TIME:     0.32 SEC

 Node minimum:    14103376.  Node maximum:    14140936. integrals

 OPERATOR DM      FOR CENTER  0  COORDINATES:    0.000000    0.000000    0.000000


 **********************************************************************************************************************************
 DATASETS  * FILE   NREC   LENGTH (MB)   RECORD NAMES
              1      19       30.69       500      610      700      900      950      970     1000      129      960     1100   
                                          VAR    BASINP    GEOM    SYMINP    ZMAT    AOBASIS   BASIS     P2S    ABASIS      S 
                                         1400     1410     1420     1200     1210     1080     1700     1600     1650   
                                           T        V       ECP      H0       H01     AOSYM    OPER      SMH    MOLCAS    

 PROGRAMS   *        TOTAL       INT
 CPU TIMES  *         9.53      9.32
 REAL TIME  *        11.18 SEC
 DISK USED  *        31.11 MB (local),        2.42 GB (total)
 GA USED    *         0.00 MB       (max)       0.00 MB       (current)
 **********************************************************************************************************************************


 Program * Restricted Hartree-Fock

 Orbital guess generated from atomic densities.

 Initial alpha occupancy:   7   6
 Initial beta  occupancy:   7   3

 NELEC=   23   SYM=2   MS2= 3   THRE=1.0D-08   THRD=3.2D-06   THRG=3.2D-06  HFMA2=F  DIIS_START=2   DIIS_MAX=10   DIIS_INCORE=F

 Level shifts:    0.00 (CLOSED)    0.00 (OPEN)    0.30 (GAP_MIN)

 ITER           ETOT              DE          GRAD        DDIFF     DIIS  NEXP   TIME(IT)  TIME(TOT)  DIAG
   1     -266.67494472    -266.67494472     0.00D+00     0.45D-01     0     0       0.09      0.18    start
   2     -266.71783667      -0.04289196     0.27D-02     0.27D-02     1     0       0.10      0.28    diag2
   3     -266.72026872      -0.00243204     0.15D-02     0.58D-03     2     0       0.11      0.39    diag2
   4     -266.72071079      -0.00044207     0.28D-03     0.37D-03     3     0       0.10      0.49    diag2
   5     -266.72073556      -0.00002477     0.61D-04     0.14D-03     4     0       0.10      0.59    diag2
   6     -266.72073571      -0.00000015     0.64D-05     0.22D-04     5     0       0.10      0.69    diag2
   7     -266.72073571      -0.00000000     0.78D-06     0.22D-05     6     0       0.10      0.79    diag2
   8     -266.72073571      -0.00000000     0.54D-07     0.20D-06     0     0       0.10      0.89    fixocc

 Final alpha occupancy:   7   6
 Final beta  occupancy:   7   3

 !RHF STATE 1.2 Energy               -266.720735711546
  RHF One-electron energy            -459.058938876967
  RHF Two-electron energy             192.338203165422
  RHF Kinetic energy                  102.493374858533
  RHF Nuclear energy                    0.000000000000
  RHF Virial quotient                  -2.602321721572

 !RHF STATE 1.2 Dipole moment           0.00000000     0.00000000     0.00000000
 Dipole moment /Debye                   0.00000000     0.00000000     0.00000000

 ELECTRON ORBITALS
 =================

  Orbital  Occupation    Energy    Cen Mu Typ  Coefficients
    1.1     2.00000    -7.45861     1  1  s    1.00014
    2.1     2.00000    -2.27825     1  1  d0  -0.36919    1  1  d2- -0.25982    1  1  d2+  0.63686    1  1  d1- -0.60724
    3.1     2.00000    -2.27825     1  1  d2-  0.72454    1  1  d1+  0.68296
    4.1     2.00000    -2.27825     1  1  d0   0.71732    1  1  d2+  0.63253
    5.1     2.00000    -2.27825     1  1  d0   0.47604    1  1  d2- -0.56679    1  1  d1+  0.65479
    6.1     2.00000    -2.27825     1  1  d0  -0.34853    1  1  d2+  0.40672    1  1  d1-  0.78828
    7.1     2.00000    -1.03500     1  1  s   -0.44110    1  5  s    0.66288    1  6  s    0.50394
    1.2     2.00000    -5.42335     1  1  py   0.74560    1  1  pz   0.66599
    2.2     2.00000    -5.42335     1  1  px   0.76029    1  1  py  -0.41304    1  1  pz   0.50201
    3.2     2.00000    -5.42335     1  1  px   0.64917    1  1  py   0.52358    1  1  pz  -0.55237
    4.2     1.00000    -0.69090     1  1  py  -0.27423    1  5  py   0.47126    1  5  pz   0.32501    1  6  py   0.26610
    5.2     1.00000    -0.69090     1  5  px   0.41315    1  5  pz   0.33501
    6.2     1.00000    -0.69090     1  5  px   0.39627    1  5  pz  -0.33211


 HOMO      6.2    -0.690899 =     -18.8003eV
 LUMO      8.1    -0.116665 =      -3.1746eV
 LUMO-HOMO         0.574235 =      15.6257eV

 Orbitals saved in record  2100.2


 **********************************************************************************************************************************
 DATASETS  * FILE   NREC   LENGTH (MB)   RECORD NAMES
              1      19       30.69       500      610      700      900      950      970     1000      129      960     1100   
                                          VAR    BASINP    GEOM    SYMINP    ZMAT    AOBASIS   BASIS     P2S    ABASIS      S 
                                         1400     1410     1420     1200     1210     1080     1700     1600     1650   
                                           T        V       ECP      H0       H01     AOSYM    OPER      SMH    MOLCAS    

              2       4        1.64       700     1000      520     2100   
                                         GEOM     BASIS   MCVARS     RHF  

 PROGRAMS   *        TOTAL   RHF-SCF       INT
 CPU TIMES  *        10.44      0.90      9.32
 REAL TIME  *        12.19 SEC
 DISK USED  *        37.02 MB (local),        2.59 GB (total)
 GA USED    *         0.00 MB       (max)       0.00 MB       (current)
 **********************************************************************************************************************************

 PROGRAM * MULTI (Direct Multiconfiguration SCF)       Authors: P.J. Knowles, H.-J. Werner (1984)
                                                                D.A. Kreplin, P.J. Knowles, H.-J. Werner (2019)

 Number of closed-shell orbitals:   9 (    6    3)
 Number of active  orbitals:        7 (    1    6)
 Number of external orbitals:     265 (  128  137)

 State symmetry 1

 Number of active electrons:   6    Spin symmetry=Triplet   Space symmetry=1
 Number of states:             6
 Number of CSFs:             294   (345 determinants, 735 intermediate states)

 State symmetry 2

 Number of active electrons:   6    Spin symmetry=Singlet   Space symmetry=1
 Number of states:             6
 Number of CSFs:             280   (625 determinants, 1225 intermediate states)

 State symmetry 3

 Number of active electrons:   6    Spin symmetry=Quintet   Space symmetry=1
 Number of states:             3
 Number of CSFs:              50   (51 determinants, 147 intermediate states)

 Molecular orbitals read from record     2100.2  Type=RHF/CANONICAL  
 *** IN SYMMETRY 1 ORBITAL  2 SYMMETRY CONTAMINATION OF 0.686D+00 HAS BEEN REMOVED
 *** IN SYMMETRY 1 ORBITAL  3 SYMMETRY CONTAMINATION OF 0.536D+00 HAS BEEN REMOVED
 *** IN SYMMETRY 1 ORBITAL  4 SYMMETRY CONTAMINATION OF 0.610D+00 HAS BEEN REMOVED
 *** IN SYMMETRY 1 ORBITAL  5 SYMMETRY CONTAMINATION OF 0.654D+00 HAS BEEN REMOVED
 *** IN SYMMETRY 1 ORBITAL  6 SYMMETRY CONTAMINATION OF 0.601D+00 HAS BEEN REMOVED

 EXTRA SYMMETRY OF MOS IN SYMMETRY 1:   1 5 3 2 4 6 1 1 5 6   2 4 3 1 4 5 3 2 6 1   3 5 6 4 215 914 812  13 71011 3 4 5 2 6 1
                                        814121115 7 91013 3   4 6 2 5 114 8111210   9 71315 3 6 4 5 2 1  13 912151110 8 714 3
                                        6 4 5 2192022282726  161725232118241415 9  1113 710 812 1 6 3 4   5 21415 91113 710 8
                                       12 1 3 6 2 4 5 3 5 2   4 6 1 1 1
 *** IN SYMMETRY 2 ORBITAL  1 SYMMETRY CONTAMINATION OF 0.484D+00 HAS BEEN REMOVED
 *** IN SYMMETRY 2 ORBITAL  2 SYMMETRY CONTAMINATION OF 0.546D+00 HAS BEEN REMOVED
 *** IN SYMMETRY 2 ORBITAL  3 SYMMETRY CONTAMINATION OF 0.680D+00 HAS BEEN REMOVED
 *** IN SYMMETRY 2 ORBITAL  4 SYMMETRY CONTAMINATION OF 0.423D+00 HAS BEEN REMOVED
 *** IN SYMMETRY 2 ORBITAL  5 SYMMETRY CONTAMINATION OF 0.570D+00 HAS BEEN REMOVED
 *** IN SYMMETRY 2 ORBITAL  6 SYMMETRY CONTAMINATION OF 0.659D+00 HAS BEEN REMOVED
 *** IN SYMMETRY 2 ORBITAL  7 SYMMETRY CONTAMINATION OF 0.220D+00 HAS BEEN REMOVED
 *** IN SYMMETRY 2 ORBITAL  9 SYMMETRY CONTAMINATION OF 0.220D+00 HAS BEEN REMOVED
 EXTRA SYMMETRY OF MOS IN SYMMETRY 2:   2 1 3 2 1 3 2 1 3 2   1 3 5 9 410 6 7 8 2   1 3 8 910 4 5 7 6 2   3 1 810 9 7 6 5 4 9
                                        8 6 410 5 718131519  11202114161217 3 1 2   7 4 6 910 8 5171413  211911122016181510 8
                                        6 7 5 4 9 2 1 310 7   6 4 5 8 91416201819  112113171215 1 3 210   8 6 4 5 7 915172013
                                       19111821121416 3 1 2  10 8 6 4 5 7 9 1 3 2   1 3 2 1 2 3

 Wavefunction dump at record             2140.2

 Convergence thresholds  0.10E-04 (gradient)  0.10E-05 (energy)

 Weight factors for state symmetry  1:    0.06667   0.06667   0.06667   0.06667   0.06667   0.06667
 Weight factors for state symmetry  2:    0.06667   0.06667   0.06667   0.06667   0.06667   0.06667
 Weight factors for state symmetry  3:    0.06667   0.06667   0.06667
 
 Number of orbital rotations:  2153  ( 24 closed/active, 1179 closed/virtual, 0 active/active, 950 active/virtual )
 Total number of variables:    8126
 
 Second-order MCSCF: L-BFGS accelerated
 
 ITER  MIC  NCI  NEG     ENERGY(VAR)    ENERGY(PROJ) ENERGY CHANGE       GRAD(0)  GRAD(ORB)   GRAD(CI)      STEP      TIME
   1    5   20    0   -266.88387849    -266.89323253   -0.00935404    0.11393224 0.00006813 0.00005579  0.17E+00      4.78
   2    7   24    0   -266.89334426    -266.89334840   -0.00000414    0.00258020 0.00000162 0.00000128  0.42E-02     10.01
   3    6   21    0   -266.89334840    -266.89334840   -0.00000000    0.00000183 0.00000000 0.00000000  0.14E-04     15.13

 CONVERGENCE REACHED!  Final gradient:    0.00000013 ( 0.13E-06)
                       Final energy:   -266.89334840
 
 Results for state 1.1 Triplet
 =============================
 !MCSCF STATE 1.1 Triplet Energy              -266.998361611501
 Nuclear energy                                  0.00000000
 Kinetic energy                                102.89339403
 One electron energy                          -467.21731925
 Two electron energy                           200.21895763
 Virial ratio                                    3.59490285
 
 !MCSCF STATE 1.1 Triplet Dipole moment          0.00000000     0.00000000     0.00000000
 Dipole moment /Debye                            0.00000000     0.00000000     0.00000000
 
 Results for state 2.1 Triplet
 =============================
 !MCSCF STATE 2.1 Triplet Energy              -266.998361611366
 Nuclear energy                                  0.00000000
 Kinetic energy                                102.89339406
 One electron energy                          -467.21731927
 Two electron energy                           200.21895766
 Virial ratio                                    3.59490285
 
 !MCSCF STATE 2.1 Triplet Dipole moment          0.00000000     0.00000000     0.00000000
 Dipole moment /Debye                            0.00000000     0.00000000     0.00000000
 
 Results for state 3.1 Triplet
 =============================
 !MCSCF STATE 3.1 Triplet Energy              -266.998361611231
 Nuclear energy                                  0.00000000
 Kinetic energy                                102.89339410
 One electron energy                          -467.21731930
 Two electron energy                           200.21895769
 Virial ratio                                    3.59490285
 
 !MCSCF STATE 3.1 Triplet Dipole moment          0.00000000     0.00000000     0.00000000
 Dipole moment /Debye                            0.00000000     0.00000000     0.00000000
 
 Results for state 4.1 Triplet
 =============================
 !MCSCF STATE 4.1 Triplet Energy              -266.781435048435
 Nuclear energy                                  0.00000000
 Kinetic energy                                102.28460197
 One electron energy                          -461.48757648
 Two electron energy                           194.70614144
 Virial ratio                                    3.60822675
 
 !MCSCF STATE 4.1 Triplet Dipole moment          0.00000000     0.00000000     0.00000000
 Dipole moment /Debye                            0.00000000     0.00000000     0.00000000
 
 Results for state 5.1 Triplet
 =============================
 !MCSCF STATE 5.1 Triplet Energy              -266.781435048393
 Nuclear energy                                  0.00000000
 Kinetic energy                                102.28460198
 One electron energy                          -461.48757649
 Two electron energy                           194.70614145
 Virial ratio                                    3.60822675
 
 !MCSCF STATE 5.1 Triplet Dipole moment          0.00000000     0.00000000     0.00000000
 Dipole moment /Debye                            0.00000000     0.00000000     0.00000000
 
 Results for state 6.1 Triplet
 =============================
 !MCSCF STATE 6.1 Triplet Energy              -266.781435048337
 Nuclear energy                                  0.00000000
 Kinetic energy                                102.28460199
 One electron energy                          -461.48757651
 Two electron energy                           194.70614146
 Virial ratio                                    3.60822675
 
 !MCSCF STATE 6.1 Triplet Dipole moment          0.00000000     0.00000000     0.00000000
 Dipole moment /Debye                            0.00000000     0.00000000     0.00000000
 
 Results for state 1.1 Singlet
 =============================
 !MCSCF STATE 1.1 Singlet Energy              -266.954323335029
 Nuclear energy                                  0.00000000
 Kinetic energy                                102.86934353
 One electron energy                          -467.11300504
 Two electron energy                           200.15868171
 Virial ratio                                    3.59508143
 
 !MCSCF STATE 1.1 Singlet Dipole moment          0.00000000     0.00000000     0.00000000
 Dipole moment /Debye                            0.00000000     0.00000000     0.00000000
 
 Results for state 2.1 Singlet
 =============================
 !MCSCF STATE 2.1 Singlet Energy              -266.954323334994
 Nuclear energy                                  0.00000000
 Kinetic energy                                102.86934354
 One electron energy                          -467.11300505
 Two electron energy                           200.15868171
 Virial ratio                                    3.59508143
 
 !MCSCF STATE 2.1 Singlet Dipole moment          0.00000000     0.00000000     0.00000000
 Dipole moment /Debye                            0.00000000     0.00000000     0.00000000
 
 Results for state 3.1 Singlet
 =============================
 !MCSCF STATE 3.1 Singlet Energy              -266.954323334757
 Nuclear energy                                  0.00000000
 Kinetic energy                                102.86934357
 One electron energy                          -467.11300507
 Two electron energy                           200.15868174
 Virial ratio                                    3.59508143
 
 !MCSCF STATE 3.1 Singlet Dipole moment          0.00000000     0.00000000     0.00000000
 Dipole moment /Debye                            0.00000000     0.00000000     0.00000000
 
 Results for state 4.1 Singlet
 =============================
 !MCSCF STATE 4.1 Singlet Energy              -266.954323334523
 Nuclear energy                                  0.00000000
 Kinetic energy                                102.86934360
 One electron energy                          -467.11300510
 Two electron energy                           200.15868177
 Virial ratio                                    3.59508143
 
 !MCSCF STATE 4.1 Singlet Dipole moment          0.00000000     0.00000000     0.00000000
 Dipole moment /Debye                            0.00000000     0.00000000     0.00000000
 
 Results for state 5.1 Singlet
 =============================
 !MCSCF STATE 5.1 Singlet Energy              -266.954323334486
 Nuclear energy                                  0.00000000
 Kinetic energy                                102.86934361
 One electron energy                          -467.11300511
 Two electron energy                           200.15868177
 Virial ratio                                    3.59508143
 
 !MCSCF STATE 5.1 Singlet Dipole moment          0.00000000     0.00000000     0.00000000
 Dipole moment /Debye                            0.00000000     0.00000000     0.00000000
 
 Results for state 6.1 Singlet
 =============================
 !MCSCF STATE 6.1 Singlet Energy              -266.914475767166
 Nuclear energy                                  0.00000000
 Kinetic energy                                102.83510334
 One electron energy                          -466.87307636
 Two electron energy                           199.95860059
 Virial ratio                                    3.59555801
 
 !MCSCF STATE 6.1 Singlet Dipole moment          0.00000000     0.00000000     0.00000000
 Dipole moment /Debye                            0.00000000     0.00000000     0.00000000
 
 Results for state 1.1 Quintet
 =============================
 !MCSCF STATE 1.1 Quintet Energy              -266.791581188984
 Nuclear energy                                  0.00000000
 Kinetic energy                                102.21843560
 One electron energy                          -461.20343874
 Two electron energy                           194.41185755
 Virial ratio                                    3.61001433
 
 !MCSCF STATE 1.1 Quintet Dipole moment          0.00000000     0.00000000     0.00000000
 Dipole moment /Debye                            0.00000000     0.00000000     0.00000000
 
 Results for state 2.1 Quintet
 =============================
 !MCSCF STATE 2.1 Quintet Energy              -266.791581188978
 Nuclear energy                                  0.00000000
 Kinetic energy                                102.21843560
 One electron energy                          -461.20343875
 Two electron energy                           194.41185756
 Virial ratio                                    3.61001432
 
 !MCSCF STATE 2.1 Quintet Dipole moment          0.00000000     0.00000000     0.00000000
 Dipole moment /Debye                            0.00000000     0.00000000     0.00000000
 
 Results for state 3.1 Quintet
 =============================
 !MCSCF STATE 3.1 Quintet Energy              -266.791581188970
 Nuclear energy                                  0.00000000
 Kinetic energy                                102.21843561
 One electron energy                          -461.20343876
 Two electron energy                           194.41185757
 Virial ratio                                    3.61001432
 
 !MCSCF STATE 3.1 Quintet Dipole moment          0.00000000     0.00000000     0.00000000
 Dipole moment /Debye                            0.00000000     0.00000000     0.00000000
 
 State-averaged charge density matrix saved on record 2140.2 (density set 1)
 
 No non-zero expectation values
 
 Expectation values for two-electron operators:
 
 ? Warning
 ? Transition properties are only calculated between states of the same symmetry
 ? The problem occurs in mu_properties_expec2

 !MCSCF expec      <1.1 Triplet|LXLX|1.1 Triplet>     0.999999985944
 !MCSCF expec      <2.1 Triplet|LXLX|2.1 Triplet>     0.000000015441
 !MCSCF expec      <3.1 Triplet|LXLX|3.1 Triplet>     0.999999999745
 !MCSCF expec      <4.1 Triplet|LXLX|4.1 Triplet>     0.999999992771
 !MCSCF expec      <5.1 Triplet|LXLX|5.1 Triplet>     0.000000082182
 !MCSCF expec      <6.1 Triplet|LXLX|6.1 Triplet>     0.999999921601
 !MCSCF expec      <1.1 Singlet|LXLX|1.1 Singlet>     1.992376815800
 !MCSCF expec      <2.1 Singlet|LXLX|2.1 Singlet>     1.000000001018
 !MCSCF expec      <3.1 Singlet|LXLX|3.1 Singlet>     3.999999999940
 !MCSCF expec      <4.1 Singlet|LXLX|4.1 Singlet>     1.000000000906
 !MCSCF expec      <5.1 Singlet|LXLX|5.1 Singlet>     2.007623182334
 !MCSCF expec      <6.1 Singlet|LXLX|6.1 Singlet>     0.000000000001
 !MCSCF expec      <1.1 Quintet|LXLX|1.1 Quintet>     0.999999999985
 !MCSCF expec      <2.1 Quintet|LXLX|2.1 Quintet>     0.000000178400
 !MCSCF expec      <3.1 Quintet|LXLX|3.1 Quintet>     0.999999999991
 
 !MCSCF expec      <1.1 Triplet|LYLY|1.1 Triplet>     0.000000016896
 !MCSCF expec      <2.1 Triplet|LYLY|2.1 Triplet>     0.999999986770
 !MCSCF expec      <3.1 Triplet|LYLY|3.1 Triplet>     0.999999998008
 !MCSCF expec      <4.1 Triplet|LYLY|4.1 Triplet>     0.000000014810
 !MCSCF expec      <5.1 Triplet|LYLY|5.1 Triplet>     0.999999992177
 !MCSCF expec      <6.1 Triplet|LYLY|6.1 Triplet>     0.999999986869
 !MCSCF expec      <1.1 Singlet|LYLY|1.1 Singlet>     3.735849817058
 !MCSCF expec      <2.1 Singlet|LYLY|2.1 Singlet>     3.999999999637
 !MCSCF expec      <3.1 Singlet|LYLY|3.1 Singlet>     1.000000000016
 !MCSCF expec      <4.1 Singlet|LYLY|4.1 Singlet>     1.000000000102
 !MCSCF expec      <5.1 Singlet|LYLY|5.1 Singlet>     0.264150183186
 !MCSCF expec      <6.1 Singlet|LYLY|6.1 Singlet>     0.000000000001
 !MCSCF expec      <1.1 Quintet|LYLY|1.1 Quintet>     0.000000003396
 !MCSCF expec      <2.1 Quintet|LYLY|2.1 Quintet>     0.999999821660
 !MCSCF expec      <3.1 Quintet|LYLY|3.1 Quintet>     0.999999996755
 
 !MCSCF expec      <1.1 Triplet|LZLZ|1.1 Triplet>     0.999999997160
 !MCSCF expec      <2.1 Triplet|LZLZ|2.1 Triplet>     0.999999997789
 !MCSCF expec      <3.1 Triplet|LZLZ|3.1 Triplet>     0.000000002247
 !MCSCF expec      <4.1 Triplet|LZLZ|4.1 Triplet>     0.999999992403
 !MCSCF expec      <5.1 Triplet|LZLZ|5.1 Triplet>     0.999999925624
 !MCSCF expec      <6.1 Triplet|LZLZ|6.1 Triplet>     0.000000091513
 !MCSCF expec      <1.1 Singlet|LZLZ|1.1 Singlet>     0.271773367141
 !MCSCF expec      <2.1 Singlet|LZLZ|2.1 Singlet>     0.999999999345
 !MCSCF expec      <3.1 Singlet|LZLZ|3.1 Singlet>     1.000000000043
 !MCSCF expec      <4.1 Singlet|LZLZ|4.1 Singlet>     3.999999998991
 !MCSCF expec      <5.1 Singlet|LZLZ|5.1 Singlet>     3.728226634479
 !MCSCF expec      <6.1 Singlet|LZLZ|6.1 Singlet>     0.000000000001
 !MCSCF expec      <1.1 Quintet|LZLZ|1.1 Quintet>     0.999999996601
 !MCSCF expec      <2.1 Quintet|LZLZ|2.1 Quintet>     0.999999999921
 !MCSCF expec      <3.1 Quintet|LZLZ|3.1 Quintet>     0.000000003235
 
 !MCSCF expec      <1.1 Triplet|L**2|1.1 Triplet>     2.000000000000
 !MCSCF expec      <2.1 Triplet|L**2|2.1 Triplet>     2.000000000000
 !MCSCF expec      <3.1 Triplet|L**2|3.1 Triplet>     2.000000000000
 !MCSCF expec      <4.1 Triplet|L**2|4.1 Triplet>     1.999999999984
 !MCSCF expec      <5.1 Triplet|L**2|5.1 Triplet>     1.999999999984
 !MCSCF expec      <6.1 Triplet|L**2|6.1 Triplet>     1.999999999984
 !MCSCF expec      <1.1 Singlet|L**2|1.1 Singlet>     5.999999999999
 !MCSCF expec      <2.1 Singlet|L**2|2.1 Singlet>     5.999999999999
 !MCSCF expec      <3.1 Singlet|L**2|3.1 Singlet>     5.999999999999
 !MCSCF expec      <4.1 Singlet|L**2|4.1 Singlet>     5.999999999999
 !MCSCF expec      <5.1 Singlet|L**2|5.1 Singlet>     5.999999999999
 !MCSCF expec      <6.1 Singlet|L**2|6.1 Singlet>     0.000000000002
 !MCSCF expec      <1.1 Quintet|L**2|1.1 Quintet>     1.999999999981
 !MCSCF expec      <2.1 Quintet|L**2|2.1 Quintet>     1.999999999981
 !MCSCF expec      <3.1 Quintet|L**2|3.1 Quintet>     1.999999999981
 
 EXTRA SYMMETRY OF MOS IN SYMMETRY 1:   1 4 2 6 3 5 1 1 4 3   5 2 6 1 4 3 5 2 6 1   3 5 4 2 6 910131415   812 711 3 5 4 6 2 1
                                       10131415 9 812 711 3   5 4 6 2 113101415 8  1211 9 7 3 5 6 4 2 1  13101514 812 911 7 4
                                        3 5 2 6221618202419  23262717212528 9 7 8  121114151310 1 4 2 6   3 5 9 7 81211141513
                                       10 1 4 2 6 3 5 4 2 6   3 5 1 1 1
 EXTRA SYMMETRY OF MOS IN SYMMETRY 2:   2 1 3 3 2 1 2 3 1 1   3 2 4 6 810 9 7 5 1   3 2 4 9 7 810 6 5 1   2 3 4 7 9 810 6 5 4
                                        6 810 7 9 518201517  11141621131912 2 1 3   4 6 810 9 7 5201817  1514162113121911 7 9
                                        4 810 6 5 2 1 3 4 6  10 8 5 9 72018151714  162113121911 2 1 3 4   6 510 8 9 711192113
                                       12141615172018 3 1 2   4 6 5 810 7 9 3 1 2   3 2 1 2 1 3
 
  NATURAL ORBITALS (STATE AVERAGED)
  =================================

  Orbital  Occupation    Energy    Cen Mu Typ  Coefficients
    1.1     2.00000    -7.21329     1  1  s    0.99995
    2.1     2.00000    -2.03344     1  1  d1+  1.00037
    3.1     2.00000    -2.03344     1  1  d0   1.00037
    4.1     2.00000    -2.03344     1  1  d1-  1.00037
    5.1     2.00000    -2.03344     1  1  d2-  1.00037
    6.1     2.00000    -2.03344     1  1  d2+  1.00037
    7.1     1.99517    -0.81127     1  1  s   -0.43183    1  5  s    0.61338    1  6  s    0.51177
    1.2     2.00000    -5.17843     1  1  py   1.00032
    2.2     2.00000    -5.17843     1  1  px   1.00032
    3.2     2.00000    -5.17843     1  1  pz  -1.00032
    4.2     1.19925    -0.28134     1  1  pz   0.31610    1  5  pz  -0.49678    1  6  pz  -0.37192
    5.2     1.19925    -0.28134     1  1  py  -0.31610    1  5  py   0.49678    1  6  py   0.37192
    6.2     1.19925    -0.28134     1  1  px  -0.31610    1  5  px   0.49678    1  6  px   0.37192
    7.2     0.13569     0.03848     1 12  py   0.79716    1 13  py   0.26769
    8.2     0.13569     0.03848     1 12  pz   0.79716    1 13  pz   0.26769
    9.2     0.13569     0.03848     1 12  px   0.79716    1 13  px   0.26769
 
 Natural orbital dump (state averaged) at molpro section 2140.2 (Orbital set 2)
 
 Transform the CI vectors
 
 CI Coefficients of symmetry 1 (Triplet)
 =======================================
 
 2 2aa000       0.00005313      0.00004689      0.99712054     -0.00000580     -0.00001816      0.06659213
 2 aa2000       0.00011822      0.99712053     -0.00004689      0.00000566     -0.06659214     -0.00001816
 2 a2a000       0.99712053     -0.00011822     -0.00005313      0.06659214      0.00000566      0.00000580
 2 aaab00      -0.05804209      0.00000688      0.00000309      0.84945712      0.00007216      0.00007402
 2 aaa00b       0.00000688      0.05804209     -0.00000273     -0.00007218      0.84945709      0.00023164
 2 aaa0b0      -0.00000309     -0.00000273     -0.05804209     -0.00007400     -0.00023165      0.84945709
 2 baaa00       0.01616856     -0.00000192     -0.00000086     -0.31810276     -0.00002702     -0.00002772
 2 aaba00       0.01616856     -0.00000192     -0.00000086     -0.31810276     -0.00002702     -0.00002772
 2 aab0a0       0.00000086      0.00000076      0.01616856      0.00002771      0.00008675     -0.31810275
 2 baa00a      -0.00000192     -0.01616856      0.00000076      0.00002703     -0.31810275     -0.00008675
 2 aba0a0       0.00000086      0.00000076      0.01616856      0.00002771      0.00008675     -0.31810275
 2 aba00a      -0.00000192     -0.01616856      0.00000076      0.00002703     -0.31810275     -0.00008675
 2 abaa00       0.02570498     -0.00000305     -0.00000137     -0.21325161     -0.00001812     -0.00001858
 2 aab00a      -0.00000305     -0.02570498      0.00000121      0.00001812     -0.21325160     -0.00005815
 2 baa0a0       0.00000137      0.00000121      0.02570498      0.00001858      0.00005815     -0.21325160
 2 02a0a0       0.00306431     -0.00000036     -0.00000016      0.08355590      0.00000710      0.00000728
 2 a2000a       0.00306431     -0.00000036     -0.00000016      0.08355590      0.00000710      0.00000728
 2 2a000a       0.00000016      0.00000014      0.00306431     -0.00000728     -0.00002279      0.08355589
 2 0a20a0       0.00000036      0.00306431     -0.00000014      0.00000710     -0.08355589     -0.00002279
 2 20aa00      -0.00000016     -0.00000014     -0.00306431      0.00000728      0.00002279     -0.08355589
 2 a02a00       0.00000036      0.00306431     -0.00000014      0.00000710     -0.08355589     -0.00002279
 2 a0a200      -0.01500690      0.00000178      0.00000080      0.06759743      0.00000574      0.00000589
 2 0aa020      -0.00000080     -0.00000071     -0.01500690     -0.00000589     -0.00001843      0.06759743
 2 aa0002      -0.00000178     -0.01500690      0.00000071      0.00000574     -0.06759742     -0.00001843
 
 Energy:     -266.99836161   -266.99836161   -266.99836161   -266.78143505   -266.78143505   -266.78143505
 
 
 CI Coefficients of symmetry 1 (Singlet)
 =======================================
 
 2 202000      -0.20919144      0.00000573     -0.00000048     -0.00001231      0.78670728      0.56571383
 2 022000       0.78590422     -0.00002898     -0.00000008      0.00001164     -0.21218854      0.56571382
 2 ab2000       0.00000020      0.00000159      0.70498373     -0.00000261      0.00000048      0.00000000
 2 ba2000      -0.00000020     -0.00000159     -0.70498373      0.00000261     -0.00000048     -0.00000000
 2 2ab000      -0.00000804     -0.00000496      0.00000261      0.70498373      0.00000889      0.00000000
 2 2ba000       0.00000804      0.00000496     -0.00000261     -0.70498373     -0.00000889     -0.00000000
 2 b2a000      -0.00002651     -0.70498373      0.00000159     -0.00000496     -0.00000191      0.00000000
 2 a2b000       0.00002651      0.70498373     -0.00000159      0.00000496      0.00000191     -0.00000000
 2 220000      -0.57671277      0.00002324      0.00000056      0.00000067     -0.57451876      0.56571383
 0 222000      -0.00000000      0.00000000     -0.00000000     -0.00000000      0.00000000     -0.17511357
 
 Energy:     -266.95432334   -266.95432333   -266.95432333   -266.95432333   -266.95432333   -266.91447577
 
 
 CI Coefficients of symmetry 1 (Quintet)
 =======================================
 
 2 aaa00a       0.00000240      0.99633654      0.00000830
 2 aaaa00       0.99633654     -0.00000240      0.00005801
 2 aaa0a0      -0.00005801     -0.00000830      0.99633654
 2 a0aa0a       0.00000014      0.05983378      0.00000050
 2 a0aaa0      -0.00000348     -0.00000050      0.05983378
 2 0aa0aa       0.00000014      0.05983378      0.00000050
 2 0aaaa0      -0.05983378      0.00000014     -0.00000348
 2 aa0a0a       0.05983377     -0.00000014      0.00000348
 2 aa00aa      -0.00000348     -0.00000050      0.05983377
 
 Energy:     -266.79158119   -266.79158119   -266.79158119
 


 **********************************************************************************************************************************
 DATASETS  * FILE   NREC   LENGTH (MB)   RECORD NAMES
              1      21       94.20       500      610      700      900      950      970     1000      129      960     1100   
                                          VAR    BASINP    GEOM    SYMINP    ZMAT    AOBASIS   BASIS     P2S    ABASIS      S 
                                         1400     1410     1420     1200     1210     1080     1700     1600     1650     1380   
                                           T        V       ECP      H0       H01     AOSYM    OPER      SMH    MOLCAS    JKOP   
                                         1700(1)
                                         OPER   

              2       5        3.11       700     1000      520     2100     2140   
                                         GEOM     BASIS   MCVARS     RHF     MCSCF   

 PROGRAMS   *        TOTAL     MULTI   RHF-SCF       INT
 CPU TIMES  *        23.64     13.20      0.90      9.32
 REAL TIME  *        31.19 SEC
 DISK USED  *        97.43 MB (local),        4.24 GB (total)
 SF USED    *       162.92 MB
 GA USED    *         0.00 MB       (max)       0.00 MB       (current)
 **********************************************************************************************************************************

 Energies and &lt;L**2&gt; values

         ENERGY     LL
    -266.9983616   2.0
    -266.9983616   2.0
    -266.9983616   2.0
    -266.7814350   2.0
    -266.7814350   2.0
    -266.7814350   2.0
    -266.9543233   6.0
    -266.9543233   6.0
    -266.9543233   6.0
    -266.9543233   6.0
    -266.9543233   6.0
    -266.9144758   0.0
    -266.7915812   2.0
    -266.7915812   2.0
    -266.7915812   2.0
                                                  


 PROGRAM * CI (Multireference internally contracted CI)     Authors: H.-J. Werner, P.J. Knowles, 1987


 Convergence thresholds:  THRVAR = 1.00D-08  THRDEN = 1.00D-06

 Number of optimized states: 6  Roots:    1   2   3   4   5   6
 Number of reference states: 6  Roots:    1   2   3   4   5   6

 Reference symmetry:                   1   Triplet 
 Number of electrons:                 24
 Maximum number of shells:             6
 Maximum number of spin couplings:   297

 Reference space:      196 conf      294 CSFs
 N elec internal:    19609 conf    81480 CSFs
 N-1 el internal:    20264 conf   153948 CSFs
 N-2 el internal:    11240 conf   124860 CSFs

 Number of electrons in valence space:                     24
 Maximum number of open shell orbitals in reference space:  6
 Maximum number of open shell orbitals in internal spaces: 12


 Number of closed-shell orbitals:   9 (   6   3 )
 Number of active  orbitals:        7 (   1   6 )
 Number of external orbitals:     265 ( 128 137 )

 Molecular orbitals read from record     2140.2  Type=MCSCF/NATURAL (state averaged)

 Valence orbitals related to previous ones by unitary transformation. Operators transformed.


 Number of p-space configurations:  30

 Reference wavefunction optimized for reference space (refopt=1)

 State     Reference Energy 
     1      -266.99836161
     2      -266.99836161
     3      -266.99836161
     4      -266.78143505
     5      -266.78143505
     6      -266.78143505

 ?WARNING: SMALL EIGENVALUE OF PAIR OVERLAP MATRIX:  0.1650D-06

 ?WARNING: SMALL EIGENVALUE OF PAIR OVERLAP MATRIX:  0.2236D-06

 Number of blocks in overlap matrix:   562   Smallest eigenvalue:  0.17D-06
 Number of N-2 electron functions:    1496
 Number of N-1 electron functions:  153948

 Number of internal configurations:                40740
 Number of singly external configurations:      20398758
 Number of doubly external configurations:      26272041
 Total number of contracted configurations:     46711539
 Total number of uncontracted configurations: 2209648584

 Diagonal Coupling coefficients finished.               Storage:  25198712 words, CPU-Time:     52.00 seconds.
 Energy denominators for pairs finished in 1 passes.    Storage:   5210604 words, CPU-time:      7.09 seconds.

  ITER. STATE  ROOT     SQ.NORM     CORR.ENERGY   TOTAL ENERGY   ENERGY CHANGE       DEN1      VAR(S)    VAR(P)      TIME
    1     1     1     1.00000000     0.00000000  -266.99836161     0.00000000    -1.14671745  0.43D-01  0.12D+00    67.10
    1     2     2     1.00000000     0.00000000  -266.99836161     0.00000000    -1.14700495  0.44D-01  0.12D+00    67.10
    1     3     3     1.00000000     0.00000000  -266.99836161     0.00000000    -1.14668683  0.43D-01  0.12D+00    67.10
    1     4     4     1.00000000     0.00000000  -266.78143505    -0.00000000    -1.11527240  0.50D-01  0.11D+00    67.10
    1     5     5     1.00000000     0.00000000  -266.78143505     0.00000000    -1.11521440  0.50D-01  0.11D+00    67.10
    1     6     6     1.00000000     0.00000000  -266.78143505     0.00000000    -1.11525783  0.50D-01  0.11D+00    67.10
    2     1     1     1.10594136    -0.93232066  -267.93068227    -0.93232066    -0.02975829  0.50D-02  0.18D-02   756.49
    2     2     2     1.10600707    -0.93224839  -267.93061000    -0.93224839    -0.02981613  0.50D-02  0.18D-02   756.49
    2     3     3     1.10616312    -0.93215169  -267.93051330    -0.93215169    -0.02992931  0.51D-02  0.18D-02   756.49
    2     4     4     1.10729368    -0.91461458  -267.69604963    -0.91461458    -0.02620456  0.46D-02  0.15D-02   756.49
    2     5     5     1.10731285    -0.91460840  -267.69604345    -0.91460840    -0.02620809  0.46D-02  0.15D-02   756.49
    2     6     6     1.10731812    -0.91459606  -267.69603111    -0.91459606    -0.02622350  0.46D-02  0.15D-02   756.49
    3     1     1     1.09246471    -0.96086679  -267.95922840    -0.02854613    -0.00065327  0.74D-04  0.77D-04  1445.11
    3     2     2     1.09246831    -0.96086625  -267.95922786    -0.02861786    -0.00065440  0.74D-04  0.77D-04  1445.11
    3     3     3     1.09244880    -0.96086454  -267.95922616    -0.02871285    -0.00065443  0.74D-04  0.78D-04  1445.11
    3     4     4     1.09040154    -0.94000492  -267.72143997    -0.02539034    -0.00043929  0.59D-04  0.47D-04  1445.11
    3     5     5     1.09040133    -0.94000464  -267.72143969    -0.02539624    -0.00043948  0.59D-04  0.47D-04  1445.11
    3     6     6     1.09040123    -0.94000443  -267.72143948    -0.02540838    -0.00043963  0.59D-04  0.47D-04  1445.11
    4     1     1     1.09272653    -0.96160883  -267.95997044    -0.00074204    -0.00004909  0.21D-05  0.78D-05  2134.67
    4     2     2     1.09272441    -0.96160858  -267.95997020    -0.00074234    -0.00004936  0.21D-05  0.78D-05  2134.67
    4     3     3     1.09272123    -0.96160858  -267.95997019    -0.00074404    -0.00004942  0.21D-05  0.79D-05  2134.67
    4     4     4     1.08982569    -0.94049596  -267.72193101    -0.00049104    -0.00002984  0.28D-05  0.51D-05  2134.67
    4     5     5     1.08982550    -0.94049596  -267.72193100    -0.00049131    -0.00002980  0.28D-05  0.51D-05  2134.67
    4     6     6     1.08982532    -0.94049582  -267.72193086    -0.00049138    -0.00002983  0.28D-05  0.51D-05  2134.67
    5     1     1     1.09326554    -0.96167291  -267.96003452    -0.00006408    -0.00000457  0.25D-06  0.65D-06  2825.52
    5     2     2     1.09326570    -0.96167287  -267.96003449    -0.00006429    -0.00000459  0.25D-06  0.65D-06  2825.52
    5     3     3     1.09326607    -0.96167285  -267.96003446    -0.00006427    -0.00000459  0.26D-06  0.65D-06  2825.52
    5     4     4     1.09000488    -0.94053772  -267.72197277    -0.00004176    -0.00000445  0.30D-06  0.69D-06  2825.52
    5     5     5     1.09000486    -0.94053765  -267.72197270    -0.00004169    -0.00000445  0.30D-06  0.69D-06  2825.52
    5     6     6     1.09000469    -0.94053757  -267.72197262    -0.00004175    -0.00000445  0.30D-06  0.69D-06  2825.52
    6     1     1     1.09331848    -0.96167856  -267.96004017    -0.00000565    -0.00000038  0.25D-07  0.51D-07  3515.35
    6     2     2     1.09331853    -0.96167855  -267.96004016    -0.00000567    -0.00000038  0.25D-07  0.51D-07  3515.35
    6     3     3     1.09331885    -0.96167854  -267.96004015    -0.00000569    -0.00000038  0.25D-07  0.51D-07  3515.35
    6     4     4     1.09005250    -0.94054365  -267.72197870    -0.00000593    -0.00000050  0.39D-07  0.68D-07  3515.35
    6     5     5     1.09005245    -0.94054358  -267.72197862    -0.00000593    -0.00000050  0.40D-07  0.68D-07  3515.35
    6     6     6     1.09005233    -0.94054350  -267.72197855    -0.00000593    -0.00000050  0.39D-07  0.68D-07  3515.35
    7     1     1     1.09333348    -0.96167901  -267.96004062    -0.00000045    -0.00000004  0.36D-08  0.56D-08  4205.36
    7     2     2     1.09333346    -0.96167900  -267.96004061    -0.00000045    -0.00000004  0.36D-08  0.56D-08  4205.36
    7     3     3     1.09333355    -0.96167899  -267.96004060    -0.00000045    -0.00000004  0.36D-08  0.57D-08  4205.36
    7     4     4     1.09006576    -0.94054426  -267.72197930    -0.00000061    -0.00000006  0.42D-08  0.99D-08  4205.36
    7     5     5     1.09006566    -0.94054418  -267.72197923    -0.00000061    -0.00000006  0.42D-08  0.99D-08  4205.36
    7     6     6     1.09006557    -0.94054411  -267.72197916    -0.00000061    -0.00000006  0.42D-08  0.99D-08  4205.36
    8     1     1     1.09333340    -0.96167901  -267.96004062    -0.00000000    -0.00000004  0.36D-08  0.56D-08  4630.91
    8     2     2     1.09333339    -0.96167900  -267.96004061    -0.00000000    -0.00000004  0.36D-08  0.56D-08  4630.91
    8     3     3     1.09333348    -0.96167899  -267.96004060    -0.00000000    -0.00000004  0.36D-08  0.56D-08  4630.91
    8     4     4     1.09006594    -0.94054435  -267.72197940    -0.00000009    -0.00000001  0.33D-09  0.87D-09  4630.91
    8     5     5     1.09006585    -0.94054427  -267.72197932    -0.00000009    -0.00000001  0.32D-09  0.87D-09  4630.91
    8     6     6     1.09006575    -0.94054420  -267.72197925    -0.00000009    -0.00000001  0.33D-09  0.87D-09  4630.91


 =====================================
 Analysis of CPU times by interactions
 =====================================

       I      S      P

 I   0.3%
 S   0.4%  27.8%
 P   0.3%  33.4%  18.7%

 Initialization:   1.3%
 Other:           17.9%

 Total CPU:     4630.9 seconds
 =====================================



 Wavefunction saved on  5302.2

 Reference coefficients greater than 0.0500000
 =============================================
 2222222222//2000          -0.0005773  -0.0009083   0.9552391  -0.0349301   0.0000433   0.0000069
 2222222222/2/000           0.9552380   0.0016864   0.0005789   0.0000065  -0.0003013   0.0349288
 22222222222//000          -0.0016869   0.9552378   0.0009073   0.0000434   0.0349288   0.0003012
 2222222222///00\          -0.0000213  -0.0000335   0.0352447   0.9407102  -0.0011660  -0.0001853
 2222222222///\00          -0.0352447  -0.0000622  -0.0000214   0.0001753  -0.0081131   0.9406762
 2222222222///0\0           0.0000622  -0.0352446  -0.0000335   0.0011675   0.9406754   0.0081129
 2222222222//\00/           0.0000034   0.0000054  -0.0056845   0.0813781  -0.0001009  -0.0000160
 2222222222/02/00          -0.0000001  -0.0000002   0.0002014  -0.0792064   0.0000982   0.0000156
 22222222220/20/0          -0.0000001  -0.0000002   0.0002014  -0.0792064   0.0000982   0.0000156
 222222222220//00           0.0000004  -0.0002014  -0.0000002  -0.0000983  -0.0792034  -0.0006831
 222222222202/0/0           0.0002015   0.0000004   0.0000001   0.0000148  -0.0006831   0.0792033
 2222222222/2000/           0.0002014   0.0000004   0.0000001   0.0000148  -0.0006831   0.0792033
 22222222222/000/          -0.0000004   0.0002015   0.0000002   0.0000983   0.0792033   0.0006831
 2222222222/\/0/0           0.0000087  -0.0049229  -0.0000047  -0.0000875  -0.0704730  -0.0006078
 2222222222/\//00           0.0049229   0.0000087   0.0000030   0.0000131  -0.0006078   0.0704727
 2222222222//0002           0.0000073   0.0000116  -0.0121525  -0.0675642   0.0000837   0.0000133
 2222222222/0/200          -0.0121525  -0.0000215  -0.0000074   0.0000126  -0.0005827   0.0675620
 22222222220//020           0.0000215  -0.0121525  -0.0000115   0.0000839   0.0675619   0.0005827
 22222222220//0/\          -0.0000064  -0.0000101   0.0106559   0.0553163  -0.0000686  -0.0000109
 2222222222/0//0\          -0.0000064  -0.0000101   0.0106559   0.0553162  -0.0000686  -0.0000109
 2222222222/0//\0           0.0000188  -0.0106559  -0.0000101   0.0000687   0.0553146   0.0004771
 22222222220//\/0           0.0106334   0.0000188   0.0000064  -0.0000094   0.0004362  -0.0505738
 2222222222//0\0/          -0.0106335  -0.0000188  -0.0000064   0.0000094  -0.0004362   0.0505737
 2222222222//00\/           0.0000188  -0.0106334  -0.0000101   0.0000628   0.0505732   0.0004362

 Coefficients of fixed reference functions:
 ==========================================

 State      Coefficients
 1           0.955892   -0.000578   -0.001688    0.028161    0.000017   -0.000050
 2           0.001688   -0.000909    0.955892    0.000050    0.000027    0.028161
 3           0.000579    0.955893    0.000908    0.000017   -0.028161    0.000027
 4          -0.000005    0.028998   -0.000036    0.000178    0.957328    0.001188
 5           0.000250   -0.000036   -0.028997   -0.008256   -0.001187    0.957292
 6          -0.028997   -0.000006   -0.000250    0.957293   -0.000189    0.008256

 Coefficients of rotated reference functions:
 ============================================

 State      Coefficients
 1           0.956308   -0.000000   -0.000000   -0.000000    0.000004   -0.000397
 2          -0.000000    0.956308    0.000000   -0.000001   -0.000397   -0.000004
 3          -0.000000    0.000000    0.956308    0.000397   -0.000001   -0.000000
 4          -0.000000   -0.000001    0.000397    0.957767   -0.000000    0.000000
 5           0.000004   -0.000397   -0.000001   -0.000000    0.957767    0.000000
 6          -0.000397   -0.000004   -0.000000    0.000000    0.000000    0.957767


 RESULTS FOR STATE 1.1
 =====================

 Coefficient of reference function:   C(0) = 0.95589213 (fixed)   0.95635009 (relaxed)   0.95630844 (rotated)

 Energy contributions of configuration classes

 CLASS          SQ.NORM        ECORR1        ECORR2
 +++++++++++++++++++++++++++++++++++++++++++++++++++
 Internals    0.00011837   -0.00015081   -0.83777815
 Singles      0.01202924   -0.04577775   -0.05243474
 Pairs        0.08131521    0.00006417   -0.07146612
 Total        1.09346282   -0.04586440   -0.96167901
 +++++++++++++++++++++++++++++++++++++++++++++++++++


 Reference energy                    -266.99816816
 Nuclear energy                         0.00000000
 Kinetic energy                       103.71676151
 One electron energy                 -466.62599857
 Two electron energy                  198.66595795
 Virial quotient                       -2.58357508
 Correlation energy                    -0.96187246
 !MRCI STATE 1.1 Energy              -267.960040621448

 Properties without orbital relaxation:

 !MRCI STATE 1.1 Dipole moment          0.00000000     0.00000000     0.00000000
 Dipole moment /Debye                   0.00000000     0.00000000     0.00000000

 Cluster corrected energies          -268.04993993 (Davidson, fixed reference)
 Cluster corrected energies          -268.04984834 (Davidson, relaxed reference)
 Cluster corrected energies          -268.04993993 (Davidson, rotated reference)

 Cluster corrected energies          -268.04845957 (Pople, fixed reference)
 Cluster corrected energies          -268.04836219 (Pople, relaxed reference)
 Cluster corrected energies          -268.04845957 (Pople, rotated reference)



 RESULTS FOR STATE 2.1
 =====================

 Maximum overlap with reference state  3

 Coefficient of reference function:   C(0) = 0.95589188 (fixed)   0.95635009 (relaxed)   0.95630845 (rotated)

 Energy contributions of configuration classes

 CLASS          SQ.NORM        ECORR1        ECORR2
 +++++++++++++++++++++++++++++++++++++++++++++++++++
 Internals    0.00011837   -0.00015081   -0.80449057
 Singles      0.01202922   -0.04577782   -0.05243473
 Pairs        0.08131521   -0.03633450   -0.10475369
 Total        1.09346281   -0.08226312   -0.96167900
 +++++++++++++++++++++++++++++++++++++++++++++++++++


 Reference energy                    -266.99816816
 Nuclear energy                         0.00000000
 Kinetic energy                       103.71675913
 One electron energy                 -466.62599655
 Two electron energy                  198.66595594
 Virial quotient                       -2.58357514
 Correlation energy                    -0.96187245
 !MRCI STATE 2.1 Energy              -267.960040610050

 Properties without orbital relaxation:

 !MRCI STATE 2.1 Dipole moment          0.00000000     0.00000000     0.00000000
 Dipole moment /Debye                   0.00000000     0.00000000     0.00000000

 Cluster corrected energies          -268.04993991 (Davidson, fixed reference)
 Cluster corrected energies          -268.04984831 (Davidson, relaxed reference)
 Cluster corrected energies          -268.04993991 (Davidson, rotated reference)

 Cluster corrected energies          -268.04845955 (Pople, fixed reference)
 Cluster corrected energies          -268.04836216 (Pople, relaxed reference)
 Cluster corrected energies          -268.04845955 (Pople, rotated reference)



 RESULTS FOR STATE 3.1
 =====================

 Maximum overlap with reference state  2

 Coefficient of reference function:   C(0) = 0.95589315 (fixed)   0.95635005 (relaxed)   0.95630841 (rotated)

 Energy contributions of configuration classes

 CLASS          SQ.NORM        ECORR1        ECORR2
 +++++++++++++++++++++++++++++++++++++++++++++++++++
 Internals    0.00011837   -0.00015081   -0.83768779
 Singles      0.01202929   -0.04577779   -0.05243475
 Pairs        0.08131524   -0.00003451   -0.07155645
 Total        1.09346290   -0.04596311   -0.96167899
 +++++++++++++++++++++++++++++++++++++++++++++++++++


 Reference energy                    -266.99816816
 Nuclear energy                         0.00000000
 Kinetic energy                       103.71676108
 One electron energy                 -466.62599939
 Two electron energy                  198.66595879
 Virial quotient                       -2.58357509
 Correlation energy                    -0.96187243
 !MRCI STATE 3.1 Energy              -267.960040599123

 Properties without orbital relaxation:

 !MRCI STATE 3.1 Dipole moment          0.00000000     0.00000000     0.00000000
 Dipole moment /Debye                   0.00000000     0.00000000     0.00000000

 Cluster corrected energies          -268.04993999 (Davidson, fixed reference)
 Cluster corrected energies          -268.04984839 (Davidson, relaxed reference)
 Cluster corrected energies          -268.04993999 (Davidson, rotated reference)

 Cluster corrected energies          -268.04845963 (Pople, fixed reference)
 Cluster corrected energies          -268.04836225 (Pople, relaxed reference)
 Cluster corrected energies          -268.04845963 (Pople, rotated reference)



 RESULTS FOR STATE 4.1
 =====================

 Maximum overlap with reference state  5

 Coefficient of reference function:   C(0) = 0.95732760 (fixed)   0.95777819 (relaxed)   0.95776735 (rotated)

 Energy contributions of configuration classes

 CLASS          SQ.NORM        ECORR1        ECORR2
 +++++++++++++++++++++++++++++++++++++++++++++++++++
 Internals    0.00006258   -0.00020324   -0.80890736
 Singles      0.01661210   -0.05769055   -0.06725555
 Pairs        0.07345948   -0.00109511   -0.06438143
 Total        1.09013416   -0.05898890   -0.94054435
 +++++++++++++++++++++++++++++++++++++++++++++++++++


 Reference energy                    -266.78162850
 Nuclear energy                         0.00000000
 Kinetic energy                       103.38527813
 One electron energy                 -461.43869063
 Two electron energy                  193.71671123
 Virial quotient                       -2.58955612
 Correlation energy                    -0.94035090
 !MRCI STATE 4.1 Energy              -267.721979395065

 Properties without orbital relaxation:

 !MRCI STATE 4.1 Dipole moment          0.00000000     0.00000000     0.00000000
 Dipole moment /Debye                   0.00000000     0.00000000     0.00000000

 Cluster corrected energies          -267.80673713 (Davidson, fixed reference)
 Cluster corrected energies          -267.80671391 (Davidson, relaxed reference)
 Cluster corrected energies          -267.80673713 (Davidson, rotated reference)

 Cluster corrected energies          -267.80510162 (Pople, fixed reference)
 Cluster corrected energies          -267.80507708 (Pople, relaxed reference)
 Cluster corrected energies          -267.80510162 (Pople, rotated reference)



 RESULTS FOR STATE 5.1
 =====================

 Maximum overlap with reference state  6

 Coefficient of reference function:   C(0) = 0.95729205 (fixed)   0.95777823 (relaxed)   0.95776739 (rotated)

 Energy contributions of configuration classes

 CLASS          SQ.NORM        ECORR1        ECORR2
 +++++++++++++++++++++++++++++++++++++++++++++++++++
 Internals    0.00006258   -0.00020324   -0.00055283
 Singles      0.01661203   -0.05769046   -0.06725542
 Pairs        0.07345946   -0.88231002   -0.87273603
 Total        1.09013407   -0.94020372   -0.94054427
 +++++++++++++++++++++++++++++++++++++++++++++++++++


 Reference energy                    -266.78162850
 Nuclear energy                         0.00000000
 Kinetic energy                       103.38527718
 One electron energy                 -461.43869014
 Two electron energy                  193.71671082
 Virial quotient                       -2.58955614
 Correlation energy                    -0.94035083
 !MRCI STATE 5.1 Energy              -267.721979322946

 Properties without orbital relaxation:

 !MRCI STATE 5.1 Dipole moment          0.00000000     0.00000000     0.00000000
 Dipole moment /Debye                   0.00000000     0.00000000     0.00000000

 Cluster corrected energies          -267.80673697 (Davidson, fixed reference)
 Cluster corrected energies          -267.80671374 (Davidson, relaxed reference)
 Cluster corrected energies          -267.80673697 (Davidson, rotated reference)

 Cluster corrected energies          -267.80510145 (Pople, fixed reference)
 Cluster corrected energies          -267.80507690 (Pople, relaxed reference)
 Cluster corrected energies          -267.80510145 (Pople, rotated reference)



 RESULTS FOR STATE 6.1
 =====================

 Maximum overlap with reference state  4

 Coefficient of reference function:   C(0) = 0.95729281 (fixed)   0.95777828 (relaxed)   0.95776742 (rotated)

 Energy contributions of configuration classes

 CLASS          SQ.NORM        ECORR1        ECORR2
 +++++++++++++++++++++++++++++++++++++++++++++++++++
 Internals    0.00006259   -0.00020324   -0.80293173
 Singles      0.01661196   -0.05769037   -0.06725528
 Pairs        0.07345943   -0.00760954   -0.07035719
 Total        1.09013398   -0.06550315   -0.94054420
 +++++++++++++++++++++++++++++++++++++++++++++++++++


 Reference energy                    -266.78162850
 Nuclear energy                         0.00000000
 Kinetic energy                       103.38527749
 One electron energy                 -461.43869028
 Two electron energy                  193.71671103
 Virial quotient                       -2.58955613
 Correlation energy                    -0.94035075
 !MRCI STATE 6.1 Energy              -267.721979250238

 Properties without orbital relaxation:

 !MRCI STATE 6.1 Dipole moment          0.00000000     0.00000000     0.00000000
 Dipole moment /Debye                   0.00000000     0.00000000     0.00000000

 Cluster corrected energies          -267.80673681 (Davidson, fixed reference)
 Cluster corrected energies          -267.80671358 (Davidson, relaxed reference)
 Cluster corrected energies          -267.80673681 (Davidson, rotated reference)

 Cluster corrected energies          -267.80510128 (Pople, fixed reference)
 Cluster corrected energies          -267.80507673 (Pople, relaxed reference)
 Cluster corrected energies          -267.80510128 (Pople, rotated reference)



 **********************************************************************************************************************************
 DATASETS  * FILE   NREC   LENGTH (MB)   RECORD NAMES
              1      21       94.20       500      610      700      900      950      970     1000      129      960     1100   
                                          VAR    BASINP    GEOM    SYMINP    ZMAT    AOBASIS   BASIS     P2S    ABASIS      S 
                                         1400     1410     1420     1200     1210     1080     1700     1600     1650     1380   
                                           T        V       ECP      H0       H01     AOSYM    OPER      SMH    MOLCAS    JKOP   
                                         1700(1)
                                         OPER   

              2       6     2152.89       700     1000      520     2100     2140     5302   
                                         GEOM     BASIS   MCVARS     RHF     MCSCF    MRCI   

 PROGRAMS   *        TOTAL        CI     MULTI   RHF-SCF       INT
 CPU TIMES  *      4939.30   4915.64     13.20      0.90      9.32
 REAL TIME  *      5108.74 SEC
 DISK USED  *         2.19 GB (local),       63.02 GB (total)
 SF USED    *        21.52 GB
 GA USED    *         0.00 MB       (max)       0.00 MB       (current)
 **********************************************************************************************************************************
 SETTING HLSDIAG(1)     =      -268.04993993  AU                              
 SETTING HLSDIAG(2)     =      -268.04993991  AU                              
 SETTING HLSDIAG(3)     =      -268.04993999  AU                              
 SETTING HLSDIAG(4)     =      -267.80673713  AU                              
 SETTING HLSDIAG(5)     =      -267.80673697  AU                              
 SETTING HLSDIAG(6)     =      -267.80673681  AU                              


 PROGRAM * CI (Multireference internally contracted CI)     Authors: H.-J. Werner, P.J. Knowles, 1987


 Convergence thresholds:  THRVAR = 1.00D-08  THRDEN = 1.00D-06

 Number of optimized states: 6  Roots:    1   2   3   4   5   6
 Number of reference states: 6  Roots:    1   2   3   4   5   6

 Reference symmetry:                   1   Singlet 
 Number of electrons:                 24
 Maximum number of shells:             7
 Maximum number of spin couplings:   132

 Reference space:      231 conf      280 CSFs
 N elec internal:    19959 conf    50764 CSFs
 N-1 el internal:    21164 conf    87808 CSFs
 N-2 el internal:    12950 conf    70120 CSFs

 Number of electrons in valence space:                     24
 Maximum number of open shell orbitals in reference space:  6
 Maximum number of open shell orbitals in internal spaces: 12


 Number of closed-shell orbitals:   9 (   6   3 )
 Number of active  orbitals:        7 (   1   6 )
 Number of external orbitals:     265 ( 128 137 )

 Molecular orbitals read from record     2140.2  Type=MCSCF/NATURAL (state averaged)

 Coulomb and exchange operators available. No transformation done.


 Number of p-space configurations:  30

 Reference wavefunction optimized for reference space (refopt=1)

 State     Reference Energy 
     1      -266.95432334
     2      -266.95432333
     3      -266.95432333
     4      -266.95432333
     5      -266.95432333
     6      -266.91447577

 ?WARNING: SMALL EIGENVALUE OF PAIR OVERLAP MATRIX:  0.2327D-06

 Number of blocks in overlap matrix:   600   Smallest eigenvalue:  0.11D-06
 Number of N-2 electron functions:    1414
 Number of N-1 electron functions:   87808

 Number of internal configurations:                25648
 Number of singly external configurations:      11636198
 Number of doubly external configurations:      24833389
 Total number of contracted configurations:     36495235
 Total number of uncontracted configurations: 1241831836

 Diagonal Coupling coefficients finished.               Storage:  17996529 words, CPU-Time:     15.97 seconds.
 Energy denominators for pairs finished in 1 passes.    Storage:   3990879 words, CPU-time:      6.90 seconds.

  ITER. STATE  ROOT     SQ.NORM     CORR.ENERGY   TOTAL ENERGY   ENERGY CHANGE       DEN1      VAR(S)    VAR(P)      TIME
    1     1     1     1.00000000     0.00000000  -266.95432334     0.00000000    -1.15389996  0.48D-01  0.12D+00    28.61
    1     2     2     1.00000000     0.00000000  -266.95432333     0.00000000    -1.15721494  0.48D-01  0.12D+00    28.61
    1     3     3     1.00000000     0.00000000  -266.95432333     0.00000000    -1.15781812  0.48D-01  0.12D+00    28.61
    1     4     4     1.00000000     0.00000000  -266.95432333     0.00000000    -1.15720580  0.48D-01  0.12D+00    28.61
    1     5     5     1.00000000     0.00000000  -266.95432333     0.00000000    -1.15371902  0.48D-01  0.12D+00    28.61
    1     6     6     1.00000000     0.00000000  -266.91447577     0.00000000    -1.12616406  0.19D-01  0.12D+00    28.61
    2     1     1     1.11002589    -0.93988467  -267.89420800    -0.93988467    -0.02944152  0.50D-02  0.17D-02   413.24
    2     2     2     1.11009056    -0.93967234  -267.89399568    -0.93967234    -0.02970353  0.51D-02  0.17D-02   413.24
    2     3     3     1.11012248    -0.93879244  -267.89311577    -0.93879244    -0.03062437  0.50D-02  0.19D-02   413.24
    2     4     4     1.11010157    -0.93863073  -267.89295407    -0.93863073    -0.03078591  0.51D-02  0.19D-02   413.24
    2     5     5     1.11012671    -0.93859983  -267.89292316    -0.93859983    -0.03086167  0.52D-02  0.19D-02   413.24
    2     6     6     1.09940267    -0.93885411  -267.85332988    -0.93885411    -0.02260347  0.33D-02  0.15D-02   413.24
    3     1     1     1.09622212    -0.96761075  -267.92193409    -0.02772609    -0.00071538  0.97D-04  0.75D-04   798.80
    3     2     2     1.09620463    -0.96759379  -267.92191713    -0.02792145    -0.00073197  0.99D-04  0.77D-04   798.80
    3     3     3     1.09603721    -0.96758493  -267.92190826    -0.02879249    -0.00072520  0.94D-04  0.79D-04   798.80
    3     4     4     1.09599232    -0.96756868  -267.92189201    -0.02893795    -0.00073943  0.96D-04  0.81D-04   798.80
    3     5     5     1.09601394    -0.96756589  -267.92188923    -0.02896606    -0.00074523  0.97D-04  0.81D-04   798.80
    3     6     6     1.09239793    -0.96071829  -267.87519406    -0.02186418    -0.00041565  0.35D-04  0.52D-04   798.80
    4     1     1     1.09585094    -0.96834576  -267.92266910    -0.00073501    -0.00004108  0.32D-05  0.59D-05  1185.47
    4     2     2     1.09583729    -0.96834412  -267.92266745    -0.00075033    -0.00004225  0.33D-05  0.61D-05  1185.47
    4     3     3     1.09577043    -0.96833925  -267.92266259    -0.00075432    -0.00004495  0.32D-05  0.68D-05  1185.47
    4     4     4     1.09576192    -0.96833811  -267.92266145    -0.00076944    -0.00004592  0.33D-05  0.69D-05  1185.47
    4     5     5     1.09575525    -0.96833796  -267.92266129    -0.00077207    -0.00004601  0.33D-05  0.70D-05  1185.47
    4     6     6     1.09302447    -0.96116887  -267.87564464    -0.00045058    -0.00002801  0.18D-05  0.43D-05  1185.47
    5     1     1     1.09608499    -0.96839354  -267.92271687    -0.00004777    -0.00000252  0.87D-07  0.43D-06  1571.61
    5     2     2     1.09608239    -0.96839340  -267.92271674    -0.00004928    -0.00000263  0.92D-07  0.44D-06  1571.61
    5     3     3     1.09606911    -0.96839239  -267.92271573    -0.00005314    -0.00000315  0.11D-06  0.53D-06  1571.61
    5     4     4     1.09606856    -0.96839237  -267.92271570    -0.00005426    -0.00000318  0.11D-06  0.54D-06  1571.61
    5     5     5     1.09606751    -0.96839232  -267.92271565    -0.00005436    -0.00000320  0.11D-06  0.54D-06  1571.61
    5     6     6     1.09348818    -0.96120188  -267.87567765    -0.00003302    -0.00000208  0.11D-06  0.32D-06  1571.61
    6     1     1     1.09613573    -0.96839665  -267.92271998    -0.00000311    -0.00000023  0.20D-07  0.32D-07  1958.28
    6     2     2     1.09613585    -0.96839664  -267.92271997    -0.00000324    -0.00000023  0.20D-07  0.32D-07  1958.28
    6     3     3     1.09613409    -0.96839631  -267.92271964    -0.00000392    -0.00000028  0.24D-07  0.39D-07  1958.28
    6     4     4     1.09613379    -0.96839631  -267.92271964    -0.00000394    -0.00000028  0.24D-07  0.39D-07  1958.28
    6     5     5     1.09613366    -0.96839629  -267.92271963    -0.00000397    -0.00000028  0.24D-07  0.40D-07  1958.28
    6     6     6     1.09353963    -0.96120446  -267.87568023    -0.00000258    -0.00000018  0.14D-07  0.23D-07  1958.28
    7     1     1     1.09615662    -0.96839692  -267.92272025    -0.00000027    -0.00000002  0.19D-08  0.30D-08  2344.77
    7     2     2     1.09615669    -0.96839690  -267.92272024    -0.00000026    -0.00000002  0.18D-08  0.29D-08  2344.77
    7     3     3     1.09615664    -0.96839664  -267.92271997    -0.00000033    -0.00000003  0.24D-08  0.38D-08  2344.77
    7     4     4     1.09615657    -0.96839664  -267.92271997    -0.00000033    -0.00000003  0.24D-08  0.39D-08  2344.77
    7     5     5     1.09615653    -0.96839662  -267.92271996    -0.00000033    -0.00000003  0.24D-08  0.39D-08  2344.77
    7     6     6     1.09355008    -0.96120467  -267.87568044    -0.00000020    -0.00000002  0.14D-08  0.21D-08  2344.77


 =====================================
 Analysis of CPU times by interactions
 =====================================

       I      S      P

 I   0.5%
 S   0.5%   6.9%
 P   0.4%  34.0%  27.0%

 Initialization:   1.0%
 Other:           29.8%

 Total CPU:     2344.8 seconds
 =====================================



 Wavefunction saved on  5102.2

 Reference coefficients greater than 0.0500000
 =============================================
 2222222222/2\000           0.0000148  -0.0000005   0.0103189   0.0578117   0.9512280   0.0000000
 2222222222/\2000           0.0008975   0.0014231   0.8634389  -0.4031435   0.0151348   0.0000000
 22222222222/\000           0.0004820  -0.0005326   0.4032964   0.8616353  -0.0567416   0.0000000
 2222222222202000           0.7756436  -0.0624410  -0.0007582  -0.0001174   0.0000033   0.5427351
 2222222222022000          -0.3337469   0.7029467  -0.0004285   0.0008192  -0.0000396   0.5427355
 2222222222220000          -0.4418963  -0.6405060   0.0011867  -0.0007017   0.0000363   0.5427356
 2222220222222000          -0.0000001  -0.0000003   0.0000000  -0.0000000  -0.0000000  -0.1555138

 Coefficients of fixed reference functions:
 ==========================================

 State      Coefficients
 1          -0.170610    0.000015    0.000899    0.000483    0.939607    0.000000
 2           0.939606   -0.000000    0.001426   -0.000534    0.170609   -0.000000
 3          -0.000867    0.010340    0.865189    0.404114   -0.001193   -0.000000
 4           0.001078    0.057929   -0.403961    0.863382    0.000138    0.000000
 5          -0.000053    0.953157    0.015166   -0.056857   -0.000010   -0.000000
 6           0.000000    0.000000    0.000000    0.000000   -0.000000    0.956082

 Coefficients of rotated reference functions:
 ============================================

 State      Coefficients
 1           0.954971    0.000000   -0.000000    0.000000    0.000000   -0.000000
 2           0.000000    0.954971   -0.000000    0.000000   -0.000000   -0.000000
 3          -0.000000   -0.000000    0.954971    0.000000   -0.000000    0.000000
 4           0.000000    0.000000    0.000000    0.954971    0.000000   -0.000000
 5           0.000000   -0.000000   -0.000000    0.000000    0.954971    0.000000
 6          -0.000000   -0.000000    0.000000   -0.000000    0.000000    0.956082


 RESULTS FOR STATE 1.1
 =====================

 Maximum overlap with reference state  5

 Coefficient of reference function:   C(0) = 0.93960695 (fixed)   0.95505761 (relaxed)   0.95497124 (rotated)

 Energy contributions of configuration classes

 CLASS          SQ.NORM        ECORR1        ECORR2
 +++++++++++++++++++++++++++++++++++++++++++++++++++
 Internals    0.00033808   -0.00055587   -0.83744600
 Singles      0.01414926   -0.05044161   -0.05849026
 Pairs        0.08203986   -0.00000038   -0.07246067
 Total        1.09652720   -0.05099787   -0.96839692
 +++++++++++++++++++++++++++++++++++++++++++++++++++


 Reference energy                    -266.95432333
 Nuclear energy                         0.00000000
 Kinetic energy                       103.69170977
 One electron energy                 -466.47363686
 Two electron energy                  198.55091661
 Virial quotient                       -2.58383935
 Correlation energy                    -0.96839692
 !MRCI STATE 1.1 Energy              -267.922720252474

 Properties without orbital relaxation:

 !MRCI STATE 1.1 Dipole moment          0.00000000     0.00000000     0.00000000
 Dipole moment /Debye                   0.00000000     0.00000000     0.00000000

 Cluster corrected energies          -268.01619690 (Davidson, fixed reference)
 Cluster corrected energies          -268.01600485 (Davidson, relaxed reference)
 Cluster corrected energies          -268.01619690 (Davidson, rotated reference)

 Cluster corrected energies          -268.01582441 (Pople, fixed reference)
 Cluster corrected energies          -268.01561678 (Pople, relaxed reference)
 Cluster corrected energies          -268.01582441 (Pople, rotated reference)



 RESULTS FOR STATE 2.1
 =====================

 Maximum overlap with reference state  1

 Coefficient of reference function:   C(0) = 0.93960644 (fixed)   0.95505758 (relaxed)   0.95497121 (rotated)

 Energy contributions of configuration classes

 CLASS          SQ.NORM        ECORR1        ECORR2
 +++++++++++++++++++++++++++++++++++++++++++++++++++
 Internals    0.00033808   -0.00055587   -0.83744647
 Singles      0.01414916   -0.05044143   -0.05849015
 Pairs        0.08204005    0.00000004   -0.07246028
 Total        1.09652728   -0.05099726   -0.96839690
 +++++++++++++++++++++++++++++++++++++++++++++++++++


 Reference energy                    -266.95432334
 Nuclear energy                         0.00000000
 Kinetic energy                       103.69170983
 One electron energy                 -466.47363715
 Two electron energy                  198.55091692
 Virial quotient                       -2.58383935
 Correlation energy                    -0.96839690
 !MRCI STATE 2.1 Energy              -267.922720236689

 Properties without orbital relaxation:

 !MRCI STATE 2.1 Dipole moment          0.00000000     0.00000000     0.00000000
 Dipole moment /Debye                   0.00000000     0.00000000     0.00000000

 Cluster corrected energies          -268.01619696 (Davidson, fixed reference)
 Cluster corrected energies          -268.01600491 (Davidson, relaxed reference)
 Cluster corrected energies          -268.01619696 (Davidson, rotated reference)

 Cluster corrected energies          -268.01582448 (Pople, fixed reference)
 Cluster corrected energies          -268.01561685 (Pople, relaxed reference)
 Cluster corrected energies          -268.01582448 (Pople, rotated reference)



 RESULTS FOR STATE 3.1
 =====================

 Coefficient of reference function:   C(0) = 0.86518946 (fixed)   0.95505760 (relaxed)   0.95497123 (rotated)

 Energy contributions of configuration classes

 CLASS          SQ.NORM        ECORR1        ECORR2
 +++++++++++++++++++++++++++++++++++++++++++++++++++
 Internals    0.00033809   -0.00055587   -0.83744506
 Singles      0.01414981   -0.05044272   -0.05849074
 Pairs        0.08203934    0.00000000   -0.07246083
 Total        1.09652725   -0.05099859   -0.96839664
 +++++++++++++++++++++++++++++++++++++++++++++++++++


 Reference energy                    -266.95432333
 Nuclear energy                         0.00000000
 Kinetic energy                       103.69171368
 One electron energy                 -466.47358883
 Two electron energy                  198.55086886
 Virial quotient                       -2.58383925
 Correlation energy                    -0.96839664
 !MRCI STATE 3.1 Energy              -267.922719971585

 Properties without orbital relaxation:

 !MRCI STATE 3.1 Dipole moment          0.00000000     0.00000000     0.00000000
 Dipole moment /Debye                   0.00000000     0.00000000     0.00000000

 Cluster corrected energies          -268.01619663 (Davidson, fixed reference)
 Cluster corrected energies          -268.01600457 (Davidson, relaxed reference)
 Cluster corrected energies          -268.01619663 (Davidson, rotated reference)

 Cluster corrected energies          -268.01582415 (Pople, fixed reference)
 Cluster corrected energies          -268.01561650 (Pople, relaxed reference)
 Cluster corrected energies          -268.01582415 (Pople, rotated reference)



 RESULTS FOR STATE 4.1
 =====================

 Coefficient of reference function:   C(0) = 0.86338217 (fixed)   0.95505763 (relaxed)   0.95497126 (rotated)

 Energy contributions of configuration classes

 CLASS          SQ.NORM        ECORR1        ECORR2
 +++++++++++++++++++++++++++++++++++++++++++++++++++
 Internals    0.00033809   -0.00055587   -0.83744513
 Singles      0.01414980   -0.05044270   -0.05849073
 Pairs        0.08203929   -0.00000000   -0.07246078
 Total        1.09652717   -0.05099857   -0.96839664
 +++++++++++++++++++++++++++++++++++++++++++++++++++


[...]

    1    1.1  1.0  1.0   7.497%  23.492%  23.215%   0.012%   0.015%  24.988%   0.004%   0.000%  14.950%   0.001%
    2    2.1  1.0  1.0   0.000%   0.000%   0.026%  23.230%  23.228%   0.004%  24.988%  24.992%   0.000%   0.000%
    3    3.1  1.0  1.0  30.987%   0.003%  23.214%   0.014%   0.014%  24.987%   0.005%   0.000%  14.949%   1.779%
    4    4.1  1.0  1.0   0.001%   0.000%   0.001%   0.000%   0.000%   0.001%   0.000%   0.000%   0.004%   0.000%
    5    5.1  1.0  1.0   0.000%   0.000%   0.000%   0.001%   0.001%   0.000%   0.001%   0.001%   0.000%   0.000%
    6    6.1  1.0  1.0   0.000%   0.001%   0.001%   0.000%   0.000%   0.001%   0.000%   0.000%   0.004%   0.000%
    7    1.1  1.0  0.0   0.000%   0.000%   0.030%   0.000%  46.454%   0.000%   0.000%  49.985%   0.000%   0.000%
    8    2.1  1.0  0.0  16.001%  45.978%   0.000%   0.000%   0.000%   0.000%   0.000%   0.000%  29.899%   3.428%
    9    3.1  1.0  0.0   0.000%   0.000%   0.029%  46.456%   0.000%   0.011%  49.974%   0.000%   0.000%   0.000%
   10    4.1  1.0  0.0   0.000%   0.000%   0.000%   0.002%   0.000%   0.000%   0.002%   0.000%   0.000%   0.000%
   11    5.1  1.0  0.0   0.001%   0.002%   0.000%   0.000%   0.000%   0.000%   0.000%   0.000%   0.007%   0.001%
   12    6.1  1.0  0.0   0.000%   0.000%   0.000%   0.000%   0.002%   0.000%   0.000%   0.002%   0.000%   0.000%
   13    1.1  1.0 -1.0   7.497%  23.492%  23.215%   0.012%   0.015%  24.988%   0.004%   0.000%  14.950%   0.001%
   14    2.1  1.0 -1.0   0.000%   0.000%   0.026%  23.230%  23.228%   0.004%  24.988%  24.992%   0.000%   0.000%
   15    3.1  1.0 -1.0  30.987%   0.003%  23.214%   0.014%   0.014%  24.987%   0.005%   0.000%  14.949%   1.779%
   16    4.1  1.0 -1.0   0.001%   0.000%   0.001%   0.000%   0.000%   0.001%   0.000%   0.000%   0.004%   0.000%
   17    5.1  1.0 -1.0   0.000%   0.000%   0.000%   0.001%   0.001%   0.000%   0.001%   0.001%   0.000%   0.000%
   18    6.1  1.0 -1.0   0.000%   0.001%   0.001%   0.000%   0.000%   0.001%   0.000%   0.000%   0.004%   0.000%
   19    1.1  0.0  0.0   2.194%   4.799%   0.000%   0.000%   0.000%   0.000%   0.000%   0.000%   0.000%   0.863%
   20    2.1  0.0  0.0   4.799%   2.194%   0.000%   0.000%   0.000%   0.000%   0.000%   0.000%   0.000%  92.143%
   21    3.1  0.0  0.0   0.000%   0.000%   1.393%   0.000%   5.600%   0.000%   0.000%   0.000%   0.000%   0.000%
   22    4.1  0.0  0.0   0.000%   0.000%   5.591%   0.011%   1.390%   0.000%   0.000%   0.000%   0.000%   0.000%
   23    5.1  0.0  0.0   0.000%   0.000%   0.008%   6.982%   0.002%   0.000%   0.000%   0.000%   0.000%   0.000%
   24    6.1  0.0  0.0   0.000%   0.000%   0.000%   0.000%   0.000%   0.000%   0.000%   0.000%  10.281%   0.000%
   25    1.1  2.0  2.0   0.000%   0.000%   0.000%   0.003%   0.003%   0.000%   0.004%   0.004%   0.000%   0.000%
   26    2.1  2.0  2.0   0.009%   0.003%   0.012%   0.000%   0.000%   0.000%   0.000%   0.000%   0.000%   0.000%
   27    3.1  2.0  2.0   0.000%   0.000%   0.000%   0.003%   0.003%   0.000%   0.004%   0.004%   0.000%   0.000%
   28    1.1  2.0  1.0   0.000%   0.012%   0.003%   0.000%   0.000%   0.004%   0.000%   0.000%   0.000%   0.000%
   29    2.1  2.0  1.0   0.000%   0.000%   0.000%   0.003%   0.003%   0.000%   0.004%   0.004%   0.000%   0.000%
   30    3.1  2.0  1.0   0.009%   0.003%   0.003%   0.000%   0.000%   0.004%   0.000%   0.000%   0.000%   0.001%
   31    1.1  2.0  0.0   0.000%   0.000%   0.000%   0.000%   0.017%   0.000%   0.000%   0.002%   0.000%   0.000%
   32    2.1  2.0  0.0   0.000%   0.000%   0.000%   0.000%   0.000%   0.010%   0.000%   0.000%   0.000%   0.000%
   33    3.1  2.0  0.0   0.000%   0.000%   0.000%   0.017%   0.000%   0.000%   0.002%   0.000%   0.000%   0.000%
   34    1.1  2.0 -1.0   0.000%   0.012%   0.003%   0.000%   0.000%   0.004%   0.000%   0.000%   0.000%   0.000%
   35    2.1  2.0 -1.0   0.000%   0.000%   0.000%   0.003%   0.003%   0.000%   0.004%   0.004%   0.000%   0.000%
   36    3.1  2.0 -1.0   0.009%   0.003%   0.003%   0.000%   0.000%   0.004%   0.000%   0.000%   0.000%   0.001%
   37    1.1  2.0 -2.0   0.000%   0.000%   0.000%   0.003%   0.003%   0.000%   0.004%   0.004%   0.000%   0.000%
   38    2.1  2.0 -2.0   0.009%   0.003%   0.012%   0.000%   0.000%   0.000%   0.000%   0.000%   0.000%   0.000%
   39    3.1  2.0 -2.0   0.000%   0.000%   0.000%   0.003%   0.003%   0.000%   0.004%   0.004%   0.000%   0.000%

   Nr   State  S   Sz      11       12       13       14       15       16       17       18       19       20

    1    1.1  1.0  1.0   2.329%   0.322%   1.414%   0.011%   1.714%   0.005%   0.000%   0.000%   0.012%   0.011%
    2    2.1  1.0  1.0   0.000%   1.423%   0.334%   1.736%   0.000%   0.000%   0.005%   0.005%   0.000%   0.000%
    3    3.1  1.0  1.0   0.550%   0.323%   1.412%   0.011%   1.714%   0.005%   0.000%   0.000%   0.008%   0.011%
    4    4.1  1.0  1.0   0.000%   0.000%   0.000%   0.000%   0.000%   0.414%   0.000%   0.000%   0.568%   0.730%
    5    5.1  1.0  1.0   0.000%   0.000%   0.000%   0.000%   0.000%   0.000%   0.408%   0.409%   0.000%   0.000%
    6    6.1  1.0  1.0   0.001%   0.000%   0.000%   0.000%   0.000%   0.417%   0.000%   0.000%   0.864%   0.731%
    7    1.1  1.0  0.0   0.000%   2.849%   0.642%   0.002%   0.000%   0.000%   0.011%   0.000%   0.000%   0.000%
    8    2.1  1.0  0.0   1.230%   0.000%   0.000%   0.000%   3.427%   0.000%   0.000%   0.000%   0.001%   0.000%
    9    3.1  1.0  0.0   0.000%   0.000%   0.024%   3.469%   0.000%   0.000%   0.000%   0.011%   0.000%   0.000%
   10    4.1  1.0  0.0   0.000%   0.000%   0.000%   0.001%   0.000%   0.000%   0.000%   0.834%   0.000%   0.000%
   11    5.1  1.0  0.0   0.000%   0.000%   0.000%   0.000%   0.000%   0.000%   0.000%   0.000%   0.060%   0.000%
   12    6.1  1.0  0.0   0.000%   0.001%   0.000%   0.000%   0.000%   0.000%   0.838%   0.000%   0.000%   0.000%
   13    1.1  1.0 -1.0   2.329%   0.322%   1.414%   0.011%   1.714%   0.005%   0.000%   0.000%   0.012%   0.011%
   14    2.1  1.0 -1.0   0.000%   1.423%   0.334%   1.736%   0.000%   0.000%   0.005%   0.005%   0.000%   0.000%
   15    3.1  1.0 -1.0   0.550%   0.323%   1.412%   0.011%   1.714%   0.005%   0.000%   0.000%   0.008%   0.011%
   16    4.1  1.0 -1.0   0.000%   0.000%   0.000%   0.000%   0.000%   0.414%   0.000%   0.000%   0.568%   0.730%
   17    5.1  1.0 -1.0   0.000%   0.000%   0.000%   0.000%   0.000%   0.000%   0.408%   0.409%   0.000%   0.000%
   18    6.1  1.0 -1.0   0.001%   0.000%   0.000%   0.000%   0.000%   0.417%   0.000%   0.000%   0.864%   0.731%
   19    1.1  0.0  0.0  92.143%   0.000%   0.000%   0.000%   0.000%   0.000%   0.000%   0.000%   0.000%   0.000%
   20    2.1  0.0  0.0   0.863%   0.000%   0.000%   0.000%   0.000%   0.000%   0.000%   0.000%   0.000%   0.000%
   21    3.1  0.0  0.0   0.000%  93.002%   0.005%   0.000%   0.000%   0.000%   0.000%   0.000%   0.000%   0.000%
   22    4.1  0.0  0.0   0.000%   0.004%  92.953%   0.049%   0.000%   0.000%   0.000%   0.000%   0.000%   0.000%
   23    5.1  0.0  0.0   0.000%   0.000%   0.049%  92.958%   0.000%   0.000%   0.000%   0.000%   0.000%   0.000%
   24    6.1  0.0  0.0   0.000%   0.000%   0.000%   0.000%  89.718%   0.000%   0.000%   0.000%   0.000%   0.000%
   25    1.1  2.0  2.0   0.000%   0.000%   0.000%   0.000%   0.000%   0.000%  14.699%  14.713%   0.000%   0.000%
   26    2.1  2.0  2.0   0.001%   0.000%   0.001%   0.000%   0.000%   0.000%   0.000%   0.000%  31.336%  32.349%
   27    3.1  2.0  2.0   0.000%   0.000%   0.000%   0.000%   0.000%   0.000%  14.695%  14.709%   0.000%   0.000%
   28    1.1  2.0  1.0   0.001%   0.000%   0.000%   0.000%   0.000%  14.762%   0.000%   0.000%  13.466%   8.071%
   29    2.1  2.0  1.0   0.000%   0.000%   0.000%   0.000%   0.000%   0.000%  14.800%  14.788%   0.000%   0.000%
   30    3.1  2.0  1.0   0.000%   0.000%   0.000%   0.000%   0.000%  14.731%   0.000%   0.000%   3.715%   8.097%
   31    1.1  2.0  0.0   0.000%   0.002%   0.000%   0.000%   0.000%   0.000%   9.935%   0.000%   0.000%   0.000%
   32    2.1  2.0  0.0   0.000%   0.000%   0.000%   0.000%   0.000%  39.329%   0.000%   0.000%   0.000%   0.000%
   33    3.1  2.0  0.0   0.000%   0.000%   0.000%   0.002%   0.000%   0.000%   0.000%   9.905%   0.000%   0.000%
   34    1.1  2.0 -1.0   0.001%   0.000%   0.000%   0.000%   0.000%  14.762%   0.000%   0.000%  13.466%   8.071%
   35    2.1  2.0 -1.0   0.000%   0.000%   0.000%   0.000%   0.000%   0.000%  14.800%  14.788%   0.000%   0.000%
   36    3.1  2.0 -1.0   0.000%   0.000%   0.000%   0.000%   0.000%  14.731%   0.000%   0.000%   3.715%   8.097%
   37    1.1  2.0 -2.0   0.000%   0.000%   0.000%   0.000%   0.000%   0.000%  14.699%  14.713%   0.000%   0.000%
   38    2.1  2.0 -2.0   0.001%   0.000%   0.001%   0.000%   0.000%   0.000%   0.000%   0.000%  31.336%  32.349%
   39    3.1  2.0 -2.0   0.000%   0.000%   0.000%   0.000%   0.000%   0.000%  14.695%  14.709%   0.000%   0.000%

   Nr   State  S   Sz      21       22       23       24       25       26       27       28       29       30

    1    1.1  1.0  1.0   0.000%   0.000%   0.002%   0.000%   0.000%   0.000%   0.000%   0.000%   0.000%   0.000%
    2    2.1  1.0  1.0   0.011%   0.011%   0.000%   0.000%   0.000%   0.000%   0.000%   0.000%   0.000%   0.000%
    3    3.1  1.0  1.0   0.000%   0.000%   0.006%   0.000%   0.000%   0.000%   0.000%   0.000%   0.000%   0.000%
    4    4.1  1.0  1.0   0.000%   0.000%   0.405%   0.000%   0.000%   0.000%   0.000%   0.000%   0.000%   0.000%
    5    5.1  1.0  1.0   0.724%   0.722%   0.000%   0.000%   0.000%   0.000%   0.000%   0.000%   0.000%   0.000%
    6    6.1  1.0  1.0   0.000%   0.000%   0.112%   0.000%   0.000%   0.000%   0.000%   0.000%   0.000%   0.000%
    7    1.1  1.0  0.0   0.021%   0.000%   0.000%   0.000%   0.000%   0.000%   0.000%   0.000%   0.000%   0.000%
    8    2.1  1.0  0.0   0.000%   0.000%   0.027%   0.000%   0.000%   0.000%   0.000%   0.000%   0.000%   0.000%
    9    3.1  1.0  0.0   0.000%   0.021%   0.000%   0.000%   0.000%   0.000%   0.000%   0.000%   0.000%   0.000%
   10    4.1  1.0  0.0   0.000%   1.454%   0.000%   0.000%   0.000%   0.000%   0.000%   0.000%   0.000%   0.000%
   11    5.1  1.0  0.0   0.000%   0.000%   1.862%   0.000%   0.000%   0.000%   0.000%   0.000%   0.000%   0.000%
   12    6.1  1.0  0.0   1.459%   0.000%   0.000%   0.000%   0.000%   0.000%   0.000%   0.000%   0.000%   0.000%
   13    1.1  1.0 -1.0   0.000%   0.000%   0.002%   0.000%   0.000%   0.000%   0.000%   0.000%   0.000%   0.000%
   14    2.1  1.0 -1.0   0.011%   0.011%   0.000%   0.000%   0.000%   0.000%   0.000%   0.000%   0.000%   0.000%
   15    3.1  1.0 -1.0   0.000%   0.000%   0.006%   0.000%   0.000%   0.000%   0.000%   0.000%   0.000%   0.000%
   16    4.1  1.0 -1.0   0.000%   0.000%   0.405%   0.000%   0.000%   0.000%   0.000%   0.000%   0.000%   0.000%
   17    5.1  1.0 -1.0   0.724%   0.722%   0.000%   0.000%   0.000%   0.000%   0.000%   0.000%   0.000%   0.000%
   18    6.1  1.0 -1.0   0.000%   0.000%   0.112%   0.000%   0.000%   0.000%   0.000%   0.000%   0.000%   0.000%
   19    1.1  0.0  0.0   0.000%   0.000%   0.000%   0.000%   0.000%   0.000%   0.000%   0.000%   0.000%   0.000%
   20    2.1  0.0  0.0   0.000%   0.000%   0.000%   0.000%   0.000%   0.000%   0.000%   0.000%   0.000%   0.000%
   21    3.1  0.0  0.0   0.000%   0.000%   0.000%   0.000%   0.000%   0.000%   0.000%   0.000%   0.000%   0.000%
   22    4.1  0.0  0.0   0.000%   0.000%   0.000%   0.000%   0.000%   0.000%   0.000%   0.000%   0.000%   0.000%
   23    5.1  0.0  0.0   0.000%   0.000%   0.000%   0.000%   0.000%   0.000%   0.000%   0.000%   0.000%   0.000%
   24    6.1  0.0  0.0   0.000%   0.000%   0.000%   0.000%   0.000%   0.000%   0.000%   0.000%   0.000%   0.000%
   25    1.1  2.0  2.0   8.145%   8.132%   0.000%   7.964%   0.000%  22.116%   0.000%  18.698%   0.000%   4.544%
   26    2.1  2.0  2.0   0.000%   0.000%   1.013%   0.000%   7.233%   0.000%  16.662%   0.000%   9.429%   0.000%
   27    3.1  2.0  2.0   8.139%   8.126%   0.000%   0.141%   0.000%   9.511%   0.000%  26.532%   0.000%  17.161%
   28    1.1  2.0  1.0   0.000%   0.000%  18.889%   0.000%  25.689%   0.000%  16.661%   0.000%   0.977%   0.000%
   29    2.1  2.0  1.0   8.031%   8.053%   0.000%  23.941%   0.000%  10.494%   0.000%   2.727%   0.000%  16.164%
   30    3.1  2.0  1.0   0.000%   0.000%  28.628%   0.000%   0.096%   0.000%  16.677%   0.000%  26.578%   0.000%
   31    1.1  2.0  0.0  48.419%   0.000%   0.000%  35.908%   0.000%   0.000%   0.000%   4.087%   0.000%   0.000%
   32    2.1  2.0  0.0   0.000%   0.000%   0.000%   0.000%  33.963%   0.000%   0.000%   0.000%  26.032%   0.000%
   33    3.1  2.0  0.0   0.000%  48.434%   0.000%   0.000%   0.000%  15.758%   0.000%   0.000%   0.000%  24.261%
   34    1.1  2.0 -1.0   0.000%   0.000%  18.889%   0.000%  25.689%   0.000%  16.661%   0.000%   0.977%   0.000%
   35    2.1  2.0 -1.0   8.031%   8.053%   0.000%  23.941%   0.000%  10.494%   0.000%   2.727%   0.000%  16.164%
   36    3.1  2.0 -1.0   0.000%   0.000%  28.628%   0.000%   0.096%   0.000%  16.677%   0.000%  26.578%   0.000%
   37    1.1  2.0 -2.0   8.145%   8.132%   0.000%   7.964%   0.000%  22.116%   0.000%  18.698%   0.000%   4.544%
   38    2.1  2.0 -2.0   0.000%   0.000%   1.013%   0.000%   7.233%   0.000%  16.662%   0.000%   9.429%   0.000%
   39    3.1  2.0 -2.0   8.139%   8.126%   0.000%   0.141%   0.000%   9.511%   0.000%  26.532%   0.000%  17.161%

   Nr   State  S   Sz      31       32       33       34       35       36       37       38       39

    1    1.1  1.0  1.0   0.003%   0.000%   0.000%   0.002%   0.000%   0.000%   0.000%   0.000%   0.000%
    2    2.1  1.0  1.0   0.000%   0.002%   0.002%   0.000%   0.000%   0.000%   0.000%   0.000%   0.000%
    3    3.1  1.0  1.0   0.003%   0.000%   0.000%   0.002%   0.000%   0.000%   0.000%   0.000%   0.000%
    4    4.1  1.0  1.0  16.647%   0.000%   0.000%  24.668%  14.188%   0.000%   0.000%  24.185%  18.187%
    5    5.1  1.0  1.0   0.001%  24.756%  24.844%   0.001%   0.000%  24.107%  24.018%   0.001%   0.002%
    6    6.1  1.0  1.0  16.603%   0.001%   0.002%  24.496%   3.319%   0.001%   0.001%  24.350%  29.093%
    7    1.1  1.0  0.0   0.000%   0.000%   0.004%   0.000%   0.000%   0.000%   0.001%   0.000%   0.000%
    8    2.1  1.0  0.0   0.007%   0.000%   0.000%   0.000%   0.001%   0.000%   0.000%   0.000%   0.000%
    9    3.1  1.0  0.0   0.000%   0.004%   0.000%   0.000%   0.000%   0.001%   0.000%   0.000%   0.000%
   10    4.1  1.0  0.0   0.000%  48.828%   0.000%   0.000%   0.000%  48.878%   0.000%   0.000%   0.000%
   11    5.1  1.0  0.0  33.472%   0.000%   0.004%   0.000%  62.082%   0.000%   0.002%   0.000%   2.507%
   12    6.1  1.0  0.0   0.002%   0.000%  48.645%   0.000%   0.003%   0.000%  49.047%   0.000%   0.000%
   13    1.1  1.0 -1.0   0.003%   0.000%   0.000%   0.002%   0.000%   0.000%   0.000%   0.000%   0.000%
   14    2.1  1.0 -1.0   0.000%   0.002%   0.002%   0.000%   0.000%   0.000%   0.000%   0.000%   0.000%
   15    3.1  1.0 -1.0   0.003%   0.000%   0.000%   0.002%   0.000%   0.000%   0.000%   0.000%   0.000%
   16    4.1  1.0 -1.0  16.647%   0.000%   0.000%  24.668%  14.188%   0.000%   0.000%  24.185%  18.187%
   17    5.1  1.0 -1.0   0.001%  24.756%  24.844%   0.001%   0.000%  24.107%  24.018%   0.001%   0.002%
   18    6.1  1.0 -1.0  16.603%   0.001%   0.002%  24.496%   3.319%   0.001%   0.001%  24.350%  29.093%
   19    1.1  0.0  0.0   0.000%   0.000%   0.000%   0.000%   0.000%   0.000%   0.000%   0.000%   0.000%
   20    2.1  0.0  0.0   0.000%   0.000%   0.000%   0.000%   0.000%   0.000%   0.000%   0.000%   0.000%
   21    3.1  0.0  0.0   0.000%   0.000%   0.000%   0.000%   0.000%   0.000%   0.000%   0.000%   0.000%
   22    4.1  0.0  0.0   0.000%   0.000%   0.000%   0.000%   0.000%   0.000%   0.000%   0.000%   0.000%
   23    5.1  0.0  0.0   0.000%   0.000%   0.000%   0.000%   0.000%   0.000%   0.000%   0.000%   0.000%
   24    6.1  0.0  0.0   0.001%   0.000%   0.000%   0.000%   0.000%   0.000%   0.000%   0.000%   0.000%
   25    1.1  2.0  2.0   0.000%   0.248%   0.249%   0.000%   0.000%   0.240%   0.239%   0.000%   0.000%
   26    2.1  2.0  2.0   0.000%   0.000%   0.000%   0.000%   0.038%   0.000%   0.000%   0.976%   0.938%
   27    3.1  2.0  2.0   0.000%   0.247%   0.248%   0.000%   0.000%   0.239%   0.238%   0.000%   0.000%
   28    1.1  2.0  1.0   0.000%   0.000%   0.000%   0.249%   0.545%   0.000%   0.000%   0.245%   0.426%
   29    2.1  2.0  1.0   0.000%   0.248%   0.247%   0.000%   0.000%   0.246%   0.247%   0.000%   0.000%
   30    3.1  2.0  1.0   0.000%   0.000%   0.000%   0.249%   0.867%   0.000%   0.000%   0.242%   0.099%
   31    1.1  2.0  0.0   0.000%   0.000%   0.164%   0.000%   0.000%   0.000%   1.464%   0.000%   0.000%
   32    2.1  2.0  0.0   0.000%   0.000%   0.000%   0.665%   0.000%   0.000%   0.000%   0.000%   0.000%
   33    3.1  2.0  0.0   0.000%   0.164%   0.000%   0.000%   0.000%   1.455%   0.000%   0.000%   0.000%
   34    1.1  2.0 -1.0   0.000%   0.000%   0.000%   0.249%   0.545%   0.000%   0.000%   0.245%   0.426%
   35    2.1  2.0 -1.0   0.000%   0.248%   0.247%   0.000%   0.000%   0.246%   0.247%   0.000%   0.000%
   36    3.1  2.0 -1.0   0.000%   0.000%   0.000%   0.249%   0.867%   0.000%   0.000%   0.242%   0.099%
   37    1.1  2.0 -2.0   0.000%   0.248%   0.249%   0.000%   0.000%   0.240%   0.239%   0.000%   0.000%
   38    2.1  2.0 -2.0   0.000%   0.000%   0.000%   0.000%   0.038%   0.000%   0.000%   0.976%   0.938%
   39    3.1  2.0 -2.0   0.000%   0.247%   0.248%   0.000%   0.000%   0.239%   0.238%   0.000%   0.000%


 Property matrices transformed in SO basis (not sym. adapted)
 ============================================================

 No matrix element <i|DMX|i> larger than 5E-7
 No matrix element <i|DMX|1> larger than 5E-7

 No matrix element <i|DMY|i> larger than 5E-7
 No matrix element <i|DMY|1> larger than 5E-7

 No matrix element <i|DMZ|i> larger than 5E-7
 No matrix element <i|DMZ|1> larger than 5E-7


 **********************************************************************************************************************************
 DATASETS  * FILE   NREC   LENGTH (MB)   RECORD NAMES
              1      21       94.20       500      610      700      900      950      970     1000      129      960     1100   
                                          VAR    BASINP    GEOM    SYMINP    ZMAT    AOBASIS   BASIS     P2S    ABASIS      S 
                                         1400     1410     1420     1200     1210     1080     1700     1600     1650     1380   
                                           T        V       ECP      H0       H01     AOSYM    OPER      SMH    MOLCAS    JKOP   
                                         1700(1)
                                         OPER   

              2       8     4317.66       700     1000      520     2100     2140     5302     5102     5502   
                                         GEOM     BASIS   MCVARS     RHF     MCSCF    MRCI     MRCI     MRCI   

 PROGRAMS   *        TOTAL        CI        CI        CI        CI     MULTI   RHF-SCF       INT
 CPU TIMES  *     65207.99  57247.38    541.15   2480.16   4915.64     13.20      0.90      9.32
 REAL TIME  *     66162.76 SEC
 DISK USED  *         4.31 GB (local),      122.21 GB (total)
 SF USED    *        21.52 GB
 GA USED    *         0.00 MB       (max)       0.00 MB       (current)
 **********************************************************************************************************************************

 CI/USERDEF energy=   -267.806418404573

              CI              CI              CI           MULTI         RHF-SCF
   -267.72963409   -267.87568044   -267.72197925   -266.79158119   -266.72073571
 **********************************************************************************************************************************
 Molpro calculation terminated with 1 warning(s)
