
 Working directory              : /wrk/irikura/molpro.FdRf2Uq00m/
 Global scratch directory       : /wrk/irikura/molpro.FdRf2Uq00m/
 Wavefunction directory         : /home/irikura/wfu/
 Main file repository           : /wrk/irikura/molpro.FdRf2Uq00m/

 id        : nistki

 Nodes            nprocs
 pn125343.nist.gov   28
 GA implementation: MPI file
 GA implementation (serial work in mppx): MPI file

 Using customized tuning parameters: mindgm=1; mindgv=20; mindgc=4; mindgr=1; noblas=0; minvec=7
 default implementation of scratch files=sf  


 Variables initialized (1042), CPU time= 0.03 sec
 ***,Te SO-CI
                                                                                 ! add some Rydberg states
 memory,1500,M;
 
 gprint,orbitals,civector;
 
 symmetry,xyz
 geometry={Te};
 
 basis={
 ecp,te,ECP28MDF;
 spdfghi,te,aug-cc-pwCV5Z-PP;C; spdf,1,even,nprim=1,ratio=3.0;
 }
 
 NT=6
 NS=6
 NQ=3
 PAR=1                                                                           ! parity even (1) or odd (2)
 
 {rhf;wf,charge=1,sym=2,spin=3}
 
 {multi
     closed,7,3
     occ,7,9
     wf,charge=0,sym=PAR,spin=2;state,NT;
     wf,charge=0,sym=PAR,spin=0;state,NS;
     wf,charge=0,sym=PAR,spin=4;state,NQ;
     expec2,lxx,lyy,lzz;
 }
 table, energy, ll
 title, Energies and &lt;L**2&gt; values
 
 core,0,0
 
 {ci;wf,sym=PAR,spin=2;state,NT; save,5302.2}
 hlsdiag = energd4
                                                                                 !hlsdiag(1) = energd
 {ci;wf,sym=PAR,spin=0;state,NS; save,5102.2}
 hlsdiag(NT+1) = energd4
 {ci;wf,sym=PAR,spin=4;state,NQ; save,5502.2}
 hlsdiag(NT+NS+1) = energd4
 
 table,hlsdiag
 
 {ci;hlsmat,ecp,5302.2,5102.2,5502.2;print,vls=0,hls=0}                          !compute and diagonalize SO matrix
 Commands initialized (847), CPU time= 0.02 sec, 718 directives.
 Default parameters read. Elapsed time= 0.17 sec

 Checking input...
 Passed
1


                                         ***  PROGRAM SYSTEM MOLPRO  ***
                                       Copyright, TTI GmbH Stuttgart, 2015
                                    Version 2024.1 linked Mon Jun 17 07:53:25 2024


 **********************************************************************************************************************************
 LABEL *   Te SO-CI                                                                                                                                                      
  (64 PROC) 64 bit mpp version                                                           DATE: 27-Jan-25          TIME: 09:45:12  
 **********************************************************************************************************************************

 SHA1:             0134236b472f03f1f5189f93707d8671e415b05c
 **********************************************************************************************************************************

 Memory per process:      1500 MW
 Total memory per node:  42000 MW

 GA preallocation disabled
 GA check disabled

 Variable memory set to 1500.0 MW


 ZSYMEL=XYZ

 SETTING BASIS          =    USERDEF
 SETTING NT             =         6.00000000                                  
 SETTING NS             =         6.00000000                                  
 SETTING NQ             =         3.00000000                                  
 SETTING PAR            =         1.00000000                                  


 Recomputing integrals since basis changed


 Using spherical harmonics

 Library entry Te   ECP ECP28MDF                 selected for group  1
 Library entry TE     S AUG-CC-PWCV5Z-PP     selected for orbital group  1
 Even tempered Te S diffuse               selected for group 1    nprim= 1    centre=  0.009    ratio= 3.000    dratio= 1.000
 Library entry TE     P AUG-CC-PWCV5Z-PP     selected for orbital group  1
 Even tempered Te P diffuse               selected for group 1    nprim= 1    centre=  0.007    ratio= 3.000    dratio= 1.000
 Library entry TE     D AUG-CC-PWCV5Z-PP     selected for orbital group  1
 Even tempered Te D diffuse               selected for group 1    nprim= 1    centre=  0.015    ratio= 3.000    dratio= 1.000
 Library entry TE     F AUG-CC-PWCV5Z-PP     selected for orbital group  1
 Even tempered Te F diffuse               selected for group 1    nprim= 1    centre=  0.025    ratio= 3.000    dratio= 1.000
 Library entry TE     G AUG-CC-PWCV5Z-PP     selected for orbital group  1
 Library entry TE     H AUG-CC-PWCV5Z-PP     selected for orbital group  1
 Library entry TE     I AUG-CC-PWCV5Z-PP     selected for orbital group  1


 PROGRAM * SEWARD (Integral evaluation for generally contracted gaussian basis sets)     Author: Roland Lindh, 1990

 Geometry written to block  1 of record 700

 Orientation using atomic masses  
 Molecule type: Atom
 User-specified symmetry elements: XYZ
 Symmetry elements: XYZ
 Rotational constants:       0.0000000      0.0000000      0.0000000 GHz  (calculated with average atomic masses)

 Point group  Ci  



 ATOMIC COORDINATES

 NR  ATOM    CHARGE       X              Y              Z

   1  TE     24.00    0.000000000    0.000000000    0.000000000

 NUCLEAR CHARGE:                   24
 NUMBER OF PRIMITIVE AOS:         485
 NUMBER OF SYMMETRY AOS:          348
 NUMBER OF CONTRACTIONS:          281   (  135Ag  +  146Au  )
 NUMBER OF INNER CORE ORBITALS:     0   (    0Ag  +    0Au  )
 NUMBER OF OUTER CORE ORBITALS:     9   (    6Ag  +    3Au  )
 NUMBER OF VALENCE ORBITALS:        4   (    1Ag  +    3Au  )


 LX: Ag           LY: Ag           LZ: Ag 


 NUCLEAR REPULSION ENERGY    0.00000000

 EXTRA SYMMETRY OF AOS IN SYMMETRY 1:   1 1 1 1 1 1 1 1 1 1   1 1 1 2 3 4 5 6 2 3   4 5 6 2 3 4 5 6 2 3   4 5 6 2 3 4 5 6 2 3
                                        4 5 6 2 3 4 5 6 2 3   4 5 6 2 3 4 5 6 2 3   4 5 6 2 3 4 5 6 7 8   9101112131415 7 8 9
                                       101112131415 7 8 910  1112131415 7 8 91011  12131415 7 8 9101112  131415 7 8 910111213
                                       14151617181920212223  2425262728
 EXTRA SYMMETRY OF AOS IN SYMMETRY 2:   1 2 3 1 2 3 1 2 3 1   2 3 1 2 3 1 2 3 1 2   3 1 2 3 1 2 3 1 2 3   1 2 3 1 2 3 1 2 3 4
                                        5 6 7 8 910 4 5 6 7   8 910 4 5 6 7 8 910   4 5 6 7 8 910 4 5 6   7 8 910 4 5 6 7 8 9
                                       10 4 5 6 7 8 910 4 5   6 7 8 910 4 5 6 7 8   9101112131415161718  19202111121314151617
                                       18192021111213141516  17181920211112131415  161718192021


 Eigenvalues of metric

         1 0.549E-05 0.283E-04 0.217E-03 0.217E-03 0.217E-03 0.217E-03 0.217E-03 0.268E-03
         2 0.224E-06 0.224E-06 0.224E-06 0.401E-03 0.401E-03 0.401E-03 0.254E-02 0.254E-02


 Contracted 2-electron integrals neglected if value below      1.0D-14
 AO integral compression algorithm  1   Integral accuracy      1.0D-14

     910.688 MB (compressed) written to integral file ( 17.6%)

     Node minimum: 19.137 MB, node maximum: 54.002 MB


 NUMBER OF SORTED TWO-ELECTRON INTEGRALS:   14108412.     BUFFER LENGTH:  32768
 NUMBER OF SEGMENTS:   1  SEGMENT LENGTH:   14108412      RECORD LENGTH: 524288

 Memory used in sort:      14.67 MW

 SORT1 READ   646821870. AND WROTE     2419204. INTEGRALS IN      7 RECORDS. CPU TIME:     4.41 SEC, REAL TIME:     4.57 SEC
 SORT2 READ    68066261. AND WROTE   395255076. INTEGRALS IN   2044 RECORDS. CPU TIME:     0.23 SEC, REAL TIME:     0.30 SEC

 Node minimum:    14103376.  Node maximum:    14140936. integrals

 OPERATOR DM      FOR CENTER  0  COORDINATES:    0.000000    0.000000    0.000000


 **********************************************************************************************************************************
 DATASETS  * FILE   NREC   LENGTH (MB)   RECORD NAMES
              1      19       30.69       500      610      700      900      950      970     1000      129      960     1100   
                                          VAR    BASINP    GEOM    SYMINP    ZMAT    AOBASIS   BASIS     P2S    ABASIS      S 
                                         1400     1410     1420     1200     1210     1080     1700     1600     1650   
                                           T        V       ECP      H0       H01     AOSYM    OPER      SMH    MOLCAS    

 PROGRAMS   *        TOTAL       INT
 CPU TIMES  *        10.67     10.34
 REAL TIME  *        12.09 SEC
 DISK USED  *        31.11 MB (local),        2.43 GB (total)
 GA USED    *         0.00 MB       (max)       0.00 MB       (current)
 **********************************************************************************************************************************


 Program * Restricted Hartree-Fock

 Orbital guess generated from atomic densities.

 Initial alpha occupancy:   7   6
 Initial beta  occupancy:   7   3

 NELEC=   23   SYM=2   MS2= 3   THRE=1.0D-08   THRD=3.2D-06   THRG=3.2D-06  HFMA2=F  DIIS_START=2   DIIS_MAX=10   DIIS_INCORE=F

 Level shifts:    0.00 (CLOSED)    0.00 (OPEN)    0.30 (GAP_MIN)

 ITER           ETOT              DE          GRAD        DDIFF     DIIS  NEXP   TIME(IT)  TIME(TOT)  DIAG
   1     -266.67494472    -266.67494472     0.00D+00     0.45D-01     0     0       0.09      0.19    start
   2     -266.71783667      -0.04289196     0.27D-02     0.27D-02     1     0       0.10      0.29    diag2
   3     -266.72026872      -0.00243204     0.15D-02     0.58D-03     2     0       0.11      0.40    diag2
   4     -266.72071079      -0.00044207     0.28D-03     0.37D-03     3     0       0.10      0.50    diag2
   5     -266.72073556      -0.00002477     0.61D-04     0.14D-03     4     0       0.10      0.60    diag2
   6     -266.72073571      -0.00000015     0.64D-05     0.22D-04     5     0       0.10      0.70    diag2
   7     -266.72073571      -0.00000000     0.78D-06     0.22D-05     6     0       0.10      0.80    diag2
   8     -266.72073571      -0.00000000     0.54D-07     0.20D-06     0     0       0.10      0.90    fixocc

 Final alpha occupancy:   7   6
 Final beta  occupancy:   7   3

 !RHF STATE 1.2 Energy               -266.720735711542
  RHF One-electron energy            -459.058938876947
  RHF Two-electron energy             192.338203165405
  RHF Kinetic energy                  102.493374858592
  RHF Nuclear energy                    0.000000000000
  RHF Virial quotient                  -2.602321721570

 !RHF STATE 1.2 Dipole moment           0.00000000     0.00000000     0.00000000
 Dipole moment /Debye                   0.00000000     0.00000000     0.00000000

 ELECTRON ORBITALS
 =================

  Orbital  Occupation    Energy    Cen Mu Typ  Coefficients
    1.1     2.00000    -7.45861     1  1  s    1.00014
    2.1     2.00000    -2.27825     1  1  d0  -0.25812    1  1  d2-  0.27480    1  1  d1+ -0.35894    1  1  d2+  0.55439
                                    1  1  d1-  0.65055
    3.1     2.00000    -2.27825     1  1  d0   0.39453    1  1  d2-  0.69857    1  1  d1+ -0.49751    1  1  d2+ -0.28570
    4.1     2.00000    -2.27825     1  1  d0   0.78732    1  1  d2+  0.56972
    5.1     2.00000    -2.27825     1  1  d0  -0.28532    1  1  d2-  0.65462    1  1  d1+  0.65181
    6.1     2.00000    -2.27825     1  1  d0   0.27927    1  1  d1+  0.38273    1  1  d2+ -0.50519    1  1  d1-  0.71767
    7.1     2.00000    -1.03500     1  1  s   -0.44110    1  5  s    0.66288    1  6  s    0.50394
    1.2     2.00000    -5.42335     1  1  py  -0.67355    1  1  pz   0.73235
    2.2     2.00000    -5.42335     1  1  px   0.99104
    3.2     2.00000    -5.42335     1  1  py   0.73958    1  1  pz   0.66771
    4.2     1.00000    -0.69090     1  5  py  -0.37404    1  5  pz   0.42236
    5.2     1.00000    -0.69090     1  1  px  -0.32301    1  4  px   0.26189    1  5  px   0.55511    1  6  px   0.31345
    6.2     1.00000    -0.69090     1  1  py  -0.25238    1  5  py   0.43371    1  5  pz   0.36040


 HOMO      6.2    -0.690899 =     -18.8003eV
 LUMO      8.1    -0.116665 =      -3.1746eV
 LUMO-HOMO         0.574235 =      15.6257eV

 Orbitals saved in record  2100.2


 **********************************************************************************************************************************
 DATASETS  * FILE   NREC   LENGTH (MB)   RECORD NAMES
              1      19       30.69       500      610      700      900      950      970     1000      129      960     1100   
                                          VAR    BASINP    GEOM    SYMINP    ZMAT    AOBASIS   BASIS     P2S    ABASIS      S 
                                         1400     1410     1420     1200     1210     1080     1700     1600     1650   
                                           T        V       ECP      H0       H01     AOSYM    OPER      SMH    MOLCAS    

              2       4        1.64       700     1000      520     2100   
                                         GEOM     BASIS   MCVARS     RHF  

 PROGRAMS   *        TOTAL   RHF-SCF       INT
 CPU TIMES  *        11.57      0.90     10.34
 REAL TIME  *        13.11 SEC
 DISK USED  *        37.02 MB (local),        2.59 GB (total)
 GA USED    *         0.00 MB       (max)       0.00 MB       (current)
 **********************************************************************************************************************************

 PROGRAM * MULTI (Direct Multiconfiguration SCF)       Authors: P.J. Knowles, H.-J. Werner (1984)
                                                                D.A. Kreplin, P.J. Knowles, H.-J. Werner (2019)

 Number of closed-shell orbitals:  10 (    7    3)
 Number of active  orbitals:        6 (    0    6)
 Number of external orbitals:     265 (  128  137)

 State symmetry 1

 Number of active electrons:   4    Spin symmetry=Triplet   Space symmetry=1
 Number of states:             6
 Number of CSFs:             105   (120 determinants, 120 intermediate states)

 State symmetry 2

 Number of active electrons:   4    Spin symmetry=Singlet   Space symmetry=1
 Number of states:             6
 Number of CSFs:             105   (225 determinants, 225 intermediate states)

 State symmetry 3

 Number of active electrons:   4    Spin symmetry=Quintet   Space symmetry=1
 Number of states:             3
 Number of CSFs:              15   (15 determinants, 15 intermediate states)

 Molecular orbitals read from record     2100.2  Type=RHF/CANONICAL  
 *** IN SYMMETRY 1 ORBITAL  2 SYMMETRY CONTAMINATION OF 0.690D+00 HAS BEEN REMOVED
 *** IN SYMMETRY 1 ORBITAL  3 SYMMETRY CONTAMINATION OF 0.659D+00 HAS BEEN REMOVED
 *** IN SYMMETRY 1 ORBITAL  4 SYMMETRY CONTAMINATION OF 0.527D+00 HAS BEEN REMOVED
 *** IN SYMMETRY 1 ORBITAL  5 SYMMETRY CONTAMINATION OF 0.667D+00 HAS BEEN REMOVED
 *** IN SYMMETRY 1 ORBITAL  6 SYMMETRY CONTAMINATION OF 0.743D+00 HAS BEEN REMOVED

 EXTRA SYMMETRY OF MOS IN SYMMETRY 1:   1 6 3 2 4 5 1 1 3 5   6 2 4 1 5 3 4 2 6 1   6 4 3 2 512141011 7   91315 8 6 4 2 3 5 1
                                       1211 9 715 8131014 3   6 2 4 5 11411 9 8 7  12151013 3 5 4 6 2 1   9151412 7131110 8 3
                                        6 4 5 2242321272618  222528201617191415 9  11 71310 812 1 3 6 4   5 21415 9131110 8 7
                                       12 1 3 6 4 2 5 5 3 4   2 6 1 1 1
 *** IN SYMMETRY 2 ORBITAL  1 SYMMETRY CONTAMINATION OF 0.515D+00 HAS BEEN REMOVED
 *** IN SYMMETRY 2 ORBITAL  2 SYMMETRY CONTAMINATION OF 0.124D+00 HAS BEEN REMOVED
 *** IN SYMMETRY 2 ORBITAL  3 SYMMETRY CONTAMINATION OF 0.506D+00 HAS BEEN REMOVED
 *** IN SYMMETRY 2 ORBITAL  4 SYMMETRY CONTAMINATION OF 0.528D+00 HAS BEEN REMOVED
 *** IN SYMMETRY 2 ORBITAL  5 SYMMETRY CONTAMINATION OF 0.216D+00 HAS BEEN REMOVED
 *** IN SYMMETRY 2 ORBITAL  6 SYMMETRY CONTAMINATION OF 0.515D+00 HAS BEEN REMOVED
 *** IN SYMMETRY 2 ORBITAL  7 SYMMETRY CONTAMINATION OF 0.117D+00 HAS BEEN REMOVED
 *** IN SYMMETRY 2 ORBITAL  9 SYMMETRY CONTAMINATION OF 0.117D+00 HAS BEEN REMOVED
 EXTRA SYMMETRY OF MOS IN SYMMETRY 2:   3 1 2 3 1 2 3 1 2 3   1 2 7 5 9 6 4 810 3   1 2 810 9 4 7 6 5 3   1 210 6 7 5 8 4 910
                                        8 4 6 5 7 917141216  20191121131518 3 1 2   810 9 4 5 7 6181216  1419201115211317 8 9
                                        6 5 410 7 2 1 3 810   6 7 4 8 91521161312  201819111417 2 1 3 8  10 4 6 5 7 515171321
                                       11191220181416 2 1 3   9 7 4 610 5 9 1 2 3   1 2 3 1 2 3

 Wavefunction dump at record             2140.2

 Convergence thresholds  0.10E-04 (gradient)  0.10E-05 (energy)

 Weight factors for state symmetry  1:    0.06667   0.06667   0.06667   0.06667   0.06667   0.06667
 Weight factors for state symmetry  2:    0.06667   0.06667   0.06667   0.06667   0.06667   0.06667
 Weight factors for state symmetry  3:    0.06667   0.06667   0.06667
 
 Number of orbital rotations:  2147  ( 18 closed/active, 1307 closed/virtual, 0 active/active, 822 active/virtual )
 Total number of variables:    4262
 
 Second-order MCSCF: L-BFGS accelerated
 
 ITER  MIC  NCI  NEG     ENERGY(VAR)    ENERGY(PROJ) ENERGY CHANGE       GRAD(0)  GRAD(ORB)   GRAD(CI)      STEP      TIME
   1    5   12    0   -266.88165716    -266.89114190   -0.00948474    0.11505642 0.00003636 0.00000000  0.15E+00      2.99
   2    7   18    0   -266.89125829    -266.89126281   -0.00000452    0.00267548 0.00000190 0.00000000  0.59E-02      6.25
   3    5   15    0   -266.89126281    -266.89126281   -0.00000000    0.00000204 0.00000001 0.00000000  0.17E-04      9.19

 CONVERGENCE REACHED!  Final gradient:    0.00000011 ( 0.11E-06)
                       Final energy:   -266.89126281
 
 Results for state 1.1 Triplet
 =============================
 !MCSCF STATE 1.1 Triplet Energy              -266.997894663103
 Nuclear energy                                  0.00000000
 Kinetic energy                                102.89739902
 One electron energy                          -467.24259087
 Two electron energy                           200.24469620
 Virial ratio                                    3.59479731
 
 !MCSCF STATE 1.1 Triplet Dipole moment          0.00000000     0.00000000     0.00000000
 Dipole moment /Debye                            0.00000000     0.00000000     0.00000000
 
 Results for state 2.1 Triplet
 =============================
 !MCSCF STATE 2.1 Triplet Energy              -266.997894663088
 Nuclear energy                                  0.00000000
 Kinetic energy                                102.89739902
 One electron energy                          -467.24259087
 Two electron energy                           200.24469620
 Virial ratio                                    3.59479731
 
 !MCSCF STATE 2.1 Triplet Dipole moment          0.00000000     0.00000000     0.00000000
 Dipole moment /Debye                            0.00000000     0.00000000     0.00000000
 
 Results for state 3.1 Triplet
 =============================
 !MCSCF STATE 3.1 Triplet Energy              -266.997894663066
 Nuclear energy                                  0.00000000
 Kinetic energy                                102.89739903
 One electron energy                          -467.24259088
 Two electron energy                           200.24469621
 Virial ratio                                    3.59479731
 
 !MCSCF STATE 3.1 Triplet Dipole moment          0.00000000     0.00000000     0.00000000
 Dipole moment /Debye                            0.00000000     0.00000000     0.00000000
 
 Results for state 4.1 Triplet
 =============================
 !MCSCF STATE 4.1 Triplet Energy              -266.781411348664
 Nuclear energy                                  0.00000000
 Kinetic energy                                102.27092325
 One electron energy                          -461.41324789
 Two electron energy                           194.63183655
 Virial ratio                                    3.60857537
 
 !MCSCF STATE 4.1 Triplet Dipole moment          0.00000000     0.00000000     0.00000000
 Dipole moment /Debye                            0.00000000     0.00000000     0.00000000
 
 Results for state 5.1 Triplet
 =============================
 !MCSCF STATE 5.1 Triplet Energy              -266.781411348648
 Nuclear energy                                  0.00000000
 Kinetic energy                                102.27092325
 One electron energy                          -461.41324790
 Two electron energy                           194.63183655
 Virial ratio                                    3.60857537
 
 !MCSCF STATE 5.1 Triplet Dipole moment          0.00000000     0.00000000     0.00000000
 Dipole moment /Debye                            0.00000000     0.00000000     0.00000000
 
 Results for state 6.1 Triplet
 =============================
 !MCSCF STATE 6.1 Triplet Energy              -266.781411348644
 Nuclear energy                                  0.00000000
 Kinetic energy                                102.27092325
 One electron energy                          -461.41324790
 Two electron energy                           194.63183655
 Virial ratio                                    3.60857537
 
 !MCSCF STATE 6.1 Triplet Dipole moment          0.00000000     0.00000000     0.00000000
 Dipole moment /Debye                            0.00000000     0.00000000     0.00000000
 
 Results for state 1.1 Singlet
 =============================
 !MCSCF STATE 1.1 Singlet Energy              -266.953721870695
 Nuclear energy                                  0.00000000
 Kinetic energy                                102.87613775
 One electron energy                          -467.15189409
 Two electron energy                           200.19817222
 Virial ratio                                    3.59490420
 
 !MCSCF STATE 1.1 Singlet Dipole moment          0.00000000     0.00000000     0.00000000
 Dipole moment /Debye                            0.00000000     0.00000000     0.00000000
 
 Results for state 2.1 Singlet
 =============================
 !MCSCF STATE 2.1 Singlet Energy              -266.953721870672
 Nuclear energy                                  0.00000000
 Kinetic energy                                102.87613775
 One electron energy                          -467.15189410
 Two electron energy                           200.19817223
 Virial ratio                                    3.59490420
 
 !MCSCF STATE 2.1 Singlet Dipole moment          0.00000000     0.00000000     0.00000000
 Dipole moment /Debye                            0.00000000     0.00000000     0.00000000
 
 Results for state 3.1 Singlet
 =============================
 !MCSCF STATE 3.1 Singlet Energy              -266.953721870672
 Nuclear energy                                  0.00000000
 Kinetic energy                                102.87613775
 One electron energy                          -467.15189410
 Two electron energy                           200.19817223
 Virial ratio                                    3.59490420
 
 !MCSCF STATE 3.1 Singlet Dipole moment          0.00000000     0.00000000     0.00000000
 Dipole moment /Debye                            0.00000000     0.00000000     0.00000000
 
 Results for state 4.1 Singlet
 =============================
 !MCSCF STATE 4.1 Singlet Energy              -266.953721870604
 Nuclear energy                                  0.00000000
 Kinetic energy                                102.87613776
 One electron energy                          -467.15189411
 Two electron energy                           200.19817224
 Virial ratio                                    3.59490420
 
 !MCSCF STATE 4.1 Singlet Dipole moment          0.00000000     0.00000000     0.00000000
 Dipole moment /Debye                            0.00000000     0.00000000     0.00000000
 
 Results for state 5.1 Singlet
 =============================
 !MCSCF STATE 5.1 Singlet Energy              -266.953721870604
 Nuclear energy                                  0.00000000
 Kinetic energy                                102.87613776
 One electron energy                          -467.15189411
 Two electron energy                           200.19817224
 Virial ratio                                    3.59490420
 
 !MCSCF STATE 5.1 Singlet Dipole moment          0.00000000     0.00000000     0.00000000
 Dipole moment /Debye                            0.00000000     0.00000000     0.00000000
 
 Results for state 6.1 Singlet
 =============================
 !MCSCF STATE 6.1 Singlet Energy              -266.888927910615
 Nuclear energy                                  0.00000000
 Kinetic energy                                102.82583275
 One electron energy                          -466.91357151
 Two electron energy                           200.02464360
 Virial ratio                                    3.59554356
 
 !MCSCF STATE 6.1 Singlet Dipole moment          0.00000000     0.00000000     0.00000000
 Dipole moment /Debye                            0.00000000     0.00000000     0.00000000
 
 Results for state 1.1 Quintet
 =============================
 !MCSCF STATE 1.1 Quintet Energy              -266.791162272679
 Nuclear energy                                  0.00000000
 Kinetic energy                                102.20556269
 One electron energy                          -461.13128281
 Two electron energy                           194.34012054
 Virial ratio                                    3.61033896
 
 !MCSCF STATE 1.1 Quintet Dipole moment          0.00000000     0.00000000     0.00000000
 Dipole moment /Debye                            0.00000000     0.00000000     0.00000000
 
 Results for state 2.1 Quintet
 =============================
 !MCSCF STATE 2.1 Quintet Energy              -266.791162272673
 Nuclear energy                                  0.00000000
 Kinetic energy                                102.20556269
 One electron energy                          -461.13128282
 Two electron energy                           194.34012054
 Virial ratio                                    3.61033896
 
 !MCSCF STATE 2.1 Quintet Dipole moment          0.00000000     0.00000000     0.00000000
 Dipole moment /Debye                            0.00000000     0.00000000     0.00000000
 
 Results for state 3.1 Quintet
 =============================
 !MCSCF STATE 3.1 Quintet Energy              -266.791162272672
 Nuclear energy                                  0.00000000
 Kinetic energy                                102.20556269
 One electron energy                          -461.13128282
 Two electron energy                           194.34012054
 Virial ratio                                    3.61033896
 
 !MCSCF STATE 3.1 Quintet Dipole moment          0.00000000     0.00000000     0.00000000
 Dipole moment /Debye                            0.00000000     0.00000000     0.00000000
 
 State-averaged charge density matrix saved on record 2140.2 (density set 1)
 
 No non-zero expectation values
 
 Expectation values for two-electron operators:
 
 ? Warning
 ? Transition properties are only calculated between states of the same symmetry
 ? The problem occurs in mu_properties_expec2

 !MCSCF expec      <1.1 Triplet|LXLX|1.1 Triplet>     0.999999999981
 !MCSCF expec      <2.1 Triplet|LXLX|2.1 Triplet>     0.000000000000
 !MCSCF expec      <3.1 Triplet|LXLX|3.1 Triplet>     0.999999999993
 !MCSCF expec      <4.1 Triplet|LXLX|4.1 Triplet>    -0.000000000000
 !MCSCF expec      <5.1 Triplet|LXLX|5.1 Triplet>     0.999999999983
 !MCSCF expec      <6.1 Triplet|LXLX|6.1 Triplet>     0.999999999979
 !MCSCF expec      <1.1 Singlet|LXLX|1.1 Singlet>     2.993488278846
 !MCSCF expec      <2.1 Singlet|LXLX|2.1 Singlet>     1.000000000000
 !MCSCF expec      <3.1 Singlet|LXLX|3.1 Singlet>     3.999999975589
 !MCSCF expec      <4.1 Singlet|LXLX|4.1 Singlet>     1.006428333237
 !MCSCF expec      <5.1 Singlet|LXLX|5.1 Singlet>     1.000000000030
 !MCSCF expec      <6.1 Singlet|LXLX|6.1 Singlet>     0.000000000001
 !MCSCF expec      <1.1 Quintet|LXLX|1.1 Quintet>    -0.000000000000
 !MCSCF expec      <2.1 Quintet|LXLX|2.1 Quintet>     0.999999999990
 !MCSCF expec      <3.1 Quintet|LXLX|3.1 Quintet>     0.999999999990
 
 !MCSCF expec      <1.1 Triplet|LYLY|1.1 Triplet>     0.999999993065
 !MCSCF expec      <2.1 Triplet|LYLY|2.1 Triplet>     1.000000000000
 !MCSCF expec      <3.1 Triplet|LYLY|3.1 Triplet>     0.000000009060
 !MCSCF expec      <4.1 Triplet|LYLY|4.1 Triplet>     0.999999999991
 !MCSCF expec      <5.1 Triplet|LYLY|5.1 Triplet>     0.000000479296
 !MCSCF expec      <6.1 Triplet|LYLY|6.1 Triplet>     0.999999692701
 !MCSCF expec      <1.1 Singlet|LYLY|1.1 Singlet>     0.000014103630
 !MCSCF expec      <2.1 Singlet|LYLY|2.1 Singlet>     1.000000000000
 !MCSCF expec      <3.1 Singlet|LYLY|3.1 Singlet>     1.000000000515
 !MCSCF expec      <4.1 Singlet|LYLY|4.1 Singlet>     3.999986244212
 !MCSCF expec      <5.1 Singlet|LYLY|5.1 Singlet>     3.999999999952
 !MCSCF expec      <6.1 Singlet|LYLY|6.1 Singlet>     0.000000000001
 !MCSCF expec      <1.1 Quintet|LYLY|1.1 Quintet>     0.999999999990
 !MCSCF expec      <2.1 Quintet|LYLY|2.1 Quintet>     0.000009484977
 !MCSCF expec      <3.1 Quintet|LYLY|3.1 Quintet>     0.999990521170
 
 !MCSCF expec      <1.1 Triplet|LZLZ|1.1 Triplet>     0.000000006954
 !MCSCF expec      <2.1 Triplet|LZLZ|2.1 Triplet>     1.000000000000
 !MCSCF expec      <3.1 Triplet|LZLZ|3.1 Triplet>     0.999999990947
 !MCSCF expec      <4.1 Triplet|LZLZ|4.1 Triplet>     0.999999999991
 !MCSCF expec      <5.1 Triplet|LZLZ|5.1 Triplet>     0.999999520704
 !MCSCF expec      <6.1 Triplet|LZLZ|6.1 Triplet>     0.000000307303
 !MCSCF expec      <1.1 Singlet|LZLZ|1.1 Singlet>     3.006497617524
 !MCSCF expec      <2.1 Singlet|LZLZ|2.1 Singlet>     3.999999999999
 !MCSCF expec      <3.1 Singlet|LZLZ|3.1 Singlet>     1.000000023895
 !MCSCF expec      <4.1 Singlet|LZLZ|4.1 Singlet>     0.993585422551
 !MCSCF expec      <5.1 Singlet|LZLZ|5.1 Singlet>     1.000000000018
 !MCSCF expec      <6.1 Singlet|LZLZ|6.1 Singlet>     0.000000000001
 !MCSCF expec      <1.1 Quintet|LZLZ|1.1 Quintet>     0.999999999990
 !MCSCF expec      <2.1 Quintet|LZLZ|2.1 Quintet>     0.999990515013
 !MCSCF expec      <3.1 Quintet|LZLZ|3.1 Quintet>     0.000009478820
 
 !MCSCF expec      <1.1 Triplet|L**2|1.1 Triplet>     2.000000000000
 !MCSCF expec      <2.1 Triplet|L**2|2.1 Triplet>     2.000000000000
 !MCSCF expec      <3.1 Triplet|L**2|3.1 Triplet>     2.000000000000
 !MCSCF expec      <4.1 Triplet|L**2|4.1 Triplet>     1.999999999983
 !MCSCF expec      <5.1 Triplet|L**2|5.1 Triplet>     1.999999999983
 !MCSCF expec      <6.1 Triplet|L**2|6.1 Triplet>     1.999999999983
 !MCSCF expec      <1.1 Singlet|L**2|1.1 Singlet>     5.999999999999
 !MCSCF expec      <2.1 Singlet|L**2|2.1 Singlet>     5.999999999999
 !MCSCF expec      <3.1 Singlet|L**2|3.1 Singlet>     5.999999999999
 !MCSCF expec      <4.1 Singlet|L**2|4.1 Singlet>     5.999999999999
 !MCSCF expec      <5.1 Singlet|L**2|5.1 Singlet>     5.999999999999
 !MCSCF expec      <6.1 Singlet|L**2|6.1 Singlet>     0.000000000002
 !MCSCF expec      <1.1 Quintet|L**2|1.1 Quintet>     1.999999999980
 !MCSCF expec      <2.1 Quintet|L**2|2.1 Quintet>     1.999999999980
 !MCSCF expec      <3.1 Quintet|L**2|3.1 Quintet>     1.999999999980
 
 EXTRA SYMMETRY OF MOS IN SYMMETRY 1:   1 3 5 4 2 6 1 1 3 5   4 6 2 1 3 5 4 6 2 1   3 5 4 6 210131415 9   812 711 3 5 4 2 6 1
                                       10131415 9 812 711 3   5 4 2 6 113101415 9   812 711 3 5 4 2 6 1  13101415 9 812 711 3
                                        5 4 2 6221618202419  23262817212527131014  15 9 812 711 1 3 5 4   2 613101415 9 812 7
                                       11 1 3 5 4 6 2 3 5 4   6 2 1 1 1
 EXTRA SYMMETRY OF MOS IN SYMMETRY 2:   1 2 3 3 2 1 3 1 2 1   2 3 7 9 810 4 6 5 1   2 3 7 9 810 4 6 5 1   2 3 7 9 810 4 6 5 7
                                        9 810 4 6 518201517  14161121131912 1 2 3   9 7 810 4 6 5201817  1514161121131912 7 9
                                        810 4 6 5 1 2 3 9 7  10 8 4 6 52018151714  161121131912 1 2 3 9   710 8 4 6 520181517
                                       14161121131912 1 2 3   7 9 810 4 6 5 1 2 3   1 2 3 1 2 3
 
  NATURAL ORBITALS (STATE AVERAGED)
  =================================

  Orbital  Occupation    Energy    Cen Mu Typ  Coefficients
    1.1     2.00000    -7.21376     1  1  s    1.00004
    2.1     2.00000    -2.03389     1  1  d2-  1.00036
    3.1     2.00000    -2.03389     1  1  d2+ -1.00036
    4.1     2.00000    -2.03389     1  1  d1+  1.00036
    5.1     2.00000    -2.03389     1  1  d0   1.00036
    6.1     2.00000    -2.03389     1  1  d1-  1.00036
    7.1     2.00000    -0.81253     1  1  s   -0.43173    1  5  s    0.61242    1  6  s    0.51149
    1.2     2.00000    -5.17887     1  1  px   1.00030
    2.2     2.00000    -5.17887     1  1  py   1.00030
    3.2     2.00000    -5.17887     1  1  pz   1.00030
    4.2     1.19780    -0.28170     1  1  pz  -0.31612    1  5  pz   0.49648    1  6  pz   0.37332
    5.2     1.19780    -0.28170     1  1  py  -0.31612    1  5  py   0.49648    1  6  py   0.37332
    6.2     1.19779    -0.28170     1  1  px  -0.31612    1  5  px   0.49648    1  6  px   0.37332
    7.2     0.13554     0.03655     1 12  pz   0.79847    1 13  pz   0.28299
    8.2     0.13554     0.03655     1 12  px   0.79847    1 13  px   0.28299
    9.2     0.13554     0.03655     1 12  py   0.79847    1 13  py   0.28299
 
 Natural orbital dump (state averaged) at molpro section 2140.2 (Orbital set 2)
 
 Transform the CI vectors
 
 CI Coefficients of symmetry 1 (Triplet)
 =======================================
 
 2aa000         0.99732649     -0.00000436     -0.00008306     -0.00000000     -0.00004622     -0.06676852
 a2a000         0.00008306     -0.00000000      0.99732648     -0.00000000      0.06676862     -0.00004622
 aa2000         0.00000436      0.99732648      0.00000000     -0.06676874     -0.00000000      0.00000000
 aaa0b0         0.00000025      0.05793632     -0.00000000      0.85125864      0.00000000     -0.00000000
 aaab00         0.05793614     -0.00000025     -0.00000482      0.00000000      0.00058933      0.85125844
 aaa00b        -0.00000482      0.00000000     -0.05793623     -0.00000000      0.85125844     -0.00058933
 aba0a0        -0.00000007     -0.01583102      0.00000000     -0.31698619     -0.00000000      0.00000000
 baa0a0        -0.00000007     -0.01583102     -0.00000000     -0.31698619     -0.00000000      0.00000000
 abaa00        -0.01583102      0.00000007      0.00000132     -0.00000000     -0.00021945     -0.31698612
 aaba00        -0.01583102      0.00000007      0.00000132     -0.00000000     -0.00021945     -0.31698612
 aab00a         0.00000132     -0.00000000      0.01583102      0.00000000     -0.31698611      0.00021945
 baa00a         0.00000132     -0.00000000      0.01583102      0.00000000     -0.31698611      0.00021945
 aab0a0        -0.00000011     -0.02627427      0.00000000     -0.21728626     -0.00000000      0.00000000
 baaa00        -0.02627410      0.00000011      0.00000219     -0.00000000     -0.00015043     -0.21728621
 aba00a         0.00000219     -0.00000000      0.02627418      0.00000000     -0.21728621      0.00015043
 a0200a         0.00000000      0.00069845     -0.00000000     -0.07338475     -0.00000000      0.00000000
 2a00a0         0.00069853     -0.00000000     -0.00000006     -0.00000000     -0.00005080     -0.07338475
 0a2a00        -0.00000000     -0.00069836     -0.00000000      0.07338474      0.00000000     -0.00000000
 20a00a        -0.00069845      0.00000000      0.00000006      0.00000000      0.00005080      0.07338474
 a200a0         0.00000006     -0.00000000      0.00069854     -0.00000000      0.07338474     -0.00005080
 02aa00        -0.00000006      0.00000000     -0.00069836      0.00000000     -0.07338473      0.00005080
 0aa200        -0.01430249      0.00000006      0.00000119     -0.00000000     -0.00004583     -0.06619808
 a0a002        -0.00000119      0.00000000     -0.01430249     -0.00000000      0.06619798     -0.00004583
 aa0020        -0.00000006     -0.01430248      0.00000000     -0.06619790     -0.00000000      0.00000000
 
 Energy:     -266.99789466   -266.99789466   -266.99789466   -266.78141135   -266.78141135   -266.78141135
 
 
 CI Coefficients of symmetry 1 (Singlet)
 =======================================
 
 202000         0.81438294     -0.00000005     -0.00000168     -0.00152860     -0.00004292      0.57382500
 022000        -0.40586714      0.00000003     -0.00000818      0.70576600      0.01970082      0.57382500
 2ab000         0.00000005      0.70527756      0.00000000      0.00000000      0.00000000      0.00000000
 2ba000        -0.00000005     -0.70527756     -0.00000000     -0.00000000     -0.00000000     -0.00000000
 ba2000        -0.00000147      0.00000000     -0.70527755     -0.00000895     -0.00000249     -0.00000000
 ab2000         0.00000147     -0.00000000      0.70527755      0.00000895      0.00000249      0.00000000
 a2b000         0.00000022     -0.00000000     -0.00000223     -0.01967940      0.70500294      0.00000000
 b2a000        -0.00000022      0.00000000      0.00000223      0.01967940     -0.70500294     -0.00000000
 220000        -0.40851580      0.00000003      0.00000986     -0.70423740     -0.01965790      0.57382501
 
 Energy:     -266.95372187   -266.95372187   -266.95372187   -266.95372187   -266.95372187   -266.88892791
 
 
 CI Coefficients of symmetry 1 (Quintet)
 =======================================
 
 aaa0a0         0.99656929      0.00000000     -0.00000000
 aaaa00        -0.00000000     -0.00306920      0.99656458
 aaa00a        -0.00000000      0.99656457      0.00306920
 0aaaa0        -0.05851511     -0.00000000     -0.00000000
 a0a0aa        -0.05851503      0.00000000      0.00000000
 0aaa0a         0.00000000     -0.05851483     -0.00018021
 a0aa0a         0.00000000      0.00018021     -0.05851475
 aa0aa0        -0.00000000     -0.00018021      0.05851466
 aa00aa        -0.00000000     -0.05851466     -0.00018021
 
 Energy:     -266.79116227   -266.79116227   -266.79116227
 


 **********************************************************************************************************************************
 DATASETS  * FILE   NREC   LENGTH (MB)   RECORD NAMES
              1      21       94.20       500      610      700      900      950      970     1000      129      960     1100   
                                          VAR    BASINP    GEOM    SYMINP    ZMAT    AOBASIS   BASIS     P2S    ABASIS      S 
                                         1400     1410     1420     1200     1210     1080     1700     1600     1650     1380   
                                           T        V       ECP      H0       H01     AOSYM    OPER      SMH    MOLCAS    JKOP   
                                         1700(1)
                                         OPER   

              2       5        3.11       700     1000      520     2100     2140   
                                         GEOM     BASIS   MCVARS     RHF     MCSCF   

 PROGRAMS   *        TOTAL     MULTI   RHF-SCF       INT
 CPU TIMES  *        21.89     10.31      0.90     10.34
 REAL TIME  *        25.52 SEC
 DISK USED  *        97.43 MB (local),        4.24 GB (total)
 SF USED    *       162.43 MB
 GA USED    *         0.00 MB       (max)       0.00 MB       (current)
 **********************************************************************************************************************************

 Energies and &lt;L**2&gt; values

         ENERGY     LL
    -266.9978947   2.0
    -266.9978947   2.0
    -266.9978947   2.0
    -266.7814113   2.0
    -266.7814113   2.0
    -266.7814113   2.0
    -266.9537219   6.0
    -266.9537219   6.0
    -266.9537219   6.0
    -266.9537219   6.0
    -266.9537219   6.0
    -266.8889279   0.0
    -266.7911623   2.0
    -266.7911623   2.0
    -266.7911623   2.0
                                                  


 PROGRAM * CI (Multireference internally contracted CI)     Authors: H.-J. Werner, P.J. Knowles, 1987


 Convergence thresholds:  THRVAR = 1.00D-08  THRDEN = 1.00D-06

 Number of optimized states: 6  Roots:    1   2   3   4   5   6
 Number of reference states: 6  Roots:    1   2   3   4   5   6

 Reference symmetry:                   1   Triplet 
 Number of electrons:                 24
 Maximum number of shells:             5
 Maximum number of spin couplings:    90

 Reference space:       75 conf      105 CSFs
 N elec internal:     8890 conf    31395 CSFs
 N-1 el internal:     7880 conf    46290 CSFs
 N-2 el internal:     4646 conf    49101 CSFs

 Number of electrons in valence space:                     24
 Maximum number of open shell orbitals in reference space:  4
 Maximum number of open shell orbitals in internal spaces: 10


 Number of closed-shell orbitals:  10 (   7   3 )
 Number of active  orbitals:        6 (   0   6 )
 Number of external orbitals:     265 ( 128 137 )

 Molecular orbitals read from record     2140.2  Type=MCSCF/NATURAL (state averaged)

 Valence orbitals related to previous ones by unitary transformation. Operators transformed.


 Number of p-space configurations:  30

 Reference wavefunction optimized for reference space (refopt=1)

 State     Reference Energy 
     1      -266.99789466
     2      -266.99789466
     3      -266.99789466
     4      -266.78141135
     5      -266.78141135
     6      -266.78141135

 Number of blocks in overlap matrix:   642   Smallest eigenvalue:  0.78D-05
 Number of N-2 electron functions:    1371
 Number of N-1 electron functions:   46290

 Number of internal configurations:                16989
 Number of singly external configurations:       6153108
 Number of doubly external configurations:      24071931
 Total number of contracted configurations:     30242028
 Total number of uncontracted configurations:  867073716

 Diagonal Coupling coefficients finished.               Storage:   8651505 words, CPU-Time:      2.32 seconds.
 Energy denominators for pairs finished in 1 passes.    Storage:   3636461 words, CPU-time:      7.16 seconds.

  ITER. STATE  ROOT     SQ.NORM     CORR.ENERGY   TOTAL ENERGY   ENERGY CHANGE       DEN1      VAR(S)    VAR(P)      TIME
    1     1     1     1.00000000     0.00000000  -266.99789466     0.00000000    -1.16039446  0.43D-01  0.13D+00    13.00
    1     2     2     1.00000000     0.00000000  -266.99789466     0.00000000    -1.16059929  0.44D-01  0.13D+00    13.00
    1     3     3     1.00000000     0.00000000  -266.99789466     0.00000000    -1.16043763  0.43D-01  0.13D+00    13.00
    1     4     4     1.00000000     0.00000000  -266.78141135     0.00000000    -1.11903662  0.50D-01  0.11D+00    13.00
    1     5     5     1.00000000     0.00000000  -266.78141135    -0.00000000    -1.11903657  0.50D-01  0.11D+00    13.00
    1     6     6     1.00000000     0.00000000  -266.78141135    -0.00000000    -1.11905431  0.50D-01  0.11D+00    13.00
    2     1     1     1.10980390    -0.93294626  -267.93084092    -0.93294626    -0.03003749  0.49D-02  0.18D-02   297.52
    2     2     2     1.10986566    -0.93289665  -267.93079131    -0.93289665    -0.03007321  0.49D-02  0.18D-02   297.52
    2     3     3     1.10997636    -0.93279089  -267.93068555    -0.93279089    -0.03018097  0.50D-02  0.18D-02   297.52
    2     4     4     1.10835321    -0.91449279  -267.69590414    -0.91449279    -0.02643151  0.45D-02  0.17D-02   297.52
    2     5     5     1.10835142    -0.91449230  -267.69590365    -0.91449230    -0.02643289  0.45D-02  0.17D-02   297.52
    2     6     6     1.10836344    -0.91449083  -267.69590217    -0.91449083    -0.02643214  0.45D-02  0.17D-02   297.52
    3     1     1     1.09390381    -0.96143817  -267.95933284    -0.02849192    -0.00044903  0.66D-04  0.35D-04   580.31
    3     2     2     1.09391551    -0.96143720  -267.95933186    -0.02854055    -0.00045038  0.66D-04  0.35D-04   580.31
    3     3     3     1.09390117    -0.96143660  -267.95933127    -0.02864572    -0.00045067  0.66D-04  0.35D-04   580.31
    3     4     4     1.09063845    -0.94006858  -267.72147993    -0.02557579    -0.00036516  0.52D-04  0.33D-04   580.31
    3     5     5     1.09063812    -0.94006794  -267.72147929    -0.02557564    -0.00036576  0.52D-04  0.33D-04   580.31
    3     6     6     1.09063810    -0.94006785  -267.72147920    -0.02557702    -0.00036585  0.52D-04  0.33D-04   580.31
    4     1     1     1.09318910    -0.96189707  -267.95979173    -0.00045889    -0.00001250  0.16D-05  0.12D-05   862.17
    4     2     2     1.09318997    -0.96189706  -267.95979173    -0.00045986    -0.00001250  0.16D-05  0.12D-05   862.17
    4     3     3     1.09319255    -0.96189701  -267.95979167    -0.00046040    -0.00001256  0.16D-05  0.12D-05   862.17
    4     4     4     1.08992966    -0.94045502  -267.72186637    -0.00038644    -0.00001192  0.26D-05  0.13D-05   862.17
    4     5     5     1.08992929    -0.94045495  -267.72186630    -0.00038701    -0.00001198  0.26D-05  0.13D-05   862.17
    4     6     6     1.08992932    -0.94045495  -267.72186629    -0.00038710    -0.00001198  0.26D-05  0.13D-05   862.17
    5     1     1     1.09321544    -0.96191030  -267.95980497    -0.00001324    -0.00000036  0.20D-07  0.52D-07  1145.68
    5     2     2     1.09321503    -0.96191030  -267.95980497    -0.00001324    -0.00000036  0.20D-07  0.52D-07  1145.68
    5     3     3     1.09321506    -0.96191030  -267.95980497    -0.00001330    -0.00000036  0.20D-07  0.52D-07  1145.68
    5     4     4     1.08995360    -0.94046834  -267.72187969    -0.00001332    -0.00000062  0.42D-07  0.11D-06  1145.68
    5     5     5     1.08995337    -0.94046834  -267.72187969    -0.00001339    -0.00000063  0.42D-07  0.11D-06  1145.68
    5     6     6     1.08995335    -0.94046834  -267.72187969    -0.00001339    -0.00000063  0.42D-07  0.12D-06  1145.68
    6     1     1     1.09321193    -0.96191069  -267.95980535    -0.00000039    -0.00000001  0.86D-09  0.21D-08  1429.69
    6     2     2     1.09321189    -0.96191069  -267.95980535    -0.00000039    -0.00000001  0.87D-09  0.21D-08  1429.69
    6     3     3     1.09321188    -0.96191069  -267.95980535    -0.00000039    -0.00000001  0.87D-09  0.21D-08  1429.69
    6     4     4     1.08996062    -0.94046906  -267.72188040    -0.00000071    -0.00000004  0.39D-08  0.53D-08  1429.69
    6     5     5     1.08996059    -0.94046906  -267.72188040    -0.00000072    -0.00000004  0.39D-08  0.54D-08  1429.69
    6     6     6     1.08996059    -0.94046906  -267.72188040    -0.00000072    -0.00000004  0.39D-08  0.54D-08  1429.69


 =====================================
 Analysis of CPU times by interactions
 =====================================

       I      S      P

 I   0.4%
 S   0.4%   5.6%
 P   0.4%  25.1%  29.5%

 Initialization:   0.7%
 Other:           38.0%

 Total CPU:     1429.7 seconds
 =====================================



 Wavefunction saved on  5302.2

 Reference coefficients greater than 0.0500000
 =============================================
 22222222222//000           0.9514013  -0.0864079  -0.0111368  -0.0353105  -0.0000013  -0.0006461
 2222222222/2/000           0.0206907   0.1054632   0.9493178  -0.0000012   0.0353165  -0.0000065
 2222222222//2000           0.0846301   0.9456035  -0.1068951   0.0006461  -0.0000065  -0.0353107
 2222222222///00\          -0.0007697  -0.0039230  -0.0353127  -0.0000328   0.9427129  -0.0001730
 2222222222///\00           0.0353901  -0.0032142  -0.0004143   0.9425551   0.0000359   0.0172456
 2222222222///0\0           0.0031481   0.0351746  -0.0039763  -0.0172456   0.0001724   0.9425551
 2222222222//\0/0          -0.0005714  -0.0063844   0.0007217  -0.0014143   0.0000141   0.0773004
 222222222202//00           0.0000309   0.0001576   0.0014191   0.0000024  -0.0699034   0.0000128
 2222222222/200/0          -0.0000309  -0.0001576  -0.0014189  -0.0000024   0.0699034  -0.0000128
 22222222222/00/0          -0.0014220   0.0001291   0.0000166  -0.0698917  -0.0000027  -0.0012788
 222222222220/00/           0.0014221  -0.0001292  -0.0000166   0.0698917   0.0000027   0.0012788
 22222222220/2/00           0.0001265   0.0014135  -0.0001598  -0.0012788   0.0000128   0.0698917
 2222222222/0200/          -0.0001265  -0.0014134   0.0001598   0.0012788  -0.0000128  -0.0698917
 2222222222/\/00/           0.0001210   0.0006167   0.0055508  -0.0000023   0.0669553  -0.0000123
 2222222222/\//00           0.0055629  -0.0005052  -0.0000651  -0.0669441  -0.0000026  -0.0012249
 2222222222/0/002          -0.0002493  -0.0012707  -0.0114382  -0.0000023   0.0657788  -0.0000121
 22222222220//200          -0.0114633   0.0010411   0.0001342  -0.0657679  -0.0000025  -0.0012033
 2222222222//0020          -0.0010197  -0.0113935   0.0012880   0.0012033  -0.0000120  -0.0657677
 22222222220///0\           0.0002137   0.0010890   0.0098026   0.0000019  -0.0543408   0.0000100
 2222222222//00/\           0.0002137   0.0010890   0.0098026   0.0000019  -0.0543406   0.0000100
 22222222220///\0          -0.0008739  -0.0097643   0.0011038   0.0009941  -0.0000099  -0.0543317

 Coefficients of fixed reference functions:
 ==========================================

 State      Coefficients
 1           0.951955    0.084679    0.020703   -0.002476    0.000605   -0.027836
 2          -0.086458    0.946154    0.105525   -0.027666    0.003086    0.002528
 3          -0.011143   -0.106957    0.949870    0.003127    0.027775    0.000326
 4           0.028735   -0.000526    0.000001   -0.017514   -0.000033    0.957203
 5           0.000001    0.000005   -0.028740    0.000175    0.957363    0.000037
 6           0.000526    0.028735    0.000005    0.957203   -0.000176    0.017514

 Coefficients of rotated reference functions:
 ============================================

 State      Coefficients
 1           0.956346    0.000000    0.000000    0.000370   -0.000008    0.000040
 2           0.000000    0.956346    0.000000   -0.000040   -0.000041    0.000368
 3           0.000000    0.000000    0.956346   -0.000004   -0.000370   -0.000042
 4           0.000370   -0.000040   -0.000004    0.957794   -0.000000   -0.000000
 5          -0.000008   -0.000041   -0.000370   -0.000000    0.957794   -0.000000
 6           0.000040    0.000368   -0.000042   -0.000000   -0.000000    0.957794


 RESULTS FOR STATE 1.1
 =====================

 Coefficient of reference function:   C(0) = 0.95195491 (fixed)   0.95637408 (relaxed)   0.95634644 (rotated)

 Energy contributions of configuration classes

 CLASS          SQ.NORM        ECORR1        ECORR2
 +++++++++++++++++++++++++++++++++++++++++++++++++++
 Internals    0.00015001   -0.00031501   -0.87141993
 Singles      0.01183549   -0.04521119   -0.05176552
 Pairs        0.08139043    0.03594577   -0.03872524
 Total        1.09337593   -0.00958043   -0.96191069
 +++++++++++++++++++++++++++++++++++++++++++++++++++


 Reference energy                    -266.99770477
 Nuclear energy                         0.00000000
 Kinetic energy                       103.71882110
 One electron energy                 -466.64411919
 Two electron energy                  198.68431384
 Virial quotient                       -2.58352151
 Correlation energy                    -0.96210059
 !MRCI STATE 1.1 Energy              -267.959805354299

 Properties without orbital relaxation:

 !MRCI STATE 1.1 Dipole moment          0.00000000     0.00000000     0.00000000
 Dipole moment /Debye                   0.00000000     0.00000000     0.00000000

 Cluster corrected energies          -268.04964239 (Davidson, fixed reference)
 Cluster corrected energies          -268.04958158 (Davidson, relaxed reference)
 Cluster corrected energies          -268.04964239 (Davidson, rotated reference)

 Cluster corrected energies          -268.04815640 (Pople, fixed reference)
 Cluster corrected energies          -268.04809176 (Pople, relaxed reference)
 Cluster corrected energies          -268.04815640 (Pople, rotated reference)



 RESULTS FOR STATE 2.1
 =====================

 Coefficient of reference function:   C(0) = 0.94615375 (fixed)   0.95637410 (relaxed)   0.95634646 (rotated)

 Energy contributions of configuration classes

 CLASS          SQ.NORM        ECORR1        ECORR2
 +++++++++++++++++++++++++++++++++++++++++++++++++++
 Internals    0.00015001   -0.00031501   -0.83555815
 Singles      0.01183547   -0.04521120   -0.05176551
 Pairs        0.08139040   -0.00326466   -0.07458703
 Total        1.09337589   -0.04879087   -0.96191069
 +++++++++++++++++++++++++++++++++++++++++++++++++++


 Reference energy                    -266.99770477
 Nuclear energy                         0.00000000
 Kinetic energy                       103.71881746
 One electron energy                 -466.64411636
 Two electron energy                  198.68431101
 Virial quotient                       -2.58352160
 Correlation energy                    -0.96210059
 !MRCI STATE 2.1 Energy              -267.959805354066

 Properties without orbital relaxation:

 !MRCI STATE 2.1 Dipole moment          0.00000000     0.00000000     0.00000000
 Dipole moment /Debye                   0.00000000     0.00000000     0.00000000

 Cluster corrected energies          -268.04964235 (Davidson, fixed reference)
 Cluster corrected energies          -268.04958154 (Davidson, relaxed reference)
 Cluster corrected energies          -268.04964235 (Davidson, rotated reference)

 Cluster corrected energies          -268.04815636 (Pople, fixed reference)
 Cluster corrected energies          -268.04809172 (Pople, relaxed reference)
 Cluster corrected energies          -268.04815636 (Pople, rotated reference)



 RESULTS FOR STATE 3.1
 =====================

 Coefficient of reference function:   C(0) = 0.94987017 (fixed)   0.95637411 (relaxed)   0.95634646 (rotated)

 Energy contributions of configuration classes

 CLASS          SQ.NORM        ECORR1        ECORR2
 +++++++++++++++++++++++++++++++++++++++++++++++++++
 Internals    0.00015001   -0.00031501   -0.83815916
 Singles      0.01183549   -0.04521121   -0.05176553
 Pairs        0.08139037   -0.00042077   -0.07198600
 Total        1.09337588   -0.04594699   -0.96191069
 +++++++++++++++++++++++++++++++++++++++++++++++++++


 Reference energy                    -266.99770477
 Nuclear energy                         0.00000000
 Kinetic energy                       103.71881673
 One electron energy                 -466.64411676
 Two electron energy                  198.68431141
 Virial quotient                       -2.58352162
 Correlation energy                    -0.96210059
 !MRCI STATE 3.1 Energy              -267.959805354023

 Properties without orbital relaxation:

 !MRCI STATE 3.1 Dipole moment          0.00000000     0.00000000     0.00000000
 Dipole moment /Debye                   0.00000000     0.00000000     0.00000000

 Cluster corrected energies          -268.04964234 (Davidson, fixed reference)
 Cluster corrected energies          -268.04958153 (Davidson, relaxed reference)
 Cluster corrected energies          -268.04964234 (Davidson, rotated reference)

 Cluster corrected energies          -268.04815635 (Pople, fixed reference)
 Cluster corrected energies          -268.04809171 (Pople, relaxed reference)
 Cluster corrected energies          -268.04815635 (Pople, rotated reference)



 RESULTS FOR STATE 4.1
 =====================

 Maximum overlap with reference state  6

 Coefficient of reference function:   C(0) = 0.95720263 (fixed)   0.95779964 (relaxed)   0.95779404 (rotated)

 Energy contributions of configuration classes

 CLASS          SQ.NORM        ECORR1        ECORR2
 +++++++++++++++++++++++++++++++++++++++++++++++++++
 Internals    0.00010346   -0.00034123   -0.00081309
 Singles      0.01656247   -0.05744171   -0.06698872
 Pairs        0.07340746   -0.88223831   -0.87266724
 Total        1.09007339   -0.94002125   -0.94046906
 +++++++++++++++++++++++++++++++++++++++++++++++++++


 Reference energy                    -266.78160124
 Nuclear energy                         0.00000000
 Kinetic energy                       103.37730756
 One electron energy                 -461.38270480
 Two electron energy                  193.66082440
 Virial quotient                       -2.58975482
 Correlation energy                    -0.94027916
 !MRCI STATE 4.1 Energy              -267.721880404495

 Properties without orbital relaxation:

 !MRCI STATE 4.1 Dipole moment          0.00000000     0.00000000     0.00000000
 Dipole moment /Debye                   0.00000000     0.00000000     0.00000000

 Cluster corrected energies          -267.80657454 (Davidson, fixed reference)
 Cluster corrected energies          -267.80656256 (Davidson, relaxed reference)
 Cluster corrected energies          -267.80657454 (Davidson, rotated reference)

 Cluster corrected energies          -267.80493589 (Pople, fixed reference)
 Cluster corrected energies          -267.80492323 (Pople, relaxed reference)
 Cluster corrected energies          -267.80493589 (Pople, rotated reference)



 RESULTS FOR STATE 5.1
 =====================

 Coefficient of reference function:   C(0) = 0.95736283 (fixed)   0.95779965 (relaxed)   0.95779406 (rotated)

 Energy contributions of configuration classes

 CLASS          SQ.NORM        ECORR1        ECORR2
 +++++++++++++++++++++++++++++++++++++++++++++++++++
 Internals    0.00010346   -0.00034123   -0.81012075
 Singles      0.01656246   -0.05744166   -0.06698870
 Pairs        0.07340744   -0.00003364   -0.06335960
 Total        1.09007336   -0.05781653   -0.94046906
 +++++++++++++++++++++++++++++++++++++++++++++++++++


 Reference energy                    -266.78160124
 Nuclear energy                         0.00000000
 Kinetic energy                       103.37730458
 One electron energy                 -461.38270442
 Two electron energy                  193.66082401
 Virial quotient                       -2.58975489
 Correlation energy                    -0.94027916
 !MRCI STATE 5.1 Energy              -267.721880404028

 Properties without orbital relaxation:

 !MRCI STATE 5.1 Dipole moment          0.00000000     0.00000000     0.00000000
 Dipole moment /Debye                   0.00000000     0.00000000     0.00000000

 Cluster corrected energies          -267.80657450 (Davidson, fixed reference)
 Cluster corrected energies          -267.80656253 (Davidson, relaxed reference)
 Cluster corrected energies          -267.80657450 (Davidson, rotated reference)

 Cluster corrected energies          -267.80493585 (Pople, fixed reference)
 Cluster corrected energies          -267.80492320 (Pople, relaxed reference)
 Cluster corrected energies          -267.80493585 (Pople, rotated reference)



 RESULTS FOR STATE 6.1
 =====================

 Maximum overlap with reference state  4

 Coefficient of reference function:   C(0) = 0.95720263 (fixed)   0.95779965 (relaxed)   0.95779406 (rotated)

 Energy contributions of configuration classes

 CLASS          SQ.NORM        ECORR1        ECORR2
 +++++++++++++++++++++++++++++++++++++++++++++++++++
 Internals    0.00010346   -0.00034123   -0.79534342
 Singles      0.01656246   -0.05744166   -0.06698870
 Pairs        0.07340744   -0.01614203   -0.07813693
 Total        1.09007335   -0.07392491   -0.94046906
 +++++++++++++++++++++++++++++++++++++++++++++++++++


 Reference energy                    -266.78160124
 Nuclear energy                         0.00000000
 Kinetic energy                       103.37730377
 One electron energy                 -461.38270374
 Two electron energy                  193.66082334
 Virial quotient                       -2.58975491
 Correlation energy                    -0.94027916
 !MRCI STATE 6.1 Energy              -267.721880404009

 Properties without orbital relaxation:

 !MRCI STATE 6.1 Dipole moment          0.00000000     0.00000000     0.00000000
 Dipole moment /Debye                   0.00000000     0.00000000     0.00000000

 Cluster corrected energies          -267.80657450 (Davidson, fixed reference)
 Cluster corrected energies          -267.80656253 (Davidson, relaxed reference)
 Cluster corrected energies          -267.80657450 (Davidson, rotated reference)

 Cluster corrected energies          -267.80493585 (Pople, fixed reference)
 Cluster corrected energies          -267.80492320 (Pople, relaxed reference)
 Cluster corrected energies          -267.80493585 (Pople, rotated reference)



 **********************************************************************************************************************************
 DATASETS  * FILE   NREC   LENGTH (MB)   RECORD NAMES
              1      21       94.20       500      610      700      900      950      970     1000      129      960     1100   
                                          VAR    BASINP    GEOM    SYMINP    ZMAT    AOBASIS   BASIS     P2S    ABASIS      S 
                                         1400     1410     1420     1200     1210     1080     1700     1600     1650     1380   
                                           T        V       ECP      H0       H01     AOSYM    OPER      SMH    MOLCAS    JKOP   
                                         1700(1)
                                         OPER   

              2       6     1395.98       700     1000      520     2100     2140     5302   
                                         GEOM     BASIS   MCVARS     RHF     MCSCF    MRCI   

 PROGRAMS   *        TOTAL        CI     MULTI   RHF-SCF       INT
 CPU TIMES  *      1541.69   1519.79     10.31      0.90     10.34
 REAL TIME  *      1633.84 SEC
 DISK USED  *         1.46 GB (local),       42.33 GB (total)
 SF USED    *        13.46 GB
 GA USED    *         0.00 MB       (max)       0.00 MB       (current)
 **********************************************************************************************************************************
 SETTING HLSDIAG(1)     =      -268.04964239  AU                              
 SETTING HLSDIAG(2)     =      -268.04964235  AU                              
 SETTING HLSDIAG(3)     =      -268.04964234  AU                              
 SETTING HLSDIAG(4)     =      -267.80657454  AU                              
 SETTING HLSDIAG(5)     =      -267.80657450  AU                              
 SETTING HLSDIAG(6)     =      -267.80657450  AU                              


 PROGRAM * CI (Multireference internally contracted CI)     Authors: H.-J. Werner, P.J. Knowles, 1987


 Convergence thresholds:  THRVAR = 1.00D-08  THRDEN = 1.00D-06

 Number of optimized states: 6  Roots:    1   2   3   4   5   6
 Number of reference states: 6  Roots:    1   2   3   4   5   6

 Reference symmetry:                   1   Singlet 
 Number of electrons:                 24
 Maximum number of shells:             6
 Maximum number of spin couplings:    42

 Reference space:       90 conf      105 CSFs
 N elec internal:     9105 conf    20335 CSFs
 N-1 el internal:     7880 conf    26950 CSFs
 N-2 el internal:     5471 conf    28036 CSFs

 Number of electrons in valence space:                     24
 Maximum number of open shell orbitals in reference space:  4
 Maximum number of open shell orbitals in internal spaces: 10


 Number of closed-shell orbitals:  10 (   7   3 )
 Number of active  orbitals:        6 (   0   6 )
 Number of external orbitals:     265 ( 128 137 )

 Molecular orbitals read from record     2140.2  Type=MCSCF/NATURAL (state averaged)

 Coulomb and exchange operators available. No transformation done.


 Number of p-space configurations:  30

 Reference wavefunction optimized for reference space (refopt=1)

 State     Reference Energy 
     1      -266.95372187
     2      -266.95372187
     3      -266.95372187
     4      -266.95372187
     5      -266.95372187
     6      -266.88892791

 ?WARNING: SMALL EIGENVALUE OF PAIR OVERLAP MATRIX:  0.2021D-06

 ?WARNING: SMALL EIGENVALUE OF PAIR OVERLAP MATRIX:  0.2220D-06

 ?WARNING: SMALL EIGENVALUE OF PAIR OVERLAP MATRIX:  0.2019D-06

 ?WARNING: SMALL EIGENVALUE OF PAIR OVERLAP MATRIX:  0.2021D-06

 ?WARNING: SMALL EIGENVALUE OF PAIR OVERLAP MATRIX:  0.2220D-06

 ?WARNING: SMALL EIGENVALUE OF PAIR OVERLAP MATRIX:  0.2019D-06

 ?WARNING: SMALL EIGENVALUE OF PAIR OVERLAP MATRIX:  0.2021D-06

 ?WARNING: SMALL EIGENVALUE OF PAIR OVERLAP MATRIX:  0.2220D-06

 ?WARNING: SMALL EIGENVALUE OF PAIR OVERLAP MATRIX:  0.2019D-06

 ?WARNING: SMALL EIGENVALUE OF PAIR OVERLAP MATRIX:  0.2021D-06

 ?WARNING: SMALL EIGENVALUE OF PAIR OVERLAP MATRIX:  0.2220D-06

 ?WARNING: SMALL EIGENVALUE OF PAIR OVERLAP MATRIX:  0.2019D-06

 ?WARNING: SMALL EIGENVALUE OF PAIR OVERLAP MATRIX:  0.2021D-06

 ?WARNING: SMALL EIGENVALUE OF PAIR OVERLAP MATRIX:  0.2220D-06

 ?WARNING: SMALL EIGENVALUE OF PAIR OVERLAP MATRIX:  0.2019D-06

 ?WARNING: SMALL EIGENVALUE OF PAIR OVERLAP MATRIX:  0.2021D-06

 ?WARNING: SMALL EIGENVALUE OF PAIR OVERLAP MATRIX:  0.2220D-06

 ?WARNING: SMALL EIGENVALUE OF PAIR OVERLAP MATRIX:  0.2019D-06

 ?WARNING: SMALL EIGENVALUE OF PAIR OVERLAP MATRIX:  0.2021D-06

 ?WARNING: SMALL EIGENVALUE OF PAIR OVERLAP MATRIX:  0.2220D-06

 ?WARNING: SMALL EIGENVALUE OF PAIR OVERLAP MATRIX:  0.2019D-06

 ?WARNING: SMALL EIGENVALUE OF PAIR OVERLAP MATRIX:  0.2021D-06

 ?WARNING: SMALL EIGENVALUE OF PAIR OVERLAP MATRIX:  0.2220D-06

 ?WARNING: SMALL EIGENVALUE OF PAIR OVERLAP MATRIX:  0.2019D-06

 ?WARNING: SMALL EIGENVALUE OF PAIR OVERLAP MATRIX:  0.2021D-06

 ?WARNING: SMALL EIGENVALUE OF PAIR OVERLAP MATRIX:  0.2220D-06

 ?WARNING: SMALL EIGENVALUE OF PAIR OVERLAP MATRIX:  0.2019D-06

 ?WARNING: SMALL EIGENVALUE OF PAIR OVERLAP MATRIX:  0.2021D-06

 ?WARNING: SMALL EIGENVALUE OF PAIR OVERLAP MATRIX:  0.2220D-06

 ?WARNING: SMALL EIGENVALUE OF PAIR OVERLAP MATRIX:  0.2019D-06

 ?WARNING: SMALL EIGENVALUE OF PAIR OVERLAP MATRIX:  0.2021D-06

 ?WARNING: SMALL EIGENVALUE OF PAIR OVERLAP MATRIX:  0.2220D-06

 ?WARNING: SMALL EIGENVALUE OF PAIR OVERLAP MATRIX:  0.2019D-06

 ?WARNING: SMALL EIGENVALUE OF PAIR OVERLAP MATRIX:  0.2021D-06

 ?WARNING: SMALL EIGENVALUE OF PAIR OVERLAP MATRIX:  0.2220D-06

 ?WARNING: SMALL EIGENVALUE OF PAIR OVERLAP MATRIX:  0.2019D-06

 ?WARNING: SMALL EIGENVALUE OF PAIR OVERLAP MATRIX:  0.2021D-06

 ?WARNING: SMALL EIGENVALUE OF PAIR OVERLAP MATRIX:  0.2220D-06

 ?WARNING: SMALL EIGENVALUE OF PAIR OVERLAP MATRIX:  0.2019D-06

 ?WARNING: SMALL EIGENVALUE OF PAIR OVERLAP MATRIX:  0.2021D-06

 ?WARNING: SMALL EIGENVALUE OF PAIR OVERLAP MATRIX:  0.2220D-06

 ?WARNING: SMALL EIGENVALUE OF PAIR OVERLAP MATRIX:  0.2019D-06

 ?WARNING: SMALL EIGENVALUE OF PAIR OVERLAP MATRIX:  0.2021D-06

 ?WARNING: SMALL EIGENVALUE OF PAIR OVERLAP MATRIX:  0.2220D-06

 ?WARNING: SMALL EIGENVALUE OF PAIR OVERLAP MATRIX:  0.2019D-06

 ?WARNING: SMALL EIGENVALUE OF PAIR OVERLAP MATRIX:  0.2021D-06

 ?WARNING: SMALL EIGENVALUE OF PAIR OVERLAP MATRIX:  0.2220D-06

 ?WARNING: SMALL EIGENVALUE OF PAIR OVERLAP MATRIX:  0.2019D-06

 ?WARNING: SMALL EIGENVALUE OF PAIR OVERLAP MATRIX:  0.2021D-06

 ?WARNING: SMALL EIGENVALUE OF PAIR OVERLAP MATRIX:  0.2220D-06

 ?WARNING: SMALL EIGENVALUE OF PAIR OVERLAP MATRIX:  0.2019D-06

 ?WARNING: SMALL EIGENVALUE OF PAIR OVERLAP MATRIX:  0.2021D-06

 ?WARNING: SMALL EIGENVALUE OF PAIR OVERLAP MATRIX:  0.2220D-06

 ?WARNING: SMALL EIGENVALUE OF PAIR OVERLAP MATRIX:  0.2019D-06

 ?WARNING: SMALL EIGENVALUE OF PAIR OVERLAP MATRIX:  0.2021D-06

 ?WARNING: SMALL EIGENVALUE OF PAIR OVERLAP MATRIX:  0.2220D-06

 ?WARNING: SMALL EIGENVALUE OF PAIR OVERLAP MATRIX:  0.2019D-06

 ?WARNING: SMALL EIGENVALUE OF PAIR OVERLAP MATRIX:  0.2021D-06

 ?WARNING: SMALL EIGENVALUE OF PAIR OVERLAP MATRIX:  0.2220D-06

 ?WARNING: SMALL EIGENVALUE OF PAIR OVERLAP MATRIX:  0.2019D-06

 Number of blocks in overlap matrix:   685   Smallest eigenvalue:  0.20D-06
 Number of N-2 electron functions:    1216
 Number of N-1 electron functions:   26950

 Number of internal configurations:                11221
 Number of singly external configurations:       3583664
 Number of doubly external configurations:      21355120
 Total number of contracted configurations:     24950005
 Total number of uncontracted configurations:  495476254

 Diagonal Coupling coefficients finished.               Storage:   6797469 words, CPU-Time:      1.36 seconds.
 Energy denominators for pairs finished in 1 passes.    Storage:   3484737 words, CPU-time:      6.01 seconds.

  ITER. STATE  ROOT     SQ.NORM     CORR.ENERGY   TOTAL ENERGY   ENERGY CHANGE       DEN1      VAR(S)    VAR(P)      TIME
    1     1     1     1.00000000     0.00000000  -266.95372187     0.00000000    -1.16967167  0.48D-01  0.13D+00     9.95
    1     2     2     1.00000000     0.00000000  -266.95372187     0.00000000    -1.17184488  0.48D-01  0.13D+00     9.95
    1     3     3     1.00000000     0.00000000  -266.95372187    -0.00000000    -1.17187885  0.48D-01  0.13D+00     9.95
    1     4     4     1.00000000     0.00000000  -266.95372187     0.00000000    -1.17189586  0.48D-01  0.13D+00     9.95
    1     5     5     1.00000000     0.00000000  -266.95372187     0.00000000    -1.17101773  0.48D-01  0.13D+00     9.95
    1     6     6     1.00000000     0.00000000  -266.88892791     0.00000000    -1.15830402  0.23D-01  0.14D+00     9.95
    2     1     1     1.11314211    -0.93953045  -267.89325232    -0.93953045    -0.03039053  0.49D-02  0.18D-02   212.68
    2     2     2     1.11316168    -0.93925093  -267.89297280    -0.93925093    -0.03074466  0.49D-02  0.19D-02   212.68
    2     3     3     1.11345183    -0.93907354  -267.89279541    -0.93907354    -0.03090137  0.49D-02  0.19D-02   212.68
    2     4     4     1.11352259    -0.93892140  -267.89264327    -0.93892140    -0.03108211  0.50D-02  0.19D-02   212.68
    2     5     5     1.11343850    -0.93886903  -267.89259090    -0.93886903    -0.03117652  0.51D-02  0.19D-02   212.68
    2     6     6     1.10473223    -0.94754502  -267.83647293    -0.94754502    -0.02926699  0.46D-02  0.20D-02   212.68
    3     1     1     1.09705570    -0.96812038  -267.92184225    -0.02858993    -0.00051393  0.79D-04  0.41D-04   416.16
    3     2     2     1.09705986    -0.96811673  -267.92183860    -0.02886579    -0.00051707  0.78D-04  0.42D-04   416.16
    3     3     3     1.09705533    -0.96811084  -267.92183271    -0.02903729    -0.00052325  0.79D-04  0.43D-04   416.16
    3     4     4     1.09700976    -0.96810831  -267.92183018    -0.02918691    -0.00052633  0.81D-04  0.42D-04   416.16
    3     5     5     1.09705486    -0.96810463  -267.92182650    -0.02923560    -0.00053019  0.80D-04  0.43D-04   416.16
    3     6     6     1.09353708    -0.97496253  -267.86389044    -0.02741751    -0.00045956  0.41D-04  0.51D-04   416.16
    4     1     1     1.09603876    -0.96863865  -267.92236052    -0.00051827    -0.00001784  0.25D-05  0.18D-05   618.51
    4     2     2     1.09604577    -0.96863852  -267.92236039    -0.00052179    -0.00001796  0.25D-05  0.17D-05   618.51
    4     3     3     1.09603742    -0.96863837  -267.92236024    -0.00052753    -0.00001807  0.25D-05  0.18D-05   618.51
    4     4     4     1.09603786    -0.96863804  -267.92235991    -0.00052973    -0.00001837  0.26D-05  0.18D-05   618.51
    4     5     5     1.09603439    -0.96863776  -267.92235963    -0.00053313    -0.00001861  0.26D-05  0.18D-05   618.51
    4     6     6     1.09316599    -0.97542180  -267.86434971    -0.00045928    -0.00001555  0.22D-05  0.17D-05   618.51
    5     1     1     1.09598263    -0.96865757  -267.92237944    -0.00001892    -0.00000057  0.41D-07  0.76D-07   821.88
    5     2     2     1.09598031    -0.96865756  -267.92237943    -0.00001904    -0.00000057  0.40D-07  0.79D-07   821.88
    5     3     3     1.09597980    -0.96865754  -267.92237941    -0.00001917    -0.00000058  0.41D-07  0.82D-07   821.88
    5     4     4     1.09597960    -0.96865753  -267.92237940    -0.00001949    -0.00000060  0.42D-07  0.84D-07   821.88
    5     5     5     1.09597898    -0.96865753  -267.92237940    -0.00001977    -0.00000060  0.42D-07  0.83D-07   821.88
    5     6     6     1.09328940    -0.97543849  -267.86436640    -0.00001668    -0.00000054  0.33D-07  0.86D-07   821.88
    6     1     1     1.09596447    -0.96865818  -267.92238005    -0.00000060    -0.00000002  0.11D-08  0.31D-08  1025.64
    6     2     2     1.09596384    -0.96865817  -267.92238004    -0.00000061    -0.00000002  0.11D-08  0.32D-08  1025.64
    6     3     3     1.09596354    -0.96865817  -267.92238004    -0.00000063    -0.00000002  0.12D-08  0.35D-08  1025.64
    6     4     4     1.09596390    -0.96865816  -267.92238003    -0.00000063    -0.00000002  0.11D-08  0.33D-08  1025.64
    6     5     5     1.09596356    -0.96865816  -267.92238003    -0.00000064    -0.00000002  0.11D-08  0.34D-08  1025.64
    6     6     6     1.09329565    -0.97543909  -267.86436700    -0.00000060    -0.00000003  0.17D-08  0.45D-08  1025.64


 =====================================
 Analysis of CPU times by interactions
 =====================================

       I      S      P

 I   0.4%
 S   0.4%   4.4%
 P   0.5%  20.2%  28.0%

 Initialization:   0.7%
 Other:           45.4%

 Total CPU:     1025.6 seconds
 =====================================



 Wavefunction saved on  5102.2

 Reference coefficients greater than 0.0500000
 =============================================
 2222222222/2\000          -0.0002991  -0.0009797   0.0028369  -0.0000343   0.9533290  -0.0000000
 2222222222/\2000          -0.0012610   0.9515528   0.0582156  -0.0009669   0.0008042   0.0000000
 22222222222/\000          -0.0003581  -0.0582134   0.9515503   0.0000261  -0.0028915   0.0000000
 2222222222202000           0.7783899   0.0010073   0.0003554  -0.0021806   0.0002441   0.5481928
 2222222222220000          -0.3873072   0.0001823  -0.0001534   0.6751962  -0.0000966   0.5481937
 2222222222022000          -0.3910818  -0.0011896  -0.0002019  -0.6730152  -0.0001476   0.5481931

  Internal coefficients greater than 0.0500000
 =============================================
 2222220222222000           0.0000000  -0.0000000   0.0000000  -0.0000002   0.0000000  -0.0678141

 Coefficients of fixed reference functions:
 ==========================================

 State      Coefficients
 1           0.955033   -0.000359   -0.001263   -0.000300   -0.004048    0.000000
 2           0.001235   -0.058318    0.953259   -0.000981   -0.000974    0.000000
 3           0.000436    0.953256    0.058320    0.002842   -0.000035    0.000000
 4          -0.004050    0.000026   -0.000969   -0.000034   -0.955034    0.000000
 5           0.000299   -0.002897    0.000806    0.955038   -0.000037    0.000000
 6          -0.000000    0.000000    0.000000   -0.000000   -0.000000    0.953820

 Coefficients of rotated reference functions:
 ============================================

 State      Coefficients
 1           0.955042   -0.000000   -0.000000   -0.000000   -0.000000   -0.000000
 2          -0.000000    0.955043   -0.000000   -0.000000   -0.000000    0.000000
 3          -0.000000   -0.000000    0.955043   -0.000000   -0.000000    0.000000
 4          -0.000000   -0.000000   -0.000000    0.955043   -0.000000    0.000000
 5          -0.000000   -0.000000   -0.000000   -0.000000    0.955043   -0.000000
 6          -0.000000    0.000000    0.000000    0.000000   -0.000000    0.953820


 RESULTS FOR STATE 1.1
 =====================

 Coefficient of reference function:   C(0) = 0.95503286 (fixed)   0.95510837 (relaxed)   0.95504239 (rotated)

 Energy contributions of configuration classes

 CLASS          SQ.NORM        ECORR1        ECORR2
 +++++++++++++++++++++++++++++++++++++++++++++++++++
 Internals    0.00036441   -0.00074809   -0.83843620
 Singles      0.01387588   -0.04977959   -0.05766640
 Pairs        0.08212355   -0.00000044   -0.07255558
 Total        1.09636385   -0.05052812   -0.96865818
 +++++++++++++++++++++++++++++++++++++++++++++++++++


 Reference energy                    -266.95372187
 Nuclear energy                         0.00000000
 Kinetic energy                       103.69485249
 One electron energy                 -466.49973016
 Two electron energy                  198.57735012
 Virial quotient                       -2.58375776
 Correlation energy                    -0.96865818
 !MRCI STATE 1.1 Energy              -267.922380046991

 Properties without orbital relaxation:

 !MRCI STATE 1.1 Dipole moment          0.00000000     0.00000000     0.00000000
 Dipole moment /Debye                   0.00000000     0.00000000     0.00000000

 Cluster corrected energies          -268.01572367 (Davidson, fixed reference)
 Cluster corrected energies          -268.01557695 (Davidson, relaxed reference)
 Cluster corrected energies          -268.01572367 (Davidson, rotated reference)

 Cluster corrected energies          -268.01533824 (Pople, fixed reference)
 Cluster corrected energies          -268.01517965 (Pople, relaxed reference)
 Cluster corrected energies          -268.01533824 (Pople, rotated reference)



 RESULTS FOR STATE 2.1
 =====================

 Maximum overlap with reference state  3

 Coefficient of reference function:   C(0) = 0.95325866 (fixed)   0.95510864 (relaxed)   0.95504266 (rotated)

 Energy contributions of configuration classes

 CLASS          SQ.NORM        ECORR1        ECORR2
 +++++++++++++++++++++++++++++++++++++++++++++++++++
 Internals    0.00036442   -0.00074809   -0.83843679
 Singles      0.01387594   -0.04977991   -0.05766649
 Pairs        0.08212287   -0.00000000   -0.07255489
 Total        1.09636323   -0.05052800   -0.96865817
 +++++++++++++++++++++++++++++++++++++++++++++++++++


 Reference energy                    -266.95372187
 Nuclear energy                         0.00000000
 Kinetic energy                       103.69481803
 One electron energy                 -466.49971114
 Two electron energy                  198.57733110
 Virial quotient                       -2.58375862
 Correlation energy                    -0.96865817
 !MRCI STATE 2.1 Energy              -267.922380039854

 Properties without orbital relaxation:

 !MRCI STATE 2.1 Dipole moment          0.00000000     0.00000000     0.00000000
 Dipole moment /Debye                   0.00000000     0.00000000     0.00000000

 Cluster corrected energies          -268.01572307 (Davidson, fixed reference)
 Cluster corrected energies          -268.01557633 (Davidson, relaxed reference)
 Cluster corrected energies          -268.01572307 (Davidson, rotated reference)

 Cluster corrected energies          -268.01533759 (Pople, fixed reference)
 Cluster corrected energies          -268.01517898 (Pople, relaxed reference)
 Cluster corrected energies          -268.01533759 (Pople, rotated reference)



 RESULTS FOR STATE 3.1
 =====================

 Maximum overlap with reference state  2

 Coefficient of reference function:   C(0) = 0.95325612 (fixed)   0.95510877 (relaxed)   0.95504278 (rotated)

 Energy contributions of configuration classes

 CLASS          SQ.NORM        ECORR1        ECORR2
 +++++++++++++++++++++++++++++++++++++++++++++++++++
 Internals    0.00036442   -0.00074809   -0.83843720
 Singles      0.01387588   -0.04977970   -0.05766637
 Pairs        0.08212263   -0.00000000   -0.07255459
 Total        1.09636293   -0.05052779   -0.96865817
 +++++++++++++++++++++++++++++++++++++++++++++++++++


 Reference energy                    -266.95372187
 Nuclear energy                         0.00000000
 Kinetic energy                       103.69482600
 One electron energy                 -466.49973378
 Two electron energy                  198.57735374
 Virial quotient                       -2.58375842
 Correlation energy                    -0.96865817
 !MRCI STATE 3.1 Energy              -267.922380039443

 Properties without orbital relaxation:

 !MRCI STATE 3.1 Dipole moment          0.00000000     0.00000000     0.00000000
 Dipole moment /Debye                   0.00000000     0.00000000     0.00000000

[...]

    1    1.1  1.0  1.0  23.080%  22.925%   0.343%   0.101%   0.133%  24.793%  24.977%   0.008%   0.125%   0.005%
    2    2.1  1.0  1.0   0.174%   0.013%  18.278%  12.833%  22.908%   0.205%   0.008%  24.985%  14.953%   0.539%
    3    3.1  1.0  1.0   0.009%   0.562%   0.854%  29.411%  23.432%   0.000%   0.294%  24.702%  15.074%   2.285%
    4    4.1  1.0  1.0   0.001%   0.001%   0.000%   0.000%   0.000%   0.001%   0.001%   0.000%   0.000%   0.000%
    5    5.1  1.0  1.0   0.000%   0.000%   0.000%   0.001%   0.001%   0.000%   0.000%   0.001%   0.004%   0.000%
    6    6.1  1.0  1.0   0.000%   0.000%   0.001%   0.000%   0.001%   0.000%   0.000%   0.001%   0.004%   0.000%
    7    1.1  1.0  0.0   0.179%   1.434%  53.150%   7.073%   0.058%   0.399%   0.017%   0.000%  29.901%   1.259%
    8    2.1  1.0  0.0   1.779%  42.737%   0.869%   1.235%   0.023%  49.310%   0.266%   0.002%   0.247%   0.010%
    9    3.1  1.0  0.0  44.549%   1.864%   0.065%   0.036%   0.006%   0.268%  49.132%   0.580%   0.004%   0.000%
   10    4.1  1.0  0.0   0.000%   0.000%   0.002%   0.000%   0.000%   0.000%   0.000%   0.000%   0.007%   0.000%
   11    5.1  1.0  0.0   0.002%   0.000%   0.000%   0.000%   0.000%   0.000%   0.002%   0.000%   0.000%   0.000%
   12    6.1  1.0  0.0   0.000%   0.002%   0.000%   0.000%   0.000%   0.002%   0.000%   0.000%   0.000%   0.000%
   13    1.1  1.0 -1.0  23.080%  22.925%   0.343%   0.101%   0.133%  24.793%  24.977%   0.008%   0.125%   0.005%
   14    2.1  1.0 -1.0   0.174%   0.013%  18.278%  12.833%  22.908%   0.205%   0.008%  24.985%  14.953%   0.539%
   15    3.1  1.0 -1.0   0.009%   0.562%   0.854%  29.411%  23.432%   0.000%   0.294%  24.702%  15.074%   2.285%
   16    4.1  1.0 -1.0   0.001%   0.001%   0.000%   0.000%   0.000%   0.001%   0.001%   0.000%   0.000%   0.000%
   17    5.1  1.0 -1.0   0.000%   0.000%   0.000%   0.001%   0.001%   0.000%   0.000%   0.001%   0.004%   0.000%
   18    6.1  1.0 -1.0   0.000%   0.000%   0.001%   0.000%   0.001%   0.000%   0.000%   0.001%   0.004%   0.000%
   19    1.1  0.0  0.0   0.000%   0.126%   0.180%   6.624%   0.003%   0.000%   0.000%   0.000%   0.000%  93.007%
   20    2.1  0.0  0.0   6.831%   0.055%   0.006%   0.002%   0.038%   0.000%   0.000%   0.000%   0.000%   0.000%
   21    3.1  0.0  0.0   0.038%   0.000%   0.007%   0.002%   6.885%   0.000%   0.000%   0.000%   0.000%   0.000%
   22    4.1  0.0  0.0   0.008%   0.001%   6.730%   0.188%   0.005%   0.000%   0.000%   0.000%   0.000%   0.061%
   23    5.1  0.0  0.0   0.055%   6.750%   0.009%   0.116%   0.001%   0.000%   0.000%   0.000%   0.000%   0.000%
   24    6.1  0.0  0.0   0.000%   0.000%   0.000%   0.000%   0.000%   0.000%   0.000%   0.000%   9.523%   0.000%
   25    1.1  2.0  2.0   0.000%   0.000%   0.001%   0.009%   0.010%   0.000%   0.000%   0.000%   0.000%   0.001%
   26    2.1  2.0  2.0   0.003%   0.003%   0.000%   0.000%   0.000%   0.003%   0.003%   0.000%   0.000%   0.000%
   27    3.1  2.0  2.0   0.003%   0.003%   0.000%   0.000%   0.000%   0.003%   0.003%   0.000%   0.000%   0.000%
   28    1.1  2.0  1.0   0.003%   0.003%   0.000%   0.000%   0.000%   0.003%   0.003%   0.000%   0.000%   0.000%
   29    2.1  2.0  1.0   0.000%   0.000%   0.010%   0.000%   0.003%   0.000%   0.000%   0.003%   0.000%   0.000%
   30    3.1  2.0  1.0   0.000%   0.000%   0.004%   0.006%   0.003%   0.000%   0.000%   0.003%   0.000%   0.001%
   31    1.1  2.0  0.0   0.000%   0.000%   0.000%   0.000%   0.000%   0.000%   0.000%   0.009%   0.000%   0.000%
   32    2.1  2.0  0.0   0.000%   0.015%   0.000%   0.000%   0.000%   0.002%   0.000%   0.000%   0.000%   0.000%
   33    3.1  2.0  0.0   0.016%   0.000%   0.000%   0.000%   0.000%   0.000%   0.002%   0.000%   0.000%   0.000%
   34    1.1  2.0 -1.0   0.003%   0.003%   0.000%   0.000%   0.000%   0.003%   0.003%   0.000%   0.000%   0.000%
   35    2.1  2.0 -1.0   0.000%   0.000%   0.010%   0.000%   0.003%   0.000%   0.000%   0.003%   0.000%   0.000%
   36    3.1  2.0 -1.0   0.000%   0.000%   0.004%   0.006%   0.003%   0.000%   0.000%   0.003%   0.000%   0.001%
   37    1.1  2.0 -2.0   0.000%   0.000%   0.001%   0.009%   0.010%   0.000%   0.000%   0.000%   0.000%   0.001%
   38    2.1  2.0 -2.0   0.003%   0.003%   0.000%   0.000%   0.000%   0.003%   0.003%   0.000%   0.000%   0.000%
   39    3.1  2.0 -2.0   0.003%   0.003%   0.000%   0.000%   0.000%   0.003%   0.003%   0.000%   0.000%   0.000%

   Nr   State  S   Sz      11       12       13       14       15       16       17       18       19       20

    1    1.1  1.0  1.0   0.014%   1.694%   1.718%   0.038%   0.013%   0.000%   0.005%   0.005%   0.000%   0.009%
    2    2.1  1.0  1.0   1.751%   0.038%   0.014%   1.694%   1.574%   0.005%   0.000%   0.000%   0.012%   0.000%
    3    3.1  1.0  1.0   0.024%   0.006%   0.000%   1.726%   1.587%   0.005%   0.000%   0.000%   0.003%   0.000%
    4    4.1  1.0  1.0   0.000%   0.000%   0.000%   0.000%   0.000%   0.000%   0.296%   0.298%   0.000%   0.549%
    5    5.1  1.0  1.0   0.000%   0.000%   0.000%   0.000%   0.000%   0.296%   0.000%   0.000%   0.178%   0.000%
    6    6.1  1.0  1.0   0.000%   0.000%   0.000%   0.000%   0.000%   0.306%   0.000%   0.000%   0.746%   0.000%
    7    1.1  1.0  0.0   3.321%   0.001%   0.027%   0.000%   3.149%   0.000%   0.000%   0.000%   0.006%   0.000%
    8    2.1  1.0  0.0   0.027%   0.043%   3.392%   0.000%   0.026%   0.000%   0.010%   0.000%   0.000%   0.018%
    9    3.1  1.0  0.0   0.000%   3.407%   0.044%   0.012%   0.000%   0.000%   0.000%   0.010%   0.000%   0.000%
   10    4.1  1.0  0.0   0.001%   0.000%   0.000%   0.000%   0.000%   0.000%   0.000%   0.000%   0.373%   0.000%
   11    5.1  1.0  0.0   0.000%   0.001%   0.000%   0.000%   0.000%   0.000%   0.000%   0.596%   0.000%   0.000%
   12    6.1  1.0  0.0   0.000%   0.000%   0.001%   0.000%   0.000%   0.000%   0.612%   0.000%   0.000%   1.115%
   13    1.1  1.0 -1.0   0.014%   1.694%   1.718%   0.038%   0.013%   0.000%   0.005%   0.005%   0.000%   0.009%
   14    2.1  1.0 -1.0   1.751%   0.038%   0.014%   1.694%   1.574%   0.005%   0.000%   0.000%   0.012%   0.000%
   15    3.1  1.0 -1.0   0.024%   0.006%   0.000%   1.726%   1.587%   0.005%   0.000%   0.000%   0.003%   0.000%
   16    4.1  1.0 -1.0   0.000%   0.000%   0.000%   0.000%   0.000%   0.000%   0.296%   0.298%   0.000%   0.549%
   17    5.1  1.0 -1.0   0.000%   0.000%   0.000%   0.000%   0.000%   0.296%   0.000%   0.000%   0.178%   0.000%
   18    6.1  1.0 -1.0   0.000%   0.000%   0.000%   0.000%   0.000%   0.306%   0.000%   0.000%   0.746%   0.000%
   19    1.1  0.0  0.0   0.061%   0.000%   0.000%   0.000%   0.000%   0.000%   0.000%   0.000%   0.000%   0.000%
   20    2.1  0.0  0.0   0.000%  93.067%   0.000%   0.001%   0.000%   0.000%   0.000%   0.000%   0.000%   0.000%
   21    3.1  0.0  0.0   0.000%   0.001%   0.000%  93.067%   0.000%   0.000%   0.000%   0.000%   0.000%   0.000%
   22    4.1  0.0  0.0  93.007%   0.000%   0.000%   0.000%   0.000%   0.000%   0.000%   0.000%   0.000%   0.000%
   23    5.1  0.0  0.0   0.000%   0.000%  93.068%   0.000%   0.000%   0.000%   0.000%   0.000%   0.000%   0.000%
   24    6.1  0.0  0.0   0.000%   0.000%   0.000%   0.000%  90.475%   0.000%   0.000%   0.000%   0.000%   0.000%
   25    1.1  2.0  2.0   0.000%   0.000%   0.000%   0.001%   0.000%   0.000%   0.000%   0.000%  24.251%   0.000%
   26    2.1  2.0  2.0   0.000%   0.000%   0.000%   0.000%   0.000%   0.000%  14.761%  14.818%   0.000%   8.204%
   27    3.1  2.0  2.0   0.000%   0.000%   0.000%   0.000%   0.000%   0.000%  14.761%  14.818%   0.000%   8.205%
   28    1.1  2.0  1.0   0.000%   0.000%   0.000%   0.000%   0.000%   0.000%  14.871%  14.819%   0.000%   8.086%
   29    2.1  2.0  1.0   0.001%   0.000%   0.000%   0.000%   0.000%  14.871%   0.000%   0.000%  24.618%   0.000%
   30    3.1  2.0  1.0   0.000%   0.000%   0.000%   0.000%   0.000%  14.761%   0.000%   0.000%   0.001%   0.000%
   31    1.1  2.0  0.0   0.000%   0.000%   0.000%   0.000%   0.000%  39.511%   0.000%   0.000%   0.000%   0.000%
   32    2.1  2.0  0.0   0.000%   0.000%   0.002%   0.000%   0.000%   0.000%   9.988%   0.000%   0.000%  48.756%
   33    3.1  2.0  0.0   0.000%   0.002%   0.000%   0.000%   0.000%   0.000%   0.000%   9.878%   0.000%   0.000%
   34    1.1  2.0 -1.0   0.000%   0.000%   0.000%   0.000%   0.000%   0.000%  14.871%  14.819%   0.000%   8.086%
   35    2.1  2.0 -1.0   0.001%   0.000%   0.000%   0.000%   0.000%  14.871%   0.000%   0.000%  24.618%   0.000%
   36    3.1  2.0 -1.0   0.000%   0.000%   0.000%   0.000%   0.000%  14.761%   0.000%   0.000%   0.001%   0.000%
   37    1.1  2.0 -2.0   0.000%   0.000%   0.000%   0.001%   0.000%   0.000%   0.000%   0.000%  24.251%   0.000%
   38    2.1  2.0 -2.0   0.000%   0.000%   0.000%   0.000%   0.000%   0.000%  14.761%  14.818%   0.000%   8.204%
   39    3.1  2.0 -2.0   0.000%   0.000%   0.000%   0.000%   0.000%   0.000%  14.761%  14.818%   0.000%   8.205%

   Nr   State  S   Sz      21       22       23       24       25       26       27       28       29       30

    1    1.1  1.0  1.0   0.000%   0.009%   0.000%   0.000%   0.000%   0.000%   0.000%   0.000%   0.000%   0.000%
    2    2.1  1.0  1.0   0.009%   0.000%   0.000%   0.000%   0.000%   0.000%   0.000%   0.000%   0.000%   0.000%
    3    3.1  1.0  1.0   0.009%   0.000%   0.009%   0.000%   0.000%   0.000%   0.000%   0.000%   0.000%   0.000%
    4    4.1  1.0  1.0   0.000%   0.548%   0.000%   0.000%   0.000%   0.000%   0.000%   0.000%   0.000%   0.000%
    5    5.1  1.0  1.0   0.549%   0.000%   0.552%   0.000%   0.000%   0.000%   0.000%   0.000%   0.000%   0.000%
    6    6.1  1.0  1.0   0.557%   0.000%   0.000%   0.000%   0.000%   0.000%   0.000%   0.000%   0.000%   0.000%
    7    1.1  1.0  0.0   0.000%   0.000%   0.019%   0.000%   0.000%   0.000%   0.000%   0.000%   0.000%   0.000%
    8    2.1  1.0  0.0   0.000%   0.000%   0.000%   0.000%   0.000%   0.000%   0.000%   0.000%   0.000%   0.000%
    9    3.1  1.0  0.0   0.000%   0.019%   0.000%   0.000%   0.000%   0.000%   0.000%   0.000%   0.000%   0.000%
   10    4.1  1.0  0.0   0.000%   0.000%   1.087%   0.000%   0.000%   0.000%   0.000%   0.000%   0.000%   0.000%
   11    5.1  1.0  0.0   0.000%   1.095%   0.000%   0.000%   0.000%   0.000%   0.000%   0.000%   0.000%   0.000%
   12    6.1  1.0  0.0   0.000%   0.000%   0.000%   0.000%   0.000%   0.000%   0.000%   0.000%   0.000%   0.000%
   13    1.1  1.0 -1.0   0.000%   0.009%   0.000%   0.000%   0.000%   0.000%   0.000%   0.000%   0.000%   0.000%
   14    2.1  1.0 -1.0   0.009%   0.000%   0.000%   0.000%   0.000%   0.000%   0.000%   0.000%   0.000%   0.000%
   15    3.1  1.0 -1.0   0.009%   0.000%   0.009%   0.000%   0.000%   0.000%   0.000%   0.000%   0.000%   0.000%
   16    4.1  1.0 -1.0   0.000%   0.548%   0.000%   0.000%   0.000%   0.000%   0.000%   0.000%   0.000%   0.000%
   17    5.1  1.0 -1.0   0.549%   0.000%   0.552%   0.000%   0.000%   0.000%   0.000%   0.000%   0.000%   0.000%
   18    6.1  1.0 -1.0   0.557%   0.000%   0.000%   0.000%   0.000%   0.000%   0.000%   0.000%   0.000%   0.000%
   19    1.1  0.0  0.0   0.000%   0.000%   0.000%   0.000%   0.000%   0.000%   0.000%   0.000%   0.000%   0.000%
   20    2.1  0.0  0.0   0.000%   0.000%   0.000%   0.000%   0.000%   0.000%   0.000%   0.000%   0.000%   0.000%
   21    3.1  0.0  0.0   0.000%   0.000%   0.000%   0.000%   0.000%   0.000%   0.000%   0.000%   0.000%   0.000%
   22    4.1  0.0  0.0   0.000%   0.000%   0.000%   0.000%   0.000%   0.000%   0.000%   0.000%   0.000%   0.000%
   23    5.1  0.0  0.0   0.000%   0.000%   0.000%   0.000%   0.000%   0.000%   0.000%   0.000%   0.000%   0.000%
   24    6.1  0.0  0.0   0.000%   0.000%   0.000%   0.000%   0.000%   0.000%   0.000%   0.000%   0.000%   0.000%
   25    1.1  2.0  2.0  32.582%   0.000%   8.331%   2.850%   0.000%   0.000%  16.668%  13.817%   0.000%   0.000%
   26    2.1  2.0  2.0   0.000%   8.147%   0.000%   0.000%   3.444%   4.608%   0.000%   0.000%  23.223%  22.059%
   27    3.1  2.0  2.0   0.000%   8.148%   0.000%   0.000%   0.503%   0.157%   0.000%   0.000%  26.163%  26.510%
   28    1.1  2.0  1.0   0.000%   8.148%   0.000%   0.000%  26.317%  25.849%   0.000%   0.000%   0.350%   0.817%
   29    2.1  2.0  1.0   8.087%   0.000%   7.965%  20.861%   0.000%   0.000%  16.666%   5.805%   0.000%   0.000%
   30    3.1  2.0  1.0   8.205%   0.000%  32.589%   1.419%   0.000%   0.000%  16.666%  25.248%   0.000%   0.000%
   31    1.1  2.0  0.0   0.000%   0.000%   0.000%  49.741%   0.000%   0.000%   0.000%  10.259%   0.000%   0.000%
   32    2.1  2.0  0.0   0.000%   0.000%   0.000%   0.000%  39.472%   0.000%   0.000%   0.000%   0.526%   0.000%
   33    3.1  2.0  0.0   0.000%  48.885%   0.000%   0.000%   0.000%  38.774%   0.000%   0.000%   0.000%   1.226%
   34    1.1  2.0 -1.0   0.000%   8.148%   0.000%   0.000%  26.317%  25.849%   0.000%   0.000%   0.350%   0.817%
   35    2.1  2.0 -1.0   8.087%   0.000%   7.965%  20.861%   0.000%   0.000%  16.666%   5.805%   0.000%   0.000%
   36    3.1  2.0 -1.0   8.205%   0.000%  32.589%   1.419%   0.000%   0.000%  16.666%  25.248%   0.000%   0.000%
   37    1.1  2.0 -2.0  32.582%   0.000%   8.331%   2.850%   0.000%   0.000%  16.668%  13.817%   0.000%   0.000%
   38    2.1  2.0 -2.0   0.000%   8.147%   0.000%   0.000%   3.444%   4.608%   0.000%   0.000%  23.223%  22.059%
   39    3.1  2.0 -2.0   0.000%   8.148%   0.000%   0.000%   0.503%   0.157%   0.000%   0.000%  26.163%  26.510%

   Nr   State  S   Sz      31       32       33       34       35       36       37       38       39

    1    1.1  1.0  1.0   0.000%   0.002%   0.002%   0.000%   0.000%   0.000%   0.000%   0.000%   0.000%
    2    2.1  1.0  1.0   0.003%   0.000%   0.000%   0.002%   0.000%   0.000%   0.000%   0.000%   0.000%
    3    3.1  1.0  1.0   0.003%   0.000%   0.000%   0.002%   0.000%   0.000%   0.000%   0.000%   0.000%
    4    4.1  1.0  1.0   0.005%  24.691%  26.665%   0.007%   0.000%  24.445%   0.009%  22.471%   0.011%
    5    5.1  1.0  1.0  16.939%   0.000%   0.000%  26.665%  24.813%   0.000%  22.487%   0.000%   7.514%
    6    6.1  1.0  1.0  16.083%   0.008%   0.009%  22.723%   0.005%   0.008%  26.394%   0.007%  33.144%
    7    1.1  1.0  0.0   0.006%   0.000%   0.000%   0.000%   0.001%   0.000%   0.000%   0.000%   0.000%
    8    2.1  1.0  0.0   0.000%   0.000%   0.004%   0.000%   0.000%   0.000%   0.000%   0.001%   0.000%
    9    3.1  1.0  0.0   0.000%   0.004%   0.000%   0.000%   0.000%   0.001%   0.000%   0.000%   0.000%
   10    4.1  1.0  0.0  33.914%   0.000%   0.015%   0.000%  48.152%   0.000%   0.000%   0.017%  16.431%
   11    5.1  1.0  0.0   0.000%  49.407%   0.000%   0.000%   0.000%  48.898%   0.000%   0.000%   0.000%
   12    6.1  1.0  0.0   0.011%   0.000%  45.428%   0.000%   0.016%   0.000%   0.000%  52.806%   0.005%
   13    1.1  1.0 -1.0   0.000%   0.002%   0.002%   0.000%   0.000%   0.000%   0.000%   0.000%   0.000%
   14    2.1  1.0 -1.0   0.003%   0.000%   0.000%   0.002%   0.000%   0.000%   0.000%   0.000%   0.000%
   15    3.1  1.0 -1.0   0.003%   0.000%   0.000%   0.002%   0.000%   0.000%   0.000%   0.000%   0.000%
   16    4.1  1.0 -1.0   0.005%  24.691%  26.665%   0.007%   0.000%  24.445%   0.009%  22.471%   0.011%
   17    5.1  1.0 -1.0  16.939%   0.000%   0.000%  26.665%  24.813%   0.000%  22.487%   0.000%   7.514%
   18    6.1  1.0 -1.0  16.083%   0.008%   0.009%  22.723%   0.005%   0.008%  26.394%   0.007%  33.144%
   19    1.1  0.0  0.0   0.000%   0.000%   0.000%   0.000%   0.000%   0.000%   0.000%   0.000%   0.000%
   20    2.1  0.0  0.0   0.000%   0.000%   0.000%   0.000%   0.000%   0.000%   0.000%   0.000%   0.000%
   21    3.1  0.0  0.0   0.000%   0.000%   0.000%   0.000%   0.000%   0.000%   0.000%   0.000%   0.000%
   22    4.1  0.0  0.0   0.000%   0.000%   0.000%   0.000%   0.000%   0.000%   0.000%   0.000%   0.000%
   23    5.1  0.0  0.0   0.000%   0.000%   0.000%   0.000%   0.000%   0.000%   0.000%   0.000%   0.000%
   24    6.1  0.0  0.0   0.002%   0.000%   0.000%   0.000%   0.000%   0.000%   0.000%   0.000%   0.000%
   25    1.1  2.0  2.0   0.000%   0.000%   0.000%   0.001%   0.191%   0.000%   0.738%   0.000%   0.548%
   26    2.1  2.0  2.0   0.000%   0.178%   0.193%   0.000%   0.000%   0.183%   0.000%   0.168%   0.000%
   27    3.1  2.0  2.0   0.000%   0.178%   0.193%   0.000%   0.000%   0.183%   0.000%   0.169%   0.000%
   28    1.1  2.0  1.0   0.000%   0.178%   0.167%   0.000%   0.000%   0.183%   0.000%   0.201%   0.000%
   29    2.1  2.0  1.0   0.000%   0.000%   0.000%   0.168%   0.175%   0.000%   0.202%   0.000%   0.565%
   30    3.1  2.0  1.0   0.000%   0.000%   0.000%   0.193%   0.732%   0.000%   0.169%   0.000%   0.000%
   31    1.1  2.0  0.0   0.000%   0.000%   0.000%   0.479%   0.000%   0.000%   0.001%   0.000%   0.000%
   32    2.1  2.0  0.0   0.000%   0.000%   0.096%   0.000%   0.000%   0.000%   0.000%   1.141%   0.000%
   33    3.1  2.0  0.0   0.000%   0.119%   0.000%   0.000%   0.000%   1.098%   0.000%   0.000%   0.000%
   34    1.1  2.0 -1.0   0.000%   0.178%   0.167%   0.000%   0.000%   0.183%   0.000%   0.201%   0.000%
   35    2.1  2.0 -1.0   0.000%   0.000%   0.000%   0.168%   0.175%   0.000%   0.202%   0.000%   0.565%
   36    3.1  2.0 -1.0   0.000%   0.000%   0.000%   0.193%   0.732%   0.000%   0.169%   0.000%   0.000%
   37    1.1  2.0 -2.0   0.000%   0.000%   0.000%   0.001%   0.191%   0.000%   0.738%   0.000%   0.548%
   38    2.1  2.0 -2.0   0.000%   0.178%   0.193%   0.000%   0.000%   0.183%   0.000%   0.168%   0.000%
   39    3.1  2.0 -2.0   0.000%   0.178%   0.193%   0.000%   0.000%   0.183%   0.000%   0.169%   0.000%


 Property matrices transformed in SO basis (not sym. adapted)
 ============================================================

 No matrix element <i|DMX|i> larger than 5E-7
 No matrix element <i|DMX|1> larger than 5E-7

 No matrix element <i|DMY|i> larger than 5E-7
 No matrix element <i|DMY|1> larger than 5E-7

 No matrix element <i|DMZ|i> larger than 5E-7
 No matrix element <i|DMZ|1> larger than 5E-7


 **********************************************************************************************************************************
 DATASETS  * FILE   NREC   LENGTH (MB)   RECORD NAMES
              1      21       94.20       500      610      700      900      950      970     1000      129      960     1100   
                                          VAR    BASINP    GEOM    SYMINP    ZMAT    AOBASIS   BASIS     P2S    ABASIS      S 
                                         1400     1410     1420     1200     1210     1080     1700     1600     1650     1380   
                                           T        V       ECP      H0       H01     AOSYM    OPER      SMH    MOLCAS    JKOP   
                                         1700(1)
                                         OPER   

              2       8     2879.85       700     1000      520     2100     2140     5302     5102     5502   
                                         GEOM     BASIS   MCVARS     RHF     MCSCF    MRCI     MRCI     MRCI   

 PROGRAMS   *        TOTAL        CI        CI        CI        CI     MULTI   RHF-SCF       INT
 CPU TIMES  *     19659.25  16783.41    249.94   1084.16   1519.79     10.31      0.90     10.34
 REAL TIME  *     20149.69 SEC
 DISK USED  *         2.90 GB (local),       82.90 GB (total)
 SF USED    *        13.46 GB
 GA USED    *         0.00 MB       (max)       0.00 MB       (current)
 **********************************************************************************************************************************

 CI/USERDEF energy=   -267.806423502253

              CI              CI              CI           MULTI         RHF-SCF
   -267.72922867   -267.86436700   -267.72188040   -266.79116227   -266.72073571
 **********************************************************************************************************************************
 Molpro calculation terminated with 1 warning(s)
