
 Working directory              : /scratch/irikura/molpro.ZyN2vyPneV/
 Global scratch directory       : /scratch/irikura/molpro.ZyN2vyPneV/
 Wavefunction directory         : /home/irikura/wfu/
 Main file repository           : /scratch/irikura/molpro.ZyN2vyPneV/

 id        : nistki

 Nodes     nprocs
 n1320.becn    3
 Distribution of processes:   nprocs(total)=    4   nprocs(compute)=    3   nprocs(helper)=    1
 GA implementation: MPI file
 GA implementation (serial work in mppx): MPI file

 Using customized tuning parameters: mindgm=1; mindgv=20; mindgc=4; mindgr=1; noblas=0; minvec=7
 default implementation of scratch files=sf  


 Variables initialized (1013), CPU time= 0.00 sec
 ***,Fe atom SOC with terms up to 20,000 cm-1
                                                                                 ! 5D, 5F, 3F, 5P, 3P, 3H (omitting 7D*)
                                                                                 ! Use +Dav energies in SO-CI
 memory,3000,M;
 
 gprint,orbitals,civector,basis;
 
 symmetry,xyz
 geometry={Fe}
 
 basis=cc-pwCVTZ-DK
 core
 
 set,dkho=101
 
                                                                                 ! initial orbitals
 {rhf;wf,sym=1, spin=4}
 
                                                                                 ! state-averaged casscf
 {multi
                                                                                 ! 15 quintets
     wf,sym=1,spin=4;state,15;
                                                                                 !  21 triplets
     wf,sym=1,spin=2;state,21;
     expec2,lxx,lyy,lzz;
  }
 table, energy, ll
 title, Energies and &lt;L**2&gt; values
 
 {ci;wf,sym=1,spin=4;state,15;save,5101.2}
 hlsdiag = energd4
 {ci;wf,sym=1,spin=2;state,21;option,nstati=24;save,5102.2}
 hlsdiag(16) = energd4
 
 table, hlsdiag
 
                                                                                 !compute and diagonalize SO matrix
 {ci;hlsmat,ls,5101.2,5102.2;print,vls=0,hls=0}
 
 Commands initialized (815), CPU time= 0.01 sec, 669 directives.
 Default parameters read. Elapsed time= 0.16 sec

 Checking input...
 Passed
1


                                         ***  PROGRAM SYSTEM MOLPRO  ***
                                       Copyright, TTI GmbH Stuttgart, 2015
                                    Version 2021.3 linked Nov 22 2021 23:03:20


 **********************************************************************************************************************************
 LABEL *   Fe atom SOC with terms up to 20,000 cm-1                                      
  64 bit mpp version                                                                     DATE: 23-Aug-22          TIME: 13:39:21  
 **********************************************************************************************************************************

 SHA1:             8b8f1fffdd8ed686b3bdbdb000c23abeeca3c440
 **********************************************************************************************************************************

 Memory per process:      3000 MW
 Total memory per node:   9000 MW

 GA preallocation disabled
 GA check disabled

 Variable memory set to 3000.0 MW


 ZSYMEL=XYZ

 SETTING BASIS          =    CC-PWCVTZ-DK
 SETTING DKHO           =       101.00000000                                  


 Recomputing integrals since basis changed


 Using spherical harmonics

 Library entry FE     S cc-pwCVTZ-DK         selected for orbital group  1
 Library entry FE     P cc-pwCVTZ-DK         selected for orbital group  1
 Library entry FE     D cc-pwCVTZ-DK         selected for orbital group  1
 Library entry FE     F cc-pwCVTZ-DK         selected for orbital group  1
 Library entry FE     G cc-pwCVTZ-DK         selected for orbital group  1


 PROGRAM * SEWARD (Integral evaluation for generally contracted gaussian basis sets)     Author: Roland Lindh, 1990

 Geometry written to block  1 of record 700

 Orientation using atomic masses  
 Molecule type: Atom
 User-specified symmetry elements: XYZ
 Symmetry elements: XYZ
 Rotational constants:       0.0000000      0.0000000      0.0000000 GHz  (calculated with average atomic masses)

 Point group  Ci  



 ATOMIC COORDINATES

 NR  ATOM    CHARGE       X              Y              Z

   1  FE     26.00    0.000000000    0.000000000    0.000000000


 BASIS DATA

   Nr Sym  Nuc  Type         Exponents   Contraction coefficients

    1.1 Ag    1  1s     4316265.000000     0.000140   -0.000072    0.000017   -0.000004   -0.000007   -0.000012
                                           0.000000
    2.1 Ag               646342.400000     0.000405   -0.000209    0.000049   -0.000011   -0.000021   -0.000036
                                           0.000000
    3.1 Ag               147089.700000     0.001119   -0.000579    0.000135   -0.000029   -0.000058   -0.000099
                                           0.000000
    4.1 Ag                41661.520000     0.002907   -0.001506    0.000352   -0.000077   -0.000155   -0.000263
                                           0.000000
    5.1 Ag                13590.770000     0.007571   -0.003939    0.000923   -0.000201   -0.000393   -0.000664
                                           0.000000
    6.1 Ag                 4905.750000     0.019818   -0.010396    0.002452   -0.000535   -0.001101   -0.001869
                                           0.000000
    7.1 Ag                 1912.746000     0.050734   -0.027074    0.006451   -0.001408   -0.002693   -0.004542
                                           0.000000
                            792.604300     0.118729   -0.065777    0.016106   -0.003518   -0.007404   -0.012601
                                           0.000000
                            344.806500     0.231164   -0.139082    0.035742   -0.007814   -0.014484   -0.024423
                                           0.000000
                            155.899900     0.319322   -0.230150    0.065528   -0.014372   -0.031853   -0.054652
                                           0.000000
                             72.230910     0.233648   -0.229663    0.074430   -0.016383   -0.025352   -0.042541
                                           0.000000
                             32.725060     0.074022    0.046091   -0.025711    0.005643   -0.007887   -0.015989
                                           0.000000
                             15.667620     0.090952    0.515051   -0.308645    0.071221    0.191470    0.345964
                                           0.000000
                              7.503483     0.088898    0.487175   -0.446544    0.107800    0.148242    0.320641
                                           0.000000
                              3.312223     0.014302    0.084380    0.148985   -0.044262    0.050761   -0.202125
                                           0.000000
                              1.558471    -0.000387   -0.005911    0.720395   -0.225999   -1.012246   -2.160673
                                           0.000000
                              0.683914     0.000008   -0.000044    0.389698   -0.237628    0.342339    2.627486
                                           0.000000
                              0.146757    -0.000025   -0.000487    0.019184    0.297780    1.857266   -0.475452
                                           0.000000
                              0.070583     0.000032    0.000437   -0.007023    0.565497   -1.063679   -1.566613
                                           0.000000
                              0.031449    -0.000001   -0.000086    0.003124    0.287937   -0.616873    1.512776
                                           1.000000
    8.1 Ag    1  1s           4.684400     1.000000
    9.1 Ag    1  1s           1.220400     1.000000
   10.1 Ag    1  3d0        114.884000     0.003532
                             33.887800     0.025550
                             12.373000     0.098357
                              4.999250     0.237919
                              2.070430     0.356539
                              0.828183     0.362848
                              0.307547     0.238803
                              0.099455     0.061904
   11.1 Ag    1  3d2-       114.884000     0.003532
                             33.887800     0.025550
                             12.373000     0.098357
                              4.999250     0.237919
                              2.070430     0.356539
                              0.828183     0.362848
                              0.307547     0.238803
                              0.099455     0.061904
   12.1 Ag    1  3d1+       114.884000     0.003532
                             33.887800     0.025550
                             12.373000     0.098357
                              4.999250     0.237919
                              2.070430     0.356539
                              0.828183     0.362848
                              0.307547     0.238803
                              0.099455     0.061904
   13.1 Ag    1  3d2+       114.884000     0.003532
                             33.887800     0.025550
                             12.373000     0.098357
                              4.999250     0.237919
                              2.070430     0.356539
                              0.828183     0.362848
                              0.307547     0.238803
                              0.099455     0.061904
   14.1 Ag    1  3d1-       114.884000     0.003532
                             33.887800     0.025550
                             12.373000     0.098357
                              4.999250     0.237919
                              2.070430     0.356539
                              0.828183     0.362848
                              0.307547     0.238803
                              0.099455     0.061904
   15.1 Ag    1  3d0        114.884000    -0.003896
                             33.887800    -0.028207
                             12.373000    -0.111573
                              4.999250    -0.272839
                              2.070430    -0.317152
                              0.828183     0.052062
                              0.307547     0.561269
                              0.099455     0.389155
   16.1 Ag    1  3d2-       114.884000    -0.003896
                             33.887800    -0.028207
                             12.373000    -0.111573
                              4.999250    -0.272839
                              2.070430    -0.317152
                              0.828183     0.052062
                              0.307547     0.561269
                              0.099455     0.389155
   17.1 Ag    1  3d1+       114.884000    -0.003896
                             33.887800    -0.028207
                             12.373000    -0.111573
                              4.999250    -0.272839
                              2.070430    -0.317152
                              0.828183     0.052062
                              0.307547     0.561269
                              0.099455     0.389155
   18.1 Ag    1  3d2+       114.884000    -0.003896
                             33.887800    -0.028207
                             12.373000    -0.111573
                              4.999250    -0.272839
                              2.070430    -0.317152
                              0.828183     0.052062
                              0.307547     0.561269
                              0.099455     0.389155
   19.1 Ag    1  3d1-       114.884000    -0.003896
                             33.887800    -0.028207
                             12.373000    -0.111573
                              4.999250    -0.272839
                              2.070430    -0.317152
                              0.828183     0.052062
                              0.307547     0.561269
                              0.099455     0.389155
   20.1 Ag    1  3d0        114.884000     0.005703
                             33.887800     0.041691
                             12.373000     0.172043
                              4.999250     0.408607
                              2.070430     0.119525
                              0.828183    -0.766038
                              0.307547    -0.043081
                              0.099455     0.716935
   21.1 Ag    1  3d2-       114.884000     0.005703
                             33.887800     0.041691
                             12.373000     0.172043
                              4.999250     0.408607
                              2.070430     0.119525
                              0.828183    -0.766038
                              0.307547    -0.043081
                              0.099455     0.716935
   22.1 Ag    1  3d1+       114.884000     0.005703
                             33.887800     0.041691
                             12.373000     0.172043
                              4.999250     0.408607
                              2.070430     0.119525
                              0.828183    -0.766038
                              0.307547    -0.043081
                              0.099455     0.716935
   23.1 Ag    1  3d2+       114.884000     0.005703
                             33.887800     0.041691
                             12.373000     0.172043
                              4.999250     0.408607
                              2.070430     0.119525
                              0.828183    -0.766038
                              0.307547    -0.043081
                              0.099455     0.716935
   24.1 Ag    1  3d1-       114.884000     0.005703
                             33.887800     0.041691
                             12.373000     0.172043
                              4.999250     0.408607
                              2.070430     0.119525
                              0.828183    -0.766038
                              0.307547    -0.043081
                              0.099455     0.716935
   25.1 Ag    1  3d0        114.884000     0.000000
                             33.887800     0.000000
                             12.373000     0.000000
                              4.999250     0.000000
                              2.070430     0.000000
                              0.828183     0.000000
                              0.307547     0.000000
                              0.099455     1.000000
   26.1 Ag    1  3d2-       114.884000     0.000000
                             33.887800     0.000000
                             12.373000     0.000000
                              4.999250     0.000000
                              2.070430     0.000000
                              0.828183     0.000000
                              0.307547     0.000000
                              0.099455     1.000000
   27.1 Ag    1  3d1+       114.884000     0.000000
                             33.887800     0.000000
                             12.373000     0.000000
                              4.999250     0.000000
                              2.070430     0.000000
                              0.828183     0.000000
                              0.307547     0.000000
                              0.099455     1.000000
   28.1 Ag    1  3d2+       114.884000     0.000000
                             33.887800     0.000000
                             12.373000     0.000000
                              4.999250     0.000000
                              2.070430     0.000000
                              0.828183     0.000000
                              0.307547     0.000000
                              0.099455     1.000000
   29.1 Ag    1  3d1-       114.884000     0.000000
                             33.887800     0.000000
                             12.373000     0.000000
                              4.999250     0.000000
                              2.070430     0.000000
                              0.828183     0.000000
                              0.307547     0.000000
                              0.099455     1.000000
   30.1 Ag    1  3d0          4.530500     1.000000
   31.1 Ag    1  3d2-         4.530500     1.000000
   32.1 Ag    1  3d1+         4.530500     1.000000
   33.1 Ag    1  3d2+         4.530500     1.000000
   34.1 Ag    1  3d1-         4.530500     1.000000
   35.1 Ag    1  3d0          2.120500     1.000000
   36.1 Ag    1  3d2-         2.120500     1.000000
   37.1 Ag    1  3d1+         2.120500     1.000000
   38.1 Ag    1  3d2+         2.120500     1.000000
   39.1 Ag    1  3d1-         2.120500     1.000000
   40.1 Ag    1  5g0          5.506800     1.000000
   41.1 Ag    1  5g2-         5.506800     1.000000
   42.1 Ag    1  5g1+         5.506800     1.000000
   43.1 Ag    1  5g4+         5.506800     1.000000
   44.1 Ag    1  5g1-         5.506800     1.000000
   45.1 Ag    1  5g2+         5.506800     1.000000
   46.1 Ag    1  5g4-         5.506800     1.000000
   47.1 Ag    1  5g3+         5.506800     1.000000
   48.1 Ag    1  5g3-         5.506800     1.000000
   49.1 Ag    1  5g0          2.051500     1.000000
   50.1 Ag    1  5g2-         2.051500     1.000000
   51.1 Ag    1  5g1+         2.051500     1.000000
   52.1 Ag    1  5g4+         2.051500     1.000000
   53.1 Ag    1  5g1-         2.051500     1.000000
   54.1 Ag    1  5g2+         2.051500     1.000000
   55.1 Ag    1  5g4-         2.051500     1.000000
   56.1 Ag    1  5g3+         2.051500     1.000000
   57.1 Ag    1  5g3-         2.051500     1.000000
    1.2 Au    1  2px      17745.690000     0.000123
                           4200.721000     0.000566
                           1364.429000     0.002608
                            522.080600     0.010295
                            221.459500     0.034751
                            100.909600     0.096690
                             48.401150     0.210030
                             23.985360     0.332457
                             12.182500     0.330771
                              6.242298     0.154733
                              3.110944     0.020964
                              1.509958    -0.002346
                              0.710845    -0.001854
                              0.272598    -0.000317
                              0.103972     0.000030
                              0.038166    -0.000012
    2.2 Au    1  2py      17745.690000     0.000123
                           4200.721000     0.000566
                           1364.429000     0.002608
                            522.080600     0.010295
                            221.459500     0.034751
                            100.909600     0.096690
                             48.401150     0.210030
                             23.985360     0.332457
                             12.182500     0.330771
                              6.242298     0.154733
                              3.110944     0.020964
                              1.509958    -0.002346
                              0.710845    -0.001854
                              0.272598    -0.000317
                              0.103972     0.000030
                              0.038166    -0.000012
    3.2 Au    1  2pz      17745.690000     0.000123
                           4200.721000     0.000566
                           1364.429000     0.002608
                            522.080600     0.010295
                            221.459500     0.034751
                            100.909600     0.096690
                             48.401150     0.210030
                             23.985360     0.332457
                             12.182500     0.330771
                              6.242298     0.154733
                              3.110944     0.020964
                              1.509958    -0.002346
                              0.710845    -0.001854
                              0.272598    -0.000317
                              0.103972     0.000030
                              0.038166    -0.000012
    4.2 Au    1  2px      17745.690000    -0.000043
                           4200.721000    -0.000200
                           1364.429000    -0.000923
                            522.080600    -0.003668
                            221.459500    -0.012539
                            100.909600    -0.035848
                             48.401150    -0.080822
                             23.985360    -0.134697
                             12.182500    -0.136912
                              6.242298     0.033713
                              3.110944     0.335670
                              1.509958     0.455496
                              0.710845     0.281760
                              0.272598     0.045150
                              0.103972    -0.003165
                              0.038166     0.001331
    5.2 Au    1  2py      17745.690000    -0.000043
                           4200.721000    -0.000200
                           1364.429000    -0.000923
                            522.080600    -0.003668
                            221.459500    -0.012539
                            100.909600    -0.035848
                             48.401150    -0.080822
                             23.985360    -0.134697
                             12.182500    -0.136912
                              6.242298     0.033713
                              3.110944     0.335670
                              1.509958     0.455496
                              0.710845     0.281760
                              0.272598     0.045150
                              0.103972    -0.003165
                              0.038166     0.001331
    6.2 Au    1  2pz      17745.690000    -0.000043
                           4200.721000    -0.000200
                           1364.429000    -0.000923
                            522.080600    -0.003668
                            221.459500    -0.012539
                            100.909600    -0.035848
                             48.401150    -0.080822
                             23.985360    -0.134697
                             12.182500    -0.136912
                              6.242298     0.033713
                              3.110944     0.335670
                              1.509958     0.455496
                              0.710845     0.281760
                              0.272598     0.045150
                              0.103972    -0.003165
                              0.038166     0.001331
    7.2 Au    1  2px      17745.690000     0.000009
                           4200.721000     0.000044
                           1364.429000     0.000201
                            522.080600     0.000800
                            221.459500     0.002738
                            100.909600     0.007848
                             48.401150     0.017739
                             23.985360     0.029749
                             12.182500     0.030389
                              6.242298    -0.010765
                              3.110944    -0.087689
                              1.509958    -0.128470
                              0.710845    -0.073996
                              0.272598     0.215455
                              0.103972     0.572005
                              0.038166     0.368079
    8.2 Au    1  2py      17745.690000     0.000009
                           4200.721000     0.000044
                           1364.429000     0.000201
                            522.080600     0.000800
                            221.459500     0.002738
                            100.909600     0.007848
                             48.401150     0.017739
                             23.985360     0.029749
                             12.182500     0.030389
                              6.242298    -0.010765
                              3.110944    -0.087689
                              1.509958    -0.128470
                              0.710845    -0.073996
                              0.272598     0.215455
                              0.103972     0.572005
                              0.038166     0.368079
    9.2 Au    1  2pz      17745.690000     0.000009
                           4200.721000     0.000044
                           1364.429000     0.000201
                            522.080600     0.000800
                            221.459500     0.002738
                            100.909600     0.007848
                             48.401150     0.017739
                             23.985360     0.029749
                             12.182500     0.030389
                              6.242298    -0.010765
                              3.110944    -0.087689
                              1.509958    -0.128470
                              0.710845    -0.073996
                              0.272598     0.215455
                              0.103972     0.572005
                              0.038166     0.368079
   10.2 Au    1  2px      17745.690000     0.000014
                           4200.721000     0.000066
                           1364.429000     0.000303
                            522.080600     0.001219
                            221.459500     0.004120
                            100.909600     0.011953
                             48.401150     0.026620
                             23.985360     0.045699
                             12.182500     0.045033
                              6.242298    -0.013011
                              3.110944    -0.141375
                              1.509958    -0.194148
                              0.710845    -0.101770
                              0.272598     0.467864
                              0.103972     0.624218
                              0.038166     0.056225
   11.2 Au    1  2py      17745.690000     0.000014
                           4200.721000     0.000066
                           1364.429000     0.000303
                            522.080600     0.001219
                            221.459500     0.004120
                            100.909600     0.011953
                             48.401150     0.026620
                             23.985360     0.045699
                             12.182500     0.045033
                              6.242298    -0.013011
                              3.110944    -0.141375
                              1.509958    -0.194148
                              0.710845    -0.101770
                              0.272598     0.467864
                              0.103972     0.624218
                              0.038166     0.056225
   12.2 Au    1  2pz      17745.690000     0.000014
                           4200.721000     0.000066
                           1364.429000     0.000303
                            522.080600     0.001219
                            221.459500     0.004120
                            100.909600     0.011953
                             48.401150     0.026620
                             23.985360     0.045699
                             12.182500     0.045033
                              6.242298    -0.013011
                              3.110944    -0.141375
                              1.509958    -0.194148
                              0.710845    -0.101770
                              0.272598     0.467864
                              0.103972     0.624218
                              0.038166     0.056225
   13.2 Au    1  2px      17745.690000     0.000030
                           4200.721000     0.000134
                           1364.429000     0.000659
                            522.080600     0.002447
                            221.459500     0.009014
                            100.909600     0.023823
                             48.401150     0.059364
                             23.985360     0.087580
                             12.182500     0.122286
                              6.242298    -0.068112
                              3.110944    -0.351907
                              1.509958    -0.623706
                              0.710845     0.841448
                              0.272598     0.792070
                              0.103972    -0.917510
                              0.038166    -0.122615
   14.2 Au    1  2py      17745.690000     0.000030
                           4200.721000     0.000134
                           1364.429000     0.000659
                            522.080600     0.002447
                            221.459500     0.009014
                            100.909600     0.023823
                             48.401150     0.059364
                             23.985360     0.087580
                             12.182500     0.122286
                              6.242298    -0.068112
                              3.110944    -0.351907
                              1.509958    -0.623706
                              0.710845     0.841448
                              0.272598     0.792070
                              0.103972    -0.917510
                              0.038166    -0.122615
   15.2 Au    1  2pz      17745.690000     0.000030
                           4200.721000     0.000134
                           1364.429000     0.000659
                            522.080600     0.002447
                            221.459500     0.009014
                            100.909600     0.023823
                             48.401150     0.059364
                             23.985360     0.087580
                             12.182500     0.122286
                              6.242298    -0.068112
                              3.110944    -0.351907
                              1.509958    -0.623706
                              0.710845     0.841448
                              0.272598     0.792070
                              0.103972    -0.917510
                              0.038166    -0.122615
   16.2 Au    1  2px      17745.690000     0.000000
                           4200.721000     0.000000
                           1364.429000     0.000000
                            522.080600     0.000000
                            221.459500     0.000000
                            100.909600     0.000000
                             48.401150     0.000000
                             23.985360     0.000000
                             12.182500     0.000000
                              6.242298     0.000000
                              3.110944     0.000000
                              1.509958     0.000000
                              0.710845     0.000000
                              0.272598     0.000000
                              0.103972     0.000000
                              0.038166     1.000000
   17.2 Au    1  2py      17745.690000     0.000000
                           4200.721000     0.000000
                           1364.429000     0.000000
                            522.080600     0.000000
                            221.459500     0.000000
                            100.909600     0.000000
                             48.401150     0.000000
                             23.985360     0.000000
                             12.182500     0.000000
                              6.242298     0.000000
                              3.110944     0.000000
                              1.509958     0.000000
                              0.710845     0.000000
                              0.272598     0.000000
                              0.103972     0.000000
                              0.038166     1.000000
   18.2 Au    1  2pz      17745.690000     0.000000
                           4200.721000     0.000000
                           1364.429000     0.000000
                            522.080600     0.000000
                            221.459500     0.000000
                            100.909600     0.000000
                             48.401150     0.000000
                             23.985360     0.000000
                             12.182500     0.000000
                              6.242298     0.000000
                              3.110944     0.000000
                              1.509958     0.000000
                              0.710845     0.000000
                              0.272598     0.000000
                              0.103972     0.000000
                              0.038166     1.000000
   19.2 Au    1  2px          6.878800     1.000000
   20.2 Au    1  2py          6.878800     1.000000
   21.2 Au    1  2pz          6.878800     1.000000
   22.2 Au    1  2px          1.574800     1.000000
   23.2 Au    1  2py          1.574800     1.000000
   24.2 Au    1  2pz          1.574800     1.000000
   25.2 Au    1  4f1+         6.006600     1.000000
   26.2 Au    1  4f1-         6.006600     1.000000
   27.2 Au    1  4f0          6.006600     1.000000
   28.2 Au    1  4f3+         6.006600     1.000000
   29.2 Au    1  4f2-         6.006600     1.000000
   30.2 Au    1  4f3-         6.006600     1.000000
   31.2 Au    1  4f2+         6.006600     1.000000
   32.2 Au    1  4f1+         2.252200     1.000000
   33.2 Au    1  4f1-         2.252200     1.000000
   34.2 Au    1  4f0          2.252200     1.000000
   35.2 Au    1  4f3+         2.252200     1.000000
   36.2 Au    1  4f2-         2.252200     1.000000
   37.2 Au    1  4f3-         2.252200     1.000000
   38.2 Au    1  4f2+         2.252200     1.000000
   39.2 Au    1  4f1+         0.775800     1.000000
   40.2 Au    1  4f1-         0.775800     1.000000
   41.2 Au    1  4f0          0.775800     1.000000
   42.2 Au    1  4f3+         0.775800     1.000000
   43.2 Au    1  4f2-         0.775800     1.000000
   44.2 Au    1  4f3-         0.775800     1.000000
   45.2 Au    1  4f2+         0.775800     1.000000

 NUCLEAR CHARGE:                   26
 NUMBER OF PRIMITIVE AOS:         196
 NUMBER OF SYMMETRY AOS:          165
 NUMBER OF CONTRACTIONS:          102   (   57Ag  +   45Au  )
 NUMBER OF INNER CORE ORBITALS:     5   (    2Ag  +    3Au  )
 NUMBER OF OUTER CORE ORBITALS:     4   (    1Ag  +    3Au  )
 NUMBER OF VALENCE ORBITALS:        6   (    6Ag  +    0Au  )


 NUCLEAR REPULSION ENERGY    0.00000000

 One-electron integrals computed with SEWARD

 eXact-2-Component (X2C) method activated

 Computing Douglas-Kroll / X2C integrals

 AO integral compression algorithm  1   Integral accuracy      1.0D-11

     15.466 MB (compressed) written to integral file ( 14.5%)

     Node minimum: 4.194 MB, node maximum: 6.291 MB


 NUMBER OF SORTED TWO-ELECTRON INTEGRALS:    2346138.     BUFFER LENGTH:  32768
 NUMBER OF SEGMENTS:   1  SEGMENT LENGTH:    2346138      RECORD LENGTH: 524288

 Memory used in sort:       2.90 MW

 SORT1 READ    12883698. AND WROTE      445331. INTEGRALS IN      2 RECORDS. CPU TIME:     0.06 SEC, REAL TIME:     0.06 SEC
 SORT2 READ     1353984. AND WROTE     7035726. INTEGRALS IN     57 RECORDS. CPU TIME:     0.06 SEC, REAL TIME:     0.07 SEC

 Node minimum:     2344346.  Node maximum:     2346138. integrals

 OPERATOR DM      FOR CENTER  0  COORDINATES:    0.000000    0.000000    0.000000

 EXTRA SYMMETRY OF AOS IN SYMMETRY 1:   1 1 1 1 1 1 1 1 1 2   3 4 5 6 2 3 4 5 6 2   3 4 5 6 2 3 4 5 6 2   3 4 5 6 2 3 4 5 6 7
                                        8 9101112131415 7 8   9101112131415
 EXTRA SYMMETRY OF AOS IN SYMMETRY 2:   1 2 3 1 2 3 1 2 3 1   2 3 1 2 3 1 2 3 1 2   3 1 2 3 4 5 6 7 8 9  10 4 5 6 7 8 910 4 5
                                        6 7 8 910

 Eigenvalues of metric

         1 0.372E-03 0.297E-02 0.152E-01 0.152E-01 0.152E-01 0.152E-01 0.152E-01 0.250E-01
         2 0.215E-03 0.215E-03 0.215E-03 0.172E-02 0.172E-02 0.172E-02 0.128E+00 0.128E+00


 **********************************************************************************************************************************
 DATASETS  * FILE   NREC   LENGTH (MB)   RECORD NAMES
              1      22       29.06       500      610      700      900      950      970     1000      129      960     1700   
                                          VAR    BASINP    GEOM    SYMINP    ZMAT    AOBASIS   BASIS     P2S    ABASIS    OPER   
                                         1101     1401     1411     1412     1650     1100     1400     1410     1200     1210   
                                          SR      EKINR    POTR     PVPR    MOLCAS      S      EKIN      POT      H0       H01  
                                         1080     1600   
                                         AOSYM     SMH  

 PROGRAMS   *        TOTAL       INT
 CPU TIMES  *         1.41      1.25
 REAL TIME  *         2.82 SEC
 DISK USED  *        29.34 MB (local),      119.47 MB (total)
 GA USED    *         0.00 MB       (max)       0.00 MB       (current)
 **********************************************************************************************************************************


 Program * Restricted Hartree-Fock

 Orbital guess generated from atomic densities. Full valence occupancy:    9   6

 Initial alpha occupancy:   9   6
 Initial beta  occupancy:   5   6

 NELEC=   26   SYM=1   MS2= 4   THRE=1.0D-08   THRD=3.2D-06   THRG=3.2D-06  HFMA2=F  DIIS_START=2   DIIS_MAX=10   DIIS_INCORE=F

 Level shifts:    0.00 (CLOSED)    0.00 (OPEN)    0.30 (GAP_MIN)

 ITER           ETOT              DE          GRAD        DDIFF     DIIS  NEXP   TIME(IT)  TIME(TOT)  DIAG
   1    -1271.15997440   -1271.15997440     0.00D+00     0.13D+00     0     0       0.02      0.03    start
   2    -1271.15629311       0.00368129     0.16D-01     0.19D-01     1     0       0.01      0.04    diag2
   3    -1271.23209236      -0.07579925     0.17D-01     0.10D-01     2     0       0.01      0.05    diag2
   4    -1271.23408682      -0.00199446     0.11D-02     0.97D-03     3     0       0.02      0.07    diag2
   5    -1271.23663315      -0.00254634     0.60D-03     0.13D-02     4     0       0.01      0.08    diag2
   6    -1271.23766563      -0.00103247     0.50D-03     0.46D-03     5     0       0.01      0.09    diag2
   7    -1271.22883609       0.00882954     0.50D-03     0.38D-02     6     0       0.01      0.10    diag2
   8    -1271.22293186       0.00590424     0.54D-03     0.32D-02     7     0       0.02      0.12    diag2
   9    -1271.22310840      -0.00017654     0.92D-03     0.18D-03     8     0       0.01      0.13    diag2
  10    -1271.22016096       0.00294744     0.10D-02     0.28D-02     9     0       0.01      0.14    diag2/orth
  11    -1271.21895435       0.00120660     0.77D-03     0.29D-02     9     0       0.02      0.16    diag2
  12    -1271.21905063      -0.00009628     0.12D-02     0.29D-03     9     0       0.01      0.17    diag2
  13    -1271.21899500       0.00005563     0.10D-02     0.54D-03     9     0       0.01      0.18    diag2
  14    -1271.21895196       0.00004303     0.79D-03     0.63D-03     9     0       0.01      0.19    diag2
  15    -1271.21888287       0.00006910     0.34D-03     0.83D-03     9     0       0.02      0.21    diag2
  16    -1271.21876117       0.00012169     0.54D-03     0.44D-03     9     0       0.01      0.22    diag2
  17    -1271.21854713       0.00021404     0.50D-03     0.12D-02     9     0       0.02      0.24    diag2
  18    -1271.21848070       0.00006644     0.25D-03     0.55D-03     9     0       0.01      0.25    diag2
  19    -1271.21844791       0.00003278     0.16D-03     0.52D-03     9     0       0.01      0.26    diag2
  20    -1271.21844706       0.00000085     0.16D-03     0.25D-03     9     0       0.01      0.27    diag2/orth
  21    -1271.21844919      -0.00000213     0.97D-04     0.10D-03     9     0       0.02      0.29    diag2
  22    -1271.21845137      -0.00000218     0.68D-04     0.79D-04     9     0       0.01      0.30    diag2
  23    -1271.21845272      -0.00000135     0.21D-04     0.44D-04     9     0       0.01      0.31    diag2
  24    -1271.21845158       0.00000114     0.92D-05     0.33D-04     9     0       0.02      0.33    diag2
  25    -1271.21844641       0.00000517     0.81D-05     0.19D-03     9     0       0.01      0.34    diag2
  26    -1271.21844515       0.00000126     0.47D-05     0.82D-04     9     0       0.01      0.35    diag2
  27    -1271.21844524      -0.00000009     0.41D-05     0.50D-05     9     0       0.02      0.37    diag2
  28    -1271.21844453       0.00000071     0.43D-05     0.51D-04     9     0       0.01      0.38    diag2
  29    -1271.21844342       0.00000111     0.37D-05     0.11D-03     9     0       0.01      0.39    diag2
  30    -1271.21844320       0.00000022     0.21D-05     0.50D-04     9     0       0.02      0.41    diag2/orth
  31    -1271.21844318       0.00000002     0.13D-05     0.11D-04     9     0       0.01      0.42    diag2
  32    -1271.21844319      -0.00000001     0.11D-05     0.29D-05     9     0       0.01      0.43    diag2
  33    -1271.21844321      -0.00000002     0.12D-05     0.38D-05     0     0       0.01      0.44    diag

 Final alpha occupancy:   9   6
 Final beta  occupancy:   5   6

 !RHF STATE 1.1 Energy              -1271.218443211275
  RHF One-electron energy           -1760.562136373076
  RHF Two-electron energy             489.343693161801
  RHF Kinetic energy                 1324.722559634127
  RHF Nuclear energy                    0.000000000000
  RHF Virial quotient                  -0.959611077781

 !RHF STATE 1.1 Dipole moment           0.00000000     0.00000000     0.00000000
 Dipole moment /Debye                   0.00000000     0.00000000     0.00000000

 ELECTRON ORBITALS
 =================

  Orbital  Occupation    Energy    Cen Mu Typ  Coefficients
    1.1     2.00000  -263.49617     1  1  s    0.97998
    2.1     2.00000   -32.23616     1  2  s    0.99635
    3.1     2.00000    -4.05405     1  3  s    0.99182
    4.1     2.00000    -0.32195     1  1  d1+  0.98923
    5.1     2.00000    -0.32195     1  1  d0   0.85340    1  1  d2+ -0.50023
    6.1     1.00000    -0.50490     1  1  d0   0.49034    1  1  d2+  0.85934
    7.1     1.00000    -0.48438     1  1  d1-  0.97736
    8.1     1.00000    -0.48433     1  1  d2-  0.98735
    9.1     1.00000    -0.23726     1  4  s    0.97188
    1.2     2.00000   -27.32590     1  1  py   0.99602
    2.2     2.00000   -27.29772     1  1  pz   0.99397
    3.2     2.00000   -27.29768     1  1  px   0.99731
    4.2     2.00000    -2.58969     1  2  py   0.99657
    5.2     2.00000    -2.57035     1  2  px   0.97958
    6.2     2.00000    -2.57034     1  2  pz   0.97631


 HOMO      9.1    -0.237261 =      -6.4562eV
 LUMO      7.2     0.034862 =       0.9486eV
 LUMO-HOMO         0.272123 =       7.4048eV

 Orbitals saved in record  2100.2


 **********************************************************************************************************************************
 DATASETS  * FILE   NREC   LENGTH (MB)   RECORD NAMES
              1      22       29.06       500      610      700      900      950      970     1000      129      960     1700   
                                          VAR    BASINP    GEOM    SYMINP    ZMAT    AOBASIS   BASIS     P2S    ABASIS    OPER   
                                         1101     1401     1411     1412     1650     1100     1400     1410     1200     1210   
                                          SR      EKINR    POTR     PVPR    MOLCAS      S      EKIN      POT      H0       H01  
                                         1080     1600   
                                         AOSYM     SMH  

              2       4        0.52       700     1000      520     2100   
                                         GEOM     BASIS   MCVARS     RHF  

 PROGRAMS   *        TOTAL   RHF-SCF       INT
 CPU TIMES  *         1.85      0.44      1.25
 REAL TIME  *         3.67 SEC
 DISK USED  *        30.37 MB (local),      122.56 MB (total)
 GA USED    *         0.00 MB       (max)       0.00 MB       (current)
 **********************************************************************************************************************************

 PROGRAM * MULTI (Direct Multiconfiguration SCF)       Authors: P.J. Knowles, H.-J. Werner (1984)
                                                                D.A. Kreplin, P.J. Knowles, H.-J. Werner (2019)

 Number of closed-shell orbitals:   9 (   3   6 )
 Number of active  orbitals:        6 (   6   0 )
 Number of external orbitals:      87 (  48  39 )

 State symmetry 1

 Number of active electrons:   8    Spin symmetry=Quintet   Space symmetry=1
 Number of states:            15
 Number of CSFs:              15   (15 determinants, 15 intermediate states)

 State symmetry 2

 Number of active electrons:   8    Spin symmetry=Triplet   Space symmetry=1
 Number of states:            21
 Number of CSFs:             105   (120 determinants, 120 intermediate states)

 Molecular orbitals read from record     2100.2  Type=RHF/CANONICAL  
 *** IN SYMMETRY 1 ORBITAL  1 SYMMETRY CONTAMINATION OF 0.164D-03 HAS BEEN REMOVED
 *** IN SYMMETRY 1 ORBITAL  2 SYMMETRY CONTAMINATION OF 0.885D-02 HAS BEEN REMOVED
 *** IN SYMMETRY 1 ORBITAL  3 SYMMETRY CONTAMINATION OF 0.306D-01 HAS BEEN REMOVED
 *** IN SYMMETRY 1 ORBITAL  4 SYMMETRY CONTAMINATION OF 0.938D-01 HAS BEEN REMOVED
 *** IN SYMMETRY 1 ORBITAL  5 SYMMETRY CONTAMINATION OF 0.414D+00 HAS BEEN REMOVED
 *** IN SYMMETRY 1 ORBITAL  6 SYMMETRY CONTAMINATION OF 0.441D+00 HAS BEEN REMOVED
 *** IN SYMMETRY 1 ORBITAL  7 SYMMETRY CONTAMINATION OF 0.279D+00 HAS BEEN REMOVED
 *** IN SYMMETRY 1 ORBITAL  8 SYMMETRY CONTAMINATION OF 0.203D+00 HAS BEEN REMOVED
 *** IN SYMMETRY 1 ORBITAL  9 SYMMETRY CONTAMINATION OF 0.816D-01 HAS BEEN REMOVED

 EXTRA SYMMETRY OF MOS IN SYMMETRY 1:   1 1 1 4 2 5 6 3 1 1   5 3 6 4 2 1 5 3 6 4   2 1 5 3 6 4 2101113   714 815 912 1 6 3 5
                                        4 2101113 714 815 9  12 5 6 3 2 4 1
 *** IN SYMMETRY 2 ORBITAL  1 SYMMETRY CONTAMINATION OF 0.775D-01 HAS BEEN REMOVED
 *** IN SYMMETRY 2 ORBITAL  2 SYMMETRY CONTAMINATION OF 0.139D+00 HAS BEEN REMOVED
 *** IN SYMMETRY 2 ORBITAL  3 SYMMETRY CONTAMINATION OF 0.780D-01 HAS BEEN REMOVED
 *** IN SYMMETRY 2 ORBITAL  4 SYMMETRY CONTAMINATION OF 0.889D-01 HAS BEEN REMOVED
 *** IN SYMMETRY 2 ORBITAL  5 SYMMETRY CONTAMINATION OF 0.193D+00 HAS BEEN REMOVED
 *** IN SYMMETRY 2 ORBITAL  6 SYMMETRY CONTAMINATION OF 0.234D+00 HAS BEEN REMOVED
 EXTRA SYMMETRY OF MOS IN SYMMETRY 2:   2 3 1 2 1 3 2 1 3 2   1 3 2 1 3 9 710 5 8   6 4 2 1 3 910 7 8 5   6 4 2 3 1 910 7 5 8
                                        4 6 2 3 1

 Wavefunction dump at record             2140.2

 Convergence thresholds  0.10E-04 (gradient)  0.10E-05 (energy)

 Weight factors for state symmetry  1:    0.02778   0.02778   0.02778   0.02778   0.02778   0.02778   0.02778   0.02778
                                          0.02778   0.02778   0.02778   0.02778   0.02778   0.02778   0.02778
 Weight factors for state symmetry  2:    0.02778   0.02778   0.02778   0.02778   0.02778   0.02778   0.02778   0.02778
                                          0.02778   0.02778   0.02778   0.02778   0.02778   0.02778   0.02778   0.02778
                                          0.02778   0.02778   0.02778   0.02778   0.02778
 
 Number of orbital rotations:  684  ( 18 closed/active, 378 closed/virtual, 0 active/active, 288 active/virtual )
 Total number of variables:    3429
 
 Second-order MCSCF: L-BFGS accelerated
 
 ITER  MIC  NCI  NEG     ENERGY(VAR)    ENERGY(PROJ) ENERGY CHANGE       GRAD(0)  GRAD(ORB)   GRAD(CI)      STEP      TIME
   1   10   18    0  -1271.21053931   -1271.23093134   -0.02039204    0.10448124 0.00008989 0.00000000  0.17E+00      0.37
   2    8   14    0  -1271.22923574   -1271.22936550   -0.00012976    0.02123234 0.00000457 0.00000000  0.10E-01      0.76
   3   23   46    0  -1271.22936584   -1271.22936584   -0.00000000    0.00007393 0.00000011 0.00000000  0.47E-04      1.44
   4   20   40    0  -1271.22936584   -1271.22936584    0.00000000    0.00000012 0.00000029 0.00000000  0.30E-06      2.00

 CONVERGENCE REACHED!  Final gradient:    0.00000148 ( 0.15E-05)
                       Final energy:  -1271.22936584
 
 Results for state 1.1 Quintet
 =============================
 !MCSCF STATE 1.1 Quintet Energy             -1271.327523710663
 Nuclear energy                                  0.00000000
 Kinetic energy                               1323.09654749
 One electron energy                         -1753.16180501
 Two electron energy                           481.83428129
 Virial ratio                                    1.96087283
 
 !MCSCF STATE 1.1 Quintet Dipole moment          0.00000000     0.00000000     0.00000000
 Dipole moment /Debye                            0.00000000     0.00000000     0.00000000
 
 Results for state 2.1 Quintet
 =============================
 !MCSCF STATE 2.1 Quintet Energy             -1271.327523705235
 Nuclear energy                                  0.00000000
 Kinetic energy                               1323.09654617
 One electron energy                         -1753.16180367
 Two electron energy                           481.83427997
 Virial ratio                                    1.96087283
 
 !MCSCF STATE 2.1 Quintet Dipole moment          0.00000000     0.00000000     0.00000000
 Dipole moment /Debye                            0.00000000     0.00000000     0.00000000
 
 Results for state 3.1 Quintet
 =============================
 !MCSCF STATE 3.1 Quintet Energy             -1271.327523701283
 Nuclear energy                                  0.00000000
 Kinetic energy                               1323.09654953
 One electron energy                         -1753.16180836
 Two electron energy                           481.83428465
 Virial ratio                                    1.96087283
 
 !MCSCF STATE 3.1 Quintet Dipole moment          0.00000000     0.00000000     0.00000000
 Dipole moment /Debye                            0.00000000     0.00000000     0.00000000
 
 Results for state 4.1 Quintet
 =============================
 !MCSCF STATE 4.1 Quintet Energy             -1271.327523695324
 Nuclear energy                                  0.00000000
 Kinetic energy                               1323.09654697
 One electron energy                         -1753.16180519
 Two electron energy                           481.83428149
 Virial ratio                                    1.96087283
 
 !MCSCF STATE 4.1 Quintet Dipole moment          0.00000000     0.00000000     0.00000000
 Dipole moment /Debye                            0.00000000     0.00000000     0.00000000
 
 Results for state 5.1 Quintet
 =============================
 !MCSCF STATE 5.1 Quintet Energy             -1271.327523694193
 Nuclear energy                                  0.00000000
 Kinetic energy                               1323.09654664
 One electron energy                         -1753.16180544
 Two electron energy                           481.83428175
 Virial ratio                                    1.96087283
 
 !MCSCF STATE 5.1 Quintet Dipole moment          0.00000000     0.00000000     0.00000000
 Dipole moment /Debye                            0.00000000     0.00000000     0.00000000
 
 Results for state 6.1 Quintet
 =============================
 !MCSCF STATE 6.1 Quintet Energy             -1271.209105766832
 Nuclear energy                                  0.00000000
 Kinetic energy                               1329.11745441
 One electron energy                         -1767.94841728
 Two electron energy                           496.73931151
 Virial ratio                                    1.95643098
 
 !MCSCF STATE 6.1 Quintet Dipole moment          0.00000000     0.00000000     0.00000000
 Dipole moment /Debye                            0.00000000     0.00000000     0.00000000
 
 Results for state 7.1 Quintet
 =============================
 !MCSCF STATE 7.1 Quintet Energy             -1271.209105764077
 Nuclear energy                                  0.00000000
 Kinetic energy                               1329.11745448
 One electron energy                         -1767.94841742
 Two electron energy                           496.73931166
 Virial ratio                                    1.95643098
 
 !MCSCF STATE 7.1 Quintet Dipole moment          0.00000000     0.00000000     0.00000000
 Dipole moment /Debye                            0.00000000     0.00000000     0.00000000
 
 Results for state 8.1 Quintet
 =============================
 !MCSCF STATE 8.1 Quintet Energy             -1271.209105739944
 Nuclear energy                                  0.00000000
 Kinetic energy                               1329.11745453
 One electron energy                         -1767.94841807
 Two electron energy                           496.73931233
 Virial ratio                                    1.95643098
 
 !MCSCF STATE 8.1 Quintet Dipole moment          0.00000000     0.00000000     0.00000000
 Dipole moment /Debye                            0.00000000     0.00000000     0.00000000
 
 Results for state 9.1 Quintet
 =============================
 !MCSCF STATE 9.1 Quintet Energy             -1271.209105730474
 Nuclear energy                                  0.00000000
 Kinetic energy                               1329.11745575
 One electron energy                         -1767.94841910
 Two electron energy                           496.73931337
 Virial ratio                                    1.95643098
 
 !MCSCF STATE 9.1 Quintet Dipole moment          0.00000000     0.00000000     0.00000000
 Dipole moment /Debye                            0.00000000     0.00000000     0.00000000
 
 Results for state 10.1 Quintet
 ==============================
 !MCSCF STATE 10.1 Quintet Energy            -1271.209105720889
 Nuclear energy                                  0.00000000
 Kinetic energy                               1329.11745568
 One electron energy                         -1767.94841934
 Two electron energy                           496.73931362
 Virial ratio                                    1.95643098
 
 !MCSCF STATE 10.1 Quintet Dipole moment         0.00000000     0.00000000     0.00000000
 Dipole moment /Debye                            0.00000000     0.00000000     0.00000000
 
 Results for state 11.1 Quintet
 ==============================
 !MCSCF STATE 11.1 Quintet Energy            -1271.209105719637
 Nuclear energy                                  0.00000000
 Kinetic energy                               1329.11745671
 One electron energy                         -1767.94842003
 Two electron energy                           496.73931431
 Virial ratio                                    1.95643098
 
 !MCSCF STATE 11.1 Quintet Dipole moment         0.00000000     0.00000000     0.00000000
 Dipole moment /Debye                            0.00000000     0.00000000     0.00000000
 
 Results for state 12.1 Quintet
 ==============================
 !MCSCF STATE 12.1 Quintet Energy            -1271.209105704252
 Nuclear energy                                  0.00000000
 Kinetic energy                               1329.11745794
 One electron energy                         -1767.94842122
 Two electron energy                           496.73931552
 Virial ratio                                    1.95643097
 
 !MCSCF STATE 12.1 Quintet Dipole moment         0.00000000     0.00000000     0.00000000
 Dipole moment /Debye                            0.00000000     0.00000000     0.00000000
 
 Results for state 13.1 Quintet
 ==============================
 !MCSCF STATE 13.1 Quintet Energy            -1271.132840221080
 Nuclear energy                                  0.00000000
 Kinetic energy                               1329.11745451
 One electron energy                         -1767.94841681
 Two electron energy                           496.81557659
 Virial ratio                                    1.95637360
 
 !MCSCF STATE 13.1 Quintet Dipole moment         0.00000000     0.00000000     0.00000000
 Dipole moment /Debye                            0.00000000     0.00000000     0.00000000
 
 Results for state 14.1 Quintet
 ==============================
 !MCSCF STATE 14.1 Quintet Energy            -1271.132840133330
 Nuclear energy                                  0.00000000
 Kinetic energy                               1329.11745631
 One electron energy                         -1767.94841990
 Two electron energy                           496.81557977
 Virial ratio                                    1.95637360
 
 !MCSCF STATE 14.1 Quintet Dipole moment         0.00000000     0.00000000     0.00000000
 Dipole moment /Debye                            0.00000000     0.00000000     0.00000000
 
 Results for state 15.1 Quintet
 ==============================
 !MCSCF STATE 15.1 Quintet Energy            -1271.132840127341
 Nuclear energy                                  0.00000000
 Kinetic energy                               1329.11745611
 One electron energy                         -1767.94842005
 Two electron energy                           496.81557993
 Virial ratio                                    1.95637360
 
 !MCSCF STATE 15.1 Quintet Dipole moment         0.00000000     0.00000000     0.00000000
 Dipole moment /Debye                            0.00000000     0.00000000     0.00000000
 
 Results for state 1.1 Triplet
 =============================
 !MCSCF STATE 1.1 Triplet Energy             -1271.232630791419
 Nuclear energy                                  0.00000000
 Kinetic energy                               1323.09774730
 One electron energy                         -1753.16475083
 Two electron energy                           481.93212004
 Virial ratio                                    1.96080024
 
 !MCSCF STATE 1.1 Triplet Dipole moment          0.00000000     0.00000000     0.00000000
 Dipole moment /Debye                            0.00000000     0.00000000     0.00000000
 
 Results for state 2.1 Triplet
 =============================
 !MCSCF STATE 2.1 Triplet Energy             -1271.232630791212
 Nuclear energy                                  0.00000000
 Kinetic energy                               1323.09774723
 One electron energy                         -1753.16475075
 Two electron energy                           481.93211996
 Virial ratio                                    1.96080024
 
 !MCSCF STATE 2.1 Triplet Dipole moment          0.00000000     0.00000000     0.00000000
 Dipole moment /Debye                            0.00000000     0.00000000     0.00000000
 
 Results for state 3.1 Triplet
 =============================
 !MCSCF STATE 3.1 Triplet Energy             -1271.232630789916
 Nuclear energy                                  0.00000000
 Kinetic energy                               1323.09774711
 One electron energy                         -1753.16475048
 Two electron energy                           481.93211969
 Virial ratio                                    1.96080024
 
 !MCSCF STATE 3.1 Triplet Dipole moment          0.00000000     0.00000000     0.00000000
 Dipole moment /Debye                            0.00000000     0.00000000     0.00000000
 
 Results for state 4.1 Triplet
 =============================
 !MCSCF STATE 4.1 Triplet Energy             -1271.232630789509
 Nuclear energy                                  0.00000000
 Kinetic energy                               1323.09774711
 One electron energy                         -1753.16475047
 Two electron energy                           481.93211968
 Virial ratio                                    1.96080024
 
 !MCSCF STATE 4.1 Triplet Dipole moment          0.00000000     0.00000000     0.00000000
 Dipole moment /Debye                            0.00000000     0.00000000     0.00000000
 
 Results for state 5.1 Triplet
 =============================
 !MCSCF STATE 5.1 Triplet Energy             -1271.232630785966
 Nuclear energy                                  0.00000000
 Kinetic energy                               1323.09774652
 One electron energy                         -1753.16474980
 Two electron energy                           481.93211901
 Virial ratio                                    1.96080024
 
 !MCSCF STATE 5.1 Triplet Dipole moment          0.00000000     0.00000000     0.00000000
 Dipole moment /Debye                            0.00000000     0.00000000     0.00000000
 
 Results for state 6.1 Triplet
 =============================
 !MCSCF STATE 6.1 Triplet Energy             -1271.232630783993
 Nuclear energy                                  0.00000000
 Kinetic energy                               1323.09774559
 One electron energy                         -1753.16474931
 Two electron energy                           481.93211853
 Virial ratio                                    1.96080024
 
 !MCSCF STATE 6.1 Triplet Dipole moment          0.00000000     0.00000000     0.00000000
 Dipole moment /Debye                            0.00000000     0.00000000     0.00000000
 
 Results for state 7.1 Triplet
 =============================
 !MCSCF STATE 7.1 Triplet Energy             -1271.232630783950
 Nuclear energy                                  0.00000000
 Kinetic energy                               1323.09774558
 One electron energy                         -1753.16474933
 Two electron energy                           481.93211854
 Virial ratio                                    1.96080024
 
 !MCSCF STATE 7.1 Triplet Dipole moment          0.00000000     0.00000000     0.00000000
 Dipole moment /Debye                            0.00000000     0.00000000     0.00000000
 
 Results for state 8.1 Triplet
 =============================
 !MCSCF STATE 8.1 Triplet Energy             -1271.232630782372
 Nuclear energy                                  0.00000000
 Kinetic energy                               1323.09774561
 One electron energy                         -1753.16474896
 Two electron energy                           481.93211818
 Virial ratio                                    1.96080024
 
 !MCSCF STATE 8.1 Triplet Dipole moment          0.00000000     0.00000000     0.00000000
 Dipole moment /Debye                            0.00000000     0.00000000     0.00000000
 
 Results for state 9.1 Triplet
 =============================
 !MCSCF STATE 9.1 Triplet Energy             -1271.232630779851
 Nuclear energy                                  0.00000000
 Kinetic energy                               1323.09774503
 One electron energy                         -1753.16474839
 Two electron energy                           481.93211761
 Virial ratio                                    1.96080024
 
 !MCSCF STATE 9.1 Triplet Dipole moment          0.00000000     0.00000000     0.00000000
 Dipole moment /Debye                            0.00000000     0.00000000     0.00000000
 
 Results for state 10.1 Triplet
 ==============================
 !MCSCF STATE 10.1 Triplet Energy            -1271.232630777878
 Nuclear energy                                  0.00000000
 Kinetic energy                               1323.09774520
 One electron energy                         -1753.16474827
 Two electron energy                           481.93211749
 Virial ratio                                    1.96080024
 
 !MCSCF STATE 10.1 Triplet Dipole moment         0.00000000     0.00000000     0.00000000
 Dipole moment /Debye                            0.00000000     0.00000000     0.00000000
 
 Results for state 11.1 Triplet
 ==============================
 !MCSCF STATE 11.1 Triplet Energy            -1271.232630776954
 Nuclear energy                                  0.00000000
 Kinetic energy                               1323.09774489
 One electron energy                         -1753.16474800
 Two electron energy                           481.93211722
 Virial ratio                                    1.96080024
 
 !MCSCF STATE 11.1 Triplet Dipole moment         0.00000000     0.00000000     0.00000000
 Dipole moment /Debye                            0.00000000     0.00000000     0.00000000
 
 Results for state 12.1 Triplet
 ==============================
 !MCSCF STATE 12.1 Triplet Energy            -1271.222256677565
 Nuclear energy                                  0.00000000
 Kinetic energy                               1323.11699425
 One electron energy                         -1753.21202059
 Two electron energy                           481.98976391
 Virial ratio                                    1.96077842
 
 !MCSCF STATE 12.1 Triplet Dipole moment         0.00000000     0.00000000     0.00000000
 Dipole moment /Debye                            0.00000000     0.00000000     0.00000000
 
 Results for state 13.1 Triplet
 ==============================
 !MCSCF STATE 13.1 Triplet Energy            -1271.222256676825
 Nuclear energy                                  0.00000000
 Kinetic energy                               1323.11699428
 One electron energy                         -1753.21202060
 Two electron energy                           481.98976393
 Virial ratio                                    1.96077842
 
 !MCSCF STATE 13.1 Triplet Dipole moment         0.00000000     0.00000000     0.00000000
 Dipole moment /Debye                            0.00000000     0.00000000     0.00000000
 
 Results for state 14.1 Triplet
 ==============================
 !MCSCF STATE 14.1 Triplet Energy            -1271.222256674210
 Nuclear energy                                  0.00000000
 Kinetic energy                               1323.11699415
 One electron energy                         -1753.21202039
 Two electron energy                           481.98976372
 Virial ratio                                    1.96077842
 
 !MCSCF STATE 14.1 Triplet Dipole moment         0.00000000     0.00000000     0.00000000
 Dipole moment /Debye                            0.00000000     0.00000000     0.00000000
 
 Results for state 15.1 Triplet
 ==============================
 !MCSCF STATE 15.1 Triplet Energy            -1271.218797514199
 Nuclear energy                                  0.00000000
 Kinetic energy                               1323.13915237
 One electron energy                         -1753.26643712
 Two electron energy                           482.04763960
 Virial ratio                                    1.96075972
 
 !MCSCF STATE 15.1 Triplet Dipole moment         0.00000000     0.00000000     0.00000000
 Dipole moment /Debye                            0.00000000     0.00000000     0.00000000
 
 Results for state 16.1 Triplet
 ==============================
 !MCSCF STATE 16.1 Triplet Energy            -1271.218797512067
 Nuclear energy                                  0.00000000
 Kinetic energy                               1323.13915198
 One electron energy                         -1753.26643678
 Two electron energy                           482.04763927
 Virial ratio                                    1.96075972
 
 !MCSCF STATE 16.1 Triplet Dipole moment         0.00000000     0.00000000     0.00000000
 Dipole moment /Debye                            0.00000000     0.00000000     0.00000000
 
 Results for state 17.1 Triplet
 ==============================
 !MCSCF STATE 17.1 Triplet Energy            -1271.218797511344
 Nuclear energy                                  0.00000000
 Kinetic energy                               1323.13915169
 One electron energy                         -1753.26643664
 Two electron energy                           482.04763913
 Virial ratio                                    1.96075972
 
 !MCSCF STATE 17.1 Triplet Dipole moment         0.00000000     0.00000000     0.00000000
 Dipole moment /Debye                            0.00000000     0.00000000     0.00000000
 
 Results for state 18.1 Triplet
 ==============================
 !MCSCF STATE 18.1 Triplet Energy            -1271.218797510591
 Nuclear energy                                  0.00000000
 Kinetic energy                               1323.13915168
 One electron energy                         -1753.26643652
 Two electron energy                           482.04763901
 Virial ratio                                    1.96075972
 
 !MCSCF STATE 18.1 Triplet Dipole moment         0.00000000     0.00000000     0.00000000
 Dipole moment /Debye                            0.00000000     0.00000000     0.00000000
 
 Results for state 19.1 Triplet
 ==============================
 !MCSCF STATE 19.1 Triplet Energy            -1271.218797508817
 Nuclear energy                                  0.00000000
 Kinetic energy                               1323.13915135
 One electron energy                         -1753.26643631
 Two electron energy                           482.04763880
 Virial ratio                                    1.96075972
 
 !MCSCF STATE 19.1 Triplet Dipole moment         0.00000000     0.00000000     0.00000000
 Dipole moment /Debye                            0.00000000     0.00000000     0.00000000
 
 Results for state 20.1 Triplet
 ==============================
 !MCSCF STATE 20.1 Triplet Energy            -1271.218797506199
 Nuclear energy                                  0.00000000
 Kinetic energy                               1323.13915130
 One electron energy                         -1753.26643605
 Two electron energy                           482.04763854
 Virial ratio                                    1.96075972
 
 !MCSCF STATE 20.1 Triplet Dipole moment         0.00000000     0.00000000     0.00000000
 Dipole moment /Debye                            0.00000000     0.00000000     0.00000000
 
 Results for state 21.1 Triplet
 ==============================
 !MCSCF STATE 21.1 Triplet Energy            -1271.218797505710
 Nuclear energy                                  0.00000000
 Kinetic energy                               1323.13915130
 One electron energy                         -1753.26643605
 Two electron energy                           482.04763855
 Virial ratio                                    1.96075972
 
 !MCSCF STATE 21.1 Triplet Dipole moment         0.00000000     0.00000000     0.00000000
 Dipole moment /Debye                            0.00000000     0.00000000     0.00000000
 
 State-averaged charge density matrix saved on record 2140.2 (density set 1)
 
 No non-zero expectation values
 
 Expectation values for two-electron operators:
 
 !MCSCF expec      <1.1 Quintet|LXLX|1.1 Quintet>     1.750426202076
 !MCSCF expec      <2.1 Quintet|LXLX|2.1 Quintet>     0.999999999655
 !MCSCF expec      <3.1 Quintet|LXLX|3.1 Quintet>     2.249573805487
 !MCSCF expec      <4.1 Quintet|LXLX|4.1 Quintet>     1.000000002562
 !MCSCF expec      <5.1 Quintet|LXLX|5.1 Quintet>     3.999999992232
 !MCSCF expec      <6.1 Quintet|LXLX|6.1 Quintet>     0.636506762751
 !MCSCF expec      <7.1 Quintet|LXLX|7.1 Quintet>     1.620186923152
 !MCSCF expec      <8.1 Quintet|LXLX|8.1 Quintet>     6.307234298396
 !MCSCF expec      <9.1 Quintet|LXLX|9.1 Quintet>     8.379813034051
 !MCSCF expec    <10.1 Quintet|LXLX|10.1 Quintet>     3.363492365397
 !MCSCF expec    <11.1 Quintet|LXLX|11.1 Quintet>     3.692762904424
 !MCSCF expec    <12.1 Quintet|LXLX|12.1 Quintet>     3.999999999885
 !MCSCF expec    <13.1 Quintet|LXLX|13.1 Quintet>     1.000000000000
 !MCSCF expec    <14.1 Quintet|LXLX|14.1 Quintet>     0.999999999855
 !MCSCF expec    <15.1 Quintet|LXLX|15.1 Quintet>     0.000000000145
 !MCSCF expec      <1.1 Triplet|LXLX|1.1 Triplet>     6.738093509629
 !MCSCF expec      <2.1 Triplet|LXLX|2.1 Triplet>     5.752815162931
 !MCSCF expec      <3.1 Triplet|LXLX|3.1 Triplet>     7.925605967744
 !MCSCF expec      <4.1 Triplet|LXLX|4.1 Triplet>    11.191745016598
 !MCSCF expec      <5.1 Triplet|LXLX|5.1 Triplet>    14.247155627049
 !MCSCF expec      <6.1 Triplet|LXLX|6.1 Triplet>     3.086221951332
 !MCSCF expec      <7.1 Triplet|LXLX|7.1 Triplet>     3.312462688718
 !MCSCF expec      <8.1 Triplet|LXLX|8.1 Triplet>     8.870974709137
 !MCSCF expec      <9.1 Triplet|LXLX|9.1 Triplet>     5.495786846075
 !MCSCF expec    <10.1 Triplet|LXLX|10.1 Triplet>    23.988175525883
 !MCSCF expec    <11.1 Triplet|LXLX|11.1 Triplet>    19.390942426612
 !MCSCF expec    <12.1 Triplet|LXLX|12.1 Triplet>     0.000000001079
 !MCSCF expec    <13.1 Triplet|LXLX|13.1 Triplet>     0.999999998842
 !MCSCF expec    <14.1 Triplet|LXLX|14.1 Triplet>     0.999999999899
 !MCSCF expec    <15.1 Triplet|LXLX|15.1 Triplet>     4.000000000188
 !MCSCF expec    <16.1 Triplet|LXLX|16.1 Triplet>     4.613314545829
 !MCSCF expec    <17.1 Triplet|LXLX|17.1 Triplet>     3.503945443205
 !MCSCF expec    <18.1 Triplet|LXLX|18.1 Triplet>     8.440794375083
 !MCSCF expec    <19.1 Triplet|LXLX|19.1 Triplet>     5.386698549689
 !MCSCF expec    <20.1 Triplet|LXLX|20.1 Triplet>     1.559203147101
 !MCSCF expec    <21.1 Triplet|LXLX|21.1 Triplet>     0.496053812475
 
 !MCSCF expec      <1.1 Quintet|LYLY|1.1 Quintet>     0.406274552732
 !MCSCF expec      <2.1 Quintet|LYLY|2.1 Quintet>     1.000000001702
 !MCSCF expec      <3.1 Quintet|LYLY|3.1 Quintet>     3.593725437315
 !MCSCF expec      <4.1 Quintet|LYLY|4.1 Quintet>     3.999999995452
 !MCSCF expec      <5.1 Quintet|LYLY|5.1 Quintet>     1.000000012087
 !MCSCF expec      <6.1 Quintet|LYLY|6.1 Quintet>     2.848317034778
 !MCSCF expec      <7.1 Quintet|LYLY|7.1 Quintet>     1.386763161914
 !MCSCF expec      <8.1 Quintet|LYLY|8.1 Quintet>     5.686329975115
 !MCSCF expec      <9.1 Quintet|LYLY|9.1 Quintet>     2.613236873600
 !MCSCF expec    <10.1 Quintet|LYLY|10.1 Quintet>     7.151684971714
 !MCSCF expec    <11.1 Quintet|LYLY|11.1 Quintet>     4.313672951433
 !MCSCF expec    <12.1 Quintet|LYLY|12.1 Quintet>     4.000000001701
 !MCSCF expec    <13.1 Quintet|LYLY|13.1 Quintet>     1.000000000001
 !MCSCF expec    <14.1 Quintet|LYLY|14.1 Quintet>     0.000000000150
 !MCSCF expec    <15.1 Quintet|LYLY|15.1 Quintet>     0.999999999862
 !MCSCF expec      <1.1 Triplet|LYLY|1.1 Triplet>     7.593932835725
 !MCSCF expec      <2.1 Triplet|LYLY|2.1 Triplet>     8.453297360942
 !MCSCF expec      <3.1 Triplet|LYLY|3.1 Triplet>    13.396786517911
 !MCSCF expec      <4.1 Triplet|LYLY|4.1 Triplet>     9.740826678217
 !MCSCF expec      <5.1 Triplet|LYLY|5.1 Triplet>    11.546742505285
 !MCSCF expec      <6.1 Triplet|LYLY|6.1 Triplet>     2.519409051266
 !MCSCF expec      <7.1 Triplet|LYLY|7.1 Triplet>     2.648140249975
 !MCSCF expec      <8.1 Triplet|LYLY|8.1 Triplet>    17.323008641809
 !MCSCF expec      <9.1 Triplet|LYLY|9.1 Triplet>    22.611047539509
 !MCSCF expec    <10.1 Triplet|LYLY|10.1 Triplet>     4.083796626500
 !MCSCF expec    <11.1 Triplet|LYLY|11.1 Triplet>    10.083051187750
 !MCSCF expec    <12.1 Triplet|LYLY|12.1 Triplet>     0.999999999045
 !MCSCF expec    <13.1 Triplet|LYLY|13.1 Triplet>     0.000000001435
 !MCSCF expec    <14.1 Triplet|LYLY|14.1 Triplet>     0.999999999886
 !MCSCF expec    <15.1 Triplet|LYLY|15.1 Triplet>     4.000000003294
 !MCSCF expec    <16.1 Triplet|LYLY|16.1 Triplet>     3.410927945807
 !MCSCF expec    <17.1 Triplet|LYLY|17.1 Triplet>     6.801075531254
 !MCSCF expec    <18.1 Triplet|LYLY|18.1 Triplet>     2.557432433992
 !MCSCF expec    <19.1 Triplet|LYLY|19.1 Triplet>     6.589059973523
 !MCSCF expec    <20.1 Triplet|LYLY|20.1 Triplet>     1.442569900292
 !MCSCF expec    <21.1 Triplet|LYLY|21.1 Triplet>     3.198926501658
 
 !MCSCF expec      <1.1 Quintet|LZLZ|1.1 Quintet>     3.843299245192
 !MCSCF expec      <2.1 Quintet|LZLZ|2.1 Quintet>     3.999999998644
 !MCSCF expec      <3.1 Quintet|LZLZ|3.1 Quintet>     0.156700757198
 !MCSCF expec      <4.1 Quintet|LZLZ|4.1 Quintet>     1.000000001987
 !MCSCF expec      <5.1 Quintet|LZLZ|5.1 Quintet>     0.999999995682
 !MCSCF expec      <6.1 Quintet|LZLZ|6.1 Quintet>     8.515176202472
 !MCSCF expec      <7.1 Quintet|LZLZ|7.1 Quintet>     8.993049914935
 !MCSCF expec      <8.1 Quintet|LZLZ|8.1 Quintet>     0.006435726488
 !MCSCF expec      <9.1 Quintet|LZLZ|9.1 Quintet>     1.006950092346
 !MCSCF expec    <10.1 Quintet|LZLZ|10.1 Quintet>     1.484822662886
 !MCSCF expec    <11.1 Quintet|LZLZ|11.1 Quintet>     3.993564144145
 !MCSCF expec    <12.1 Quintet|LZLZ|12.1 Quintet>     3.999999998415
 !MCSCF expec    <13.1 Quintet|LZLZ|13.1 Quintet>     0.000000000002
 !MCSCF expec    <14.1 Quintet|LZLZ|14.1 Quintet>     1.000000000000
 !MCSCF expec    <15.1 Quintet|LZLZ|15.1 Quintet>     0.999999999998
 !MCSCF expec      <1.1 Triplet|LZLZ|1.1 Triplet>    15.667973654644
 !MCSCF expec      <2.1 Triplet|LZLZ|2.1 Triplet>    15.793887476126
 !MCSCF expec      <3.1 Triplet|LZLZ|3.1 Triplet>     8.677607514338
 !MCSCF expec      <4.1 Triplet|LZLZ|4.1 Triplet>     9.067428305179
 !MCSCF expec      <5.1 Triplet|LZLZ|5.1 Triplet>     4.206101867665
 !MCSCF expec      <6.1 Triplet|LZLZ|6.1 Triplet>    24.394368997400
 !MCSCF expec      <7.1 Triplet|LZLZ|7.1 Triplet>    24.039397061306
 !MCSCF expec      <8.1 Triplet|LZLZ|8.1 Triplet>     3.806016649050
 !MCSCF expec      <9.1 Triplet|LZLZ|9.1 Triplet>     1.893165614398
 !MCSCF expec    <10.1 Triplet|LZLZ|10.1 Triplet>     1.928027847604
 !MCSCF expec    <11.1 Triplet|LZLZ|11.1 Triplet>     0.526006385615
 !MCSCF expec    <12.1 Triplet|LZLZ|12.1 Triplet>     0.999999999895
 !MCSCF expec    <13.1 Triplet|LZLZ|13.1 Triplet>     0.999999999751
 !MCSCF expec    <14.1 Triplet|LZLZ|14.1 Triplet>     0.000000000332
 !MCSCF expec    <15.1 Triplet|LZLZ|15.1 Triplet>     3.999999996520
 !MCSCF expec    <16.1 Triplet|LZLZ|16.1 Triplet>     3.975757508366
 !MCSCF expec    <17.1 Triplet|LZLZ|17.1 Triplet>     1.694979025550
 !MCSCF expec    <18.1 Triplet|LZLZ|18.1 Triplet>     1.001773190934
 !MCSCF expec    <19.1 Triplet|LZLZ|19.1 Triplet>     0.024241476702
 !MCSCF expec    <20.1 Triplet|LZLZ|20.1 Triplet>     8.998226952604
 !MCSCF expec    <21.1 Triplet|LZLZ|21.1 Triplet>     8.305019685877
 
 !MCSCF expec      <1.1 Quintet|L**2|1.1 Quintet>     6.000000000001
 !MCSCF expec      <2.1 Quintet|L**2|2.1 Quintet>     6.000000000001
 !MCSCF expec      <3.1 Quintet|L**2|3.1 Quintet>     6.000000000001
 !MCSCF expec      <4.1 Quintet|L**2|4.1 Quintet>     6.000000000001
 !MCSCF expec      <5.1 Quintet|L**2|5.1 Quintet>     6.000000000001
 !MCSCF expec      <6.1 Quintet|L**2|6.1 Quintet>    12.000000000000
 !MCSCF expec      <7.1 Quintet|L**2|7.1 Quintet>    12.000000000001
 !MCSCF expec      <8.1 Quintet|L**2|8.1 Quintet>    11.999999999999
 !MCSCF expec      <9.1 Quintet|L**2|9.1 Quintet>    11.999999999997
 !MCSCF expec    <10.1 Quintet|L**2|10.1 Quintet>    11.999999999997
 !MCSCF expec    <11.1 Quintet|L**2|11.1 Quintet>    12.000000000001
 !MCSCF expec    <12.1 Quintet|L**2|12.1 Quintet>    12.000000000001
 !MCSCF expec    <13.1 Quintet|L**2|13.1 Quintet>     2.000000000003
 !MCSCF expec    <14.1 Quintet|L**2|14.1 Quintet>     2.000000000005
 !MCSCF expec    <15.1 Quintet|L**2|15.1 Quintet>     2.000000000006
 !MCSCF expec      <1.1 Triplet|L**2|1.1 Triplet>    29.999999999997
 !MCSCF expec      <2.1 Triplet|L**2|2.1 Triplet>    30.000000000000
 !MCSCF expec      <3.1 Triplet|L**2|3.1 Triplet>    29.999999999993
 !MCSCF expec      <4.1 Triplet|L**2|4.1 Triplet>    29.999999999995
 !MCSCF expec      <5.1 Triplet|L**2|5.1 Triplet>    29.999999999999
 !MCSCF expec      <6.1 Triplet|L**2|6.1 Triplet>    29.999999999998
 !MCSCF expec      <7.1 Triplet|L**2|7.1 Triplet>    29.999999999999
 !MCSCF expec      <8.1 Triplet|L**2|8.1 Triplet>    29.999999999996
 !MCSCF expec      <9.1 Triplet|L**2|9.1 Triplet>    29.999999999982
 !MCSCF expec    <10.1 Triplet|L**2|10.1 Triplet>    29.999999999988
 !MCSCF expec    <11.1 Triplet|L**2|11.1 Triplet>    29.999999999977
 !MCSCF expec    <12.1 Triplet|L**2|12.1 Triplet>     2.000000000018
 !MCSCF expec    <13.1 Triplet|L**2|13.1 Triplet>     2.000000000028
 !MCSCF expec    <14.1 Triplet|L**2|14.1 Triplet>     2.000000000117
 !MCSCF expec    <15.1 Triplet|L**2|15.1 Triplet>    12.000000000002
[...]
  100    4.1  1.0  0.0   0.000%   0.000%   0.000%   0.000%   0.000%   0.000%   0.000%   0.000%   0.000%   0.000%
  101    5.1  1.0  0.0   0.000%   0.000%   0.000%   0.000%   0.000%   0.000%   0.000%   0.000%   0.000%   0.000%
  102    6.1  1.0  0.0   0.000%   0.000%   0.000%   0.000%   0.000%   0.000%   0.000%   0.000%   0.000%   0.000%
  103    7.1  1.0  0.0   0.000%   0.000%   0.000%   0.000%   0.000%   0.000%   0.000%   0.000%   0.000%   0.000%
  104    8.1  1.0  0.0   0.000%   0.000%   0.000%   0.000%   0.000%   0.000%   0.000%   0.000%   0.000%   0.000%
  105    9.1  1.0  0.0   0.000%   0.000%   0.000%   0.000%   0.000%   0.000%   0.000%   0.000%   0.000%   0.000%
  106   10.1  1.0  0.0   0.000%   0.000%   0.000%   0.000%   0.000%   0.000%   0.000%   0.000%   0.000%   0.000%
  107   11.1  1.0  0.0   0.000%   0.000%   0.000%   0.000%   0.000%   0.000%   0.000%   0.000%   0.000%   0.000%
  108   12.1  1.0  0.0   0.000%   0.000%   0.000%   0.000%   0.000%   0.000%   0.000%   0.000%   0.000%   0.000%
  109   13.1  1.0  0.0   0.000%   0.000%   0.000%   0.000%   0.000%   0.000%   0.000%   0.000%   0.000%   0.000%
  110   14.1  1.0  0.0   0.000%   0.000%   0.000%   0.000%   0.000%   0.000%   0.000%   0.000%   0.000%   0.000%
  111   15.1  1.0  0.0   0.000%   9.031%   0.000%  33.776%   0.000%   0.000%  33.315%   0.000%   0.000%   0.000%
  112   16.1  1.0  0.0   1.649%   0.000%   0.000%   0.000%   0.000%   5.346%   0.000%   0.000%   0.000%   0.000%
  113   17.1  1.0  0.0   0.000%   0.000%   0.000%   0.000%  37.286%   0.000%   0.000%   0.000%   7.549%   0.917%
  114   18.1  1.0  0.0   0.000%   0.000%  37.206%   0.000%   0.000%   0.000%   0.000%  11.457%   0.000%   0.000%
  115   19.1  1.0  0.0  29.168%   0.000%   0.000%   0.000%   0.000%  21.587%   0.000%   0.000%   0.000%   0.000%
  116   20.1  1.0  0.0   0.000%   0.000%   0.000%   0.000%   6.773%   0.000%   0.000%   0.000%  14.477%  60.362%
  117   21.1  1.0  0.0   0.000%   0.000%   3.867%   0.000%   0.000%   0.000%   0.000%  29.034%   0.000%   0.000%
  118    1.1  1.0 -1.0   0.000%   0.000%   0.000%   0.000%   0.000%   0.000%   0.000%   0.000%   0.000%   0.000%
  119    2.1  1.0 -1.0   0.000%   0.000%   0.000%   0.000%   0.000%   0.000%   0.000%   0.000%   0.000%   0.000%
  120    3.1  1.0 -1.0   0.000%   0.000%   0.000%   0.000%   0.000%   0.000%   0.000%   0.000%   0.000%   0.000%
  121    4.1  1.0 -1.0   0.000%   0.000%   0.000%   0.000%   0.000%   0.000%   0.000%   0.000%   0.000%   0.000%
  122    5.1  1.0 -1.0   0.000%   0.000%   0.000%   0.000%   0.000%   0.000%   0.000%   0.000%   0.000%   0.000%
  123    6.1  1.0 -1.0   0.000%   0.000%   0.000%   0.000%   0.000%   0.000%   0.000%   0.000%   0.000%   0.000%
  124    7.1  1.0 -1.0   0.000%   0.000%   0.000%   0.000%   0.000%   0.000%   0.000%   0.000%   0.000%   0.000%
  125    8.1  1.0 -1.0   0.000%   0.000%   0.000%   0.000%   0.000%   0.000%   0.000%   0.000%   0.000%   0.000%
  126    9.1  1.0 -1.0   0.000%   0.000%   0.000%   0.000%   0.000%   0.000%   0.000%   0.000%   0.000%   0.000%
  127   10.1  1.0 -1.0   0.000%   0.000%   0.000%   0.000%   0.000%   0.000%   0.000%   0.000%   0.000%   0.000%
  128   11.1  1.0 -1.0   0.000%   0.000%   0.000%   0.000%   0.000%   0.000%   0.000%   0.000%   0.000%   0.000%
  129   12.1  1.0 -1.0   0.000%   0.000%   0.000%   0.000%   0.000%   0.000%   0.000%   0.000%   0.000%   0.000%
  130   13.1  1.0 -1.0   0.000%   0.000%   0.000%   0.000%   0.000%   0.000%   0.000%   0.000%   0.000%   0.000%
  131   14.1  1.0 -1.0   0.000%   0.000%   0.000%   0.000%   0.000%   0.000%   0.000%   0.000%   0.000%   0.000%
  132   15.1  1.0 -1.0   0.000%   0.000%  16.686%   0.000%  14.652%   0.000%   0.000%   0.342%   3.037%  13.626%
  133   16.1  1.0 -1.0   0.000%   0.000%   5.923%   0.000%   0.025%   0.000%   0.000%  23.890%   6.927%   1.839%
  134   17.1  1.0 -1.0   4.451%   2.245%   0.000%  11.467%   0.000%   8.373%  10.362%   0.000%   0.000%   0.000%
  135   18.1  1.0 -1.0   2.881%   7.502%   0.000%   8.036%   0.000%   6.173%   6.113%   0.000%   0.000%   0.000%
  136   19.1  1.0 -1.0   0.000%   0.000%   6.793%   0.000%  13.233%   0.000%   0.000%   5.502%  29.003%   3.874%
  137   20.1  1.0 -1.0  11.909%  16.616%   0.000%   8.911%   0.000%  11.218%   6.996%   0.000%   0.000%   0.000%
  138   21.1  1.0 -1.0  15.289%  19.061%   0.000%   4.638%   0.000%  10.708%   9.851%   0.000%   0.000%   0.000%

   Nr   State  S   Sz     131      132      133      134      135      136      137      138

    1    1.1  2.0  2.0   0.000%   0.010%   0.000%   0.001%   0.000%   0.000%   0.000%   0.001%
    2    2.1  2.0  2.0   0.002%   0.000%   0.000%   0.000%   0.000%   0.001%   0.000%   0.000%
    3    3.1  2.0  2.0   0.002%   0.000%   0.000%   0.000%   0.000%   0.001%   0.000%   0.000%
    4    4.1  2.0  2.0   0.000%   0.000%   0.000%   0.000%   0.001%   0.000%   0.001%   0.000%
    5    5.1  2.0  2.0   0.000%   0.000%   0.008%   0.000%   0.001%   0.000%   0.001%   0.000%
    6    6.1  2.0  2.0   0.000%   0.000%   0.000%   0.000%   0.000%   0.000%   0.000%   0.000%
    7    7.1  2.0  2.0   0.000%   0.000%   0.000%   0.000%   0.000%   0.000%   0.000%   0.000%
    8    8.1  2.0  2.0   0.000%   0.000%   0.000%   0.000%   0.000%   0.000%   0.000%   0.000%
    9    9.1  2.0  2.0   0.000%   0.000%   0.000%   0.000%   0.000%   0.000%   0.000%   0.000%
   10   10.1  2.0  2.0   0.000%   0.000%   0.000%   0.000%   0.000%   0.000%   0.000%   0.000%
   11   11.1  2.0  2.0   0.000%   0.000%   0.000%   0.000%   0.000%   0.000%   0.000%   0.000%
   12   12.1  2.0  2.0   0.000%   0.000%   0.000%   0.000%   0.000%   0.000%   0.000%   0.000%
   13   13.1  2.0  2.0   0.000%   0.000%   0.000%   0.000%   0.000%   0.000%   0.000%   0.000%
   14   14.1  2.0  2.0   0.000%   0.000%   0.000%   0.000%   0.000%   0.000%   0.000%   0.000%
   15   15.1  2.0  2.0   0.000%   0.000%   0.000%   0.000%   0.000%   0.000%   0.000%   0.000%
   16    1.1  2.0  1.0   0.000%   0.000%   0.002%   0.000%   0.000%   0.000%   0.000%   0.000%
   17    2.1  2.0  1.0   0.000%   0.000%   0.008%   0.000%   0.001%   0.000%   0.001%   0.000%
   18    3.1  2.0  1.0   0.000%   0.000%   0.000%   0.000%   0.001%   0.000%   0.001%   0.000%
   19    4.1  2.0  1.0   0.008%   0.000%   0.000%   0.001%   0.000%   0.000%   0.000%   0.001%
   20    5.1  2.0  1.0   0.008%   0.000%   0.000%   0.001%   0.000%   0.000%   0.000%   0.001%
   21    6.1  2.0  1.0   0.000%   0.000%   0.000%   0.000%   0.000%   0.000%   0.000%   0.000%
   22    7.1  2.0  1.0   0.000%   0.000%   0.000%   0.000%   0.000%   0.000%   0.000%   0.000%
   23    8.1  2.0  1.0   0.000%   0.000%   0.000%   0.000%   0.000%   0.000%   0.000%   0.000%
   24    9.1  2.0  1.0   0.000%   0.000%   0.000%   0.000%   0.000%   0.000%   0.000%   0.000%
   25   10.1  2.0  1.0   0.000%   0.000%   0.000%   0.000%   0.000%   0.000%   0.000%   0.000%
   26   11.1  2.0  1.0   0.000%   0.000%   0.000%   0.000%   0.000%   0.000%   0.000%   0.000%
   27   12.1  2.0  1.0   0.000%   0.000%   0.000%   0.000%   0.000%   0.000%   0.000%   0.000%
   28   13.1  2.0  1.0   0.000%   0.000%   0.000%   0.000%   0.000%   0.000%   0.000%   0.000%
   29   14.1  2.0  1.0   0.000%   0.000%   0.000%   0.000%   0.000%   0.000%   0.000%   0.000%
   30   15.1  2.0  1.0   0.000%   0.000%   0.000%   0.000%   0.000%   0.000%   0.000%   0.000%
   31    1.1  2.0  0.0   0.000%   0.000%   0.000%   0.000%   0.000%   0.002%   0.000%   0.000%
   32    2.1  2.0  0.0   0.000%   0.021%   0.000%   0.000%   0.000%   0.000%   0.000%   0.002%
   33    3.1  2.0  0.0   0.000%   0.000%   0.000%   0.002%   0.000%   0.000%   0.000%   0.000%
   34    4.1  2.0  0.0   0.000%   0.000%   0.000%   0.000%   0.001%   0.000%   0.000%   0.000%
   35    5.1  2.0  0.0   0.000%   0.000%   0.004%   0.000%   0.000%   0.000%   0.001%   0.000%
   36    6.1  2.0  0.0   0.000%   0.000%   0.000%   0.000%   0.000%   0.000%   0.000%   0.000%
   37    7.1  2.0  0.0   0.000%   0.000%   0.000%   0.000%   0.000%   0.000%   0.000%   0.000%
   38    8.1  2.0  0.0   0.000%   0.000%   0.000%   0.000%   0.000%   0.000%   0.000%   0.000%
   39    9.1  2.0  0.0   0.000%   0.000%   0.000%   0.000%   0.000%   0.000%   0.000%   0.000%
   40   10.1  2.0  0.0   0.000%   0.000%   0.000%   0.000%   0.000%   0.000%   0.000%   0.000%
   41   11.1  2.0  0.0   0.000%   0.000%   0.000%   0.000%   0.000%   0.000%   0.000%   0.000%
   42   12.1  2.0  0.0   0.000%   0.000%   0.000%   0.000%   0.000%   0.000%   0.000%   0.000%
   43   13.1  2.0  0.0   0.000%   0.000%   0.000%   0.000%   0.000%   0.000%   0.000%   0.000%
   44   14.1  2.0  0.0   0.000%   0.000%   0.000%   0.000%   0.000%   0.000%   0.000%   0.000%
   45   15.1  2.0  0.0   0.000%   0.000%   0.000%   0.000%   0.000%   0.000%   0.000%   0.000%
   46    1.1  2.0 -1.0   0.000%   0.000%   0.002%   0.000%   0.000%   0.000%   0.000%   0.000%
   47    2.1  2.0 -1.0   0.000%   0.000%   0.008%   0.000%   0.001%   0.000%   0.001%   0.000%
   48    3.1  2.0 -1.0   0.000%   0.000%   0.000%   0.000%   0.001%   0.000%   0.001%   0.000%
   49    4.1  2.0 -1.0   0.008%   0.000%   0.000%   0.001%   0.000%   0.000%   0.000%   0.001%
   50    5.1  2.0 -1.0   0.008%   0.000%   0.000%   0.001%   0.000%   0.000%   0.000%   0.001%
   51    6.1  2.0 -1.0   0.000%   0.000%   0.000%   0.000%   0.000%   0.000%   0.000%   0.000%
   52    7.1  2.0 -1.0   0.000%   0.000%   0.000%   0.000%   0.000%   0.000%   0.000%   0.000%
   53    8.1  2.0 -1.0   0.000%   0.000%   0.000%   0.000%   0.000%   0.000%   0.000%   0.000%
   54    9.1  2.0 -1.0   0.000%   0.000%   0.000%   0.000%   0.000%   0.000%   0.000%   0.000%
   55   10.1  2.0 -1.0   0.000%   0.000%   0.000%   0.000%   0.000%   0.000%   0.000%   0.000%
   56   11.1  2.0 -1.0   0.000%   0.000%   0.000%   0.000%   0.000%   0.000%   0.000%   0.000%
   57   12.1  2.0 -1.0   0.000%   0.000%   0.000%   0.000%   0.000%   0.000%   0.000%   0.000%
   58   13.1  2.0 -1.0   0.000%   0.000%   0.000%   0.000%   0.000%   0.000%   0.000%   0.000%
   59   14.1  2.0 -1.0   0.000%   0.000%   0.000%   0.000%   0.000%   0.000%   0.000%   0.000%
   60   15.1  2.0 -1.0   0.000%   0.000%   0.000%   0.000%   0.000%   0.000%   0.000%   0.000%
   61    1.1  2.0 -2.0   0.000%   0.010%   0.000%   0.001%   0.000%   0.000%   0.000%   0.001%
   62    2.1  2.0 -2.0   0.002%   0.000%   0.000%   0.000%   0.000%   0.001%   0.000%   0.000%
   63    3.1  2.0 -2.0   0.002%   0.000%   0.000%   0.000%   0.000%   0.001%   0.000%   0.000%
   64    4.1  2.0 -2.0   0.000%   0.000%   0.000%   0.000%   0.001%   0.000%   0.001%   0.000%
   65    5.1  2.0 -2.0   0.000%   0.000%   0.008%   0.000%   0.001%   0.000%   0.001%   0.000%
   66    6.1  2.0 -2.0   0.000%   0.000%   0.000%   0.000%   0.000%   0.000%   0.000%   0.000%
   67    7.1  2.0 -2.0   0.000%   0.000%   0.000%   0.000%   0.000%   0.000%   0.000%   0.000%
   68    8.1  2.0 -2.0   0.000%   0.000%   0.000%   0.000%   0.000%   0.000%   0.000%   0.000%
   69    9.1  2.0 -2.0   0.000%   0.000%   0.000%   0.000%   0.000%   0.000%   0.000%   0.000%
   70   10.1  2.0 -2.0   0.000%   0.000%   0.000%   0.000%   0.000%   0.000%   0.000%   0.000%
   71   11.1  2.0 -2.0   0.000%   0.000%   0.000%   0.000%   0.000%   0.000%   0.000%   0.000%
   72   12.1  2.0 -2.0   0.000%   0.000%   0.000%   0.000%   0.000%   0.000%   0.000%   0.000%
   73   13.1  2.0 -2.0   0.000%   0.000%   0.000%   0.000%   0.000%   0.000%   0.000%   0.000%
   74   14.1  2.0 -2.0   0.000%   0.000%   0.000%   0.000%   0.000%   0.000%   0.000%   0.000%
   75   15.1  2.0 -2.0   0.000%   0.000%   0.000%   0.000%   0.000%   0.000%   0.000%   0.000%
   76    1.1  1.0  1.0   0.000%   0.000%   0.000%   0.000%   0.000%   0.000%   0.000%   0.000%
   77    2.1  1.0  1.0   0.000%   0.000%   0.000%   0.000%   0.000%   0.000%   0.000%   0.000%
   78    3.1  1.0  1.0   0.000%   0.000%   0.000%   0.000%   0.000%   0.000%   0.000%   0.000%
   79    4.1  1.0  1.0   0.000%   0.000%   0.000%   0.000%   0.000%   0.000%   0.000%   0.000%
   80    5.1  1.0  1.0   0.000%   0.000%   0.000%   0.000%   0.000%   0.000%   0.000%   0.000%
   81    6.1  1.0  1.0   0.000%   0.000%   0.000%   0.000%   0.000%   0.000%   0.000%   0.000%
   82    7.1  1.0  1.0   0.000%   0.000%   0.000%   0.000%   0.000%   0.000%   0.000%   0.000%
   83    8.1  1.0  1.0   0.000%   0.000%   0.000%   0.000%   0.000%   0.000%   0.000%   0.000%
   84    9.1  1.0  1.0   0.000%   0.000%   0.000%   0.000%   0.000%   0.000%   0.000%   0.000%
   85   10.1  1.0  1.0   0.000%   0.000%   0.000%   0.000%   0.000%   0.000%   0.000%   0.000%
   86   11.1  1.0  1.0   0.000%   0.000%   0.000%   0.000%   0.000%   0.000%   0.000%   0.000%
   87   12.1  1.0  1.0   0.000%   0.000%   0.000%   0.000%   0.000%   0.000%   0.000%   0.000%
   88   13.1  1.0  1.0   0.000%   0.000%   0.000%   0.000%   0.000%   0.000%   0.000%   0.000%
   89   14.1  1.0  1.0   0.000%   0.000%   0.000%   0.000%   0.000%   0.000%   0.000%   0.000%
   90   15.1  1.0  1.0   0.000%   0.000%  16.323%   0.000%  11.896%   0.000%  11.892%   0.000%
   91   16.1  1.0  1.0   0.000%   0.000%   1.904%   0.000%  16.422%   0.000%   6.686%   0.000%
   92   17.1  1.0  1.0  24.262%  11.132%   0.000%   1.633%   0.000%  14.661%   0.000%   0.403%
   93   18.1  1.0  1.0  24.242%  13.752%   0.000%   4.077%   0.000%  13.436%   0.000%   0.134%
   94   19.1  1.0  1.0   0.000%   0.000%  10.348%   0.000%   2.633%   0.000%  12.368%   0.000%
   95   20.1  1.0  1.0   0.028%   5.538%   0.000%  17.414%   0.000%   0.221%   0.000%  18.039%
   96   21.1  1.0  1.0   1.440%   2.909%   0.000%  14.974%   0.000%   0.300%   0.000%  19.462%
   97    1.1  1.0  0.0   0.000%   0.000%   0.000%   0.000%   0.000%   0.000%   0.000%   0.000%
   98    2.1  1.0  0.0   0.000%   0.000%   0.000%   0.000%   0.000%   0.000%   0.000%   0.000%
   99    3.1  1.0  0.0   0.000%   0.000%   0.000%   0.000%   0.000%   0.000%   0.000%   0.000%
  100    4.1  1.0  0.0   0.000%   0.000%   0.000%   0.000%   0.000%   0.000%   0.000%   0.000%
  101    5.1  1.0  0.0   0.000%   0.000%   0.000%   0.000%   0.000%   0.000%   0.000%   0.000%
  102    6.1  1.0  0.0   0.000%   0.000%   0.000%   0.000%   0.000%   0.000%   0.000%   0.000%
  103    7.1  1.0  0.0   0.000%   0.000%   0.000%   0.000%   0.000%   0.000%   0.000%   0.000%
  104    8.1  1.0  0.0   0.000%   0.000%   0.000%   0.000%   0.000%   0.000%   0.000%   0.000%
  105    9.1  1.0  0.0   0.000%   0.000%   0.000%   0.000%   0.000%   0.000%   0.000%   0.000%
  106   10.1  1.0  0.0   0.000%   0.000%   0.000%   0.000%   0.000%   0.000%   0.000%   0.000%
  107   11.1  1.0  0.0   0.000%   0.000%   0.000%   0.000%   0.000%   0.000%   0.000%   0.000%
  108   12.1  1.0  0.0   0.000%   0.000%   0.000%   0.000%   0.000%   0.000%   0.000%   0.000%
  109   13.1  1.0  0.0   0.000%   0.000%   0.000%   0.000%   0.000%   0.000%   0.000%   0.000%
  110   14.1  1.0  0.0   0.000%   0.000%   0.000%   0.000%   0.000%   0.000%   0.000%   0.000%
  111   15.1  1.0  0.0   0.015%   0.000%   0.000%  23.794%   0.000%   0.000%   0.000%   0.000%
  112   16.1  1.0  0.0   0.000%  30.796%   0.000%   0.000%   0.000%   4.492%   0.000%  20.757%
  113   17.1  1.0  0.0   0.000%   0.000%   0.000%   0.000%  38.011%   0.000%   0.000%   0.000%
  114   18.1  1.0  0.0   0.000%   0.000%   0.293%   0.000%   0.000%   0.000%  36.142%   0.000%
  115   19.1  1.0  0.0   0.000%   2.502%   0.000%   0.000%   0.000%  38.262%   0.000%   3.159%
  116   20.1  1.0  0.0   0.000%   0.000%   0.000%   0.000%   0.079%   0.000%   0.000%   0.000%
  117   21.1  1.0  0.0   0.000%   0.000%  42.518%   0.000%   0.000%   0.000%   1.957%   0.000%
  118    1.1  1.0 -1.0   0.000%   0.000%   0.000%   0.000%   0.000%   0.000%   0.000%   0.000%
  119    2.1  1.0 -1.0   0.000%   0.000%   0.000%   0.000%   0.000%   0.000%   0.000%   0.000%
  120    3.1  1.0 -1.0   0.000%   0.000%   0.000%   0.000%   0.000%   0.000%   0.000%   0.000%
  121    4.1  1.0 -1.0   0.000%   0.000%   0.000%   0.000%   0.000%   0.000%   0.000%   0.000%
  122    5.1  1.0 -1.0   0.000%   0.000%   0.000%   0.000%   0.000%   0.000%   0.000%   0.000%
  123    6.1  1.0 -1.0   0.000%   0.000%   0.000%   0.000%   0.000%   0.000%   0.000%   0.000%
  124    7.1  1.0 -1.0   0.000%   0.000%   0.000%   0.000%   0.000%   0.000%   0.000%   0.000%
  125    8.1  1.0 -1.0   0.000%   0.000%   0.000%   0.000%   0.000%   0.000%   0.000%   0.000%
  126    9.1  1.0 -1.0   0.000%   0.000%   0.000%   0.000%   0.000%   0.000%   0.000%   0.000%
  127   10.1  1.0 -1.0   0.000%   0.000%   0.000%   0.000%   0.000%   0.000%   0.000%   0.000%
  128   11.1  1.0 -1.0   0.000%   0.000%   0.000%   0.000%   0.000%   0.000%   0.000%   0.000%
  129   12.1  1.0 -1.0   0.000%   0.000%   0.000%   0.000%   0.000%   0.000%   0.000%   0.000%
  130   13.1  1.0 -1.0   0.000%   0.000%   0.000%   0.000%   0.000%   0.000%   0.000%   0.000%
  131   14.1  1.0 -1.0   0.000%   0.000%   0.000%   0.000%   0.000%   0.000%   0.000%   0.000%
  132   15.1  1.0 -1.0   0.000%   0.000%  16.323%   0.000%  11.896%   0.000%  11.892%   0.000%
  133   16.1  1.0 -1.0   0.000%   0.000%   1.904%   0.000%  16.422%   0.000%   6.686%   0.000%
  134   17.1  1.0 -1.0  24.262%  11.132%   0.000%   1.633%   0.000%  14.661%   0.000%   0.403%
  135   18.1  1.0 -1.0  24.242%  13.752%   0.000%   4.077%   0.000%  13.436%   0.000%   0.134%
  136   19.1  1.0 -1.0   0.000%   0.000%  10.348%   0.000%   2.633%   0.000%  12.368%   0.000%
  137   20.1  1.0 -1.0   0.028%   5.538%   0.000%  17.414%   0.000%   0.221%   0.000%  18.039%
  138   21.1  1.0 -1.0   1.440%   2.909%   0.000%  14.974%   0.000%   0.300%   0.000%  19.462%


 Property matrices transformed in SO basis (not sym. adapted)
 ============================================================

 No matrix element <i|DMX|i> larger than 1E-10
 No matrix element <i|DMX|1> larger than 1E-10

 No matrix element <i|DMY|i> larger than 1E-10
 No matrix element <i|DMY|1> larger than 1E-10

 No matrix element <i|DMZ|i> larger than 1E-10
 No matrix element <i|DMZ|1> larger than 1E-10


 **********************************************************************************************************************************
 DATASETS  * FILE   NREC   LENGTH (MB)   RECORD NAMES
              1      24      163.76       500      610      700      900      950      970     1000      129      960     1700   
                                          VAR    BASINP    GEOM    SYMINP    ZMAT    AOBASIS   BASIS     P2S    ABASIS    OPER   
                                         1101     1401     1411     1412     1650     1100     1400     1410     1200     1210   
                                          SR      EKINR    POTR     PVPR    MOLCAS      S      EKIN      POT      H0       H01  
                                         1080     1600     1380     1700(1)
                                         AOSYM     SMH     JKOP     OPER   

              2       7     2094.38       700     1000      520     2100     2140     5101     5102   
                                         GEOM     BASIS   MCVARS     RHF     MCSCF    MRCI     MRCI   

 PROGRAMS   *        TOTAL        CI        CI        CI     MULTI   RHF-SCF       INT
 CPU TIMES  *    105646.66  90500.20  12188.25   2954.35      1.98      0.44      1.25
 REAL TIME  *    107377.35 SEC
 DISK USED  *         2.08 GB (local),        6.51 GB (total)
 SF USED    *        13.88 GB
 GA USED    *         0.00 MB       (max)       0.00 MB       (current)
 **********************************************************************************************************************************

 CI/cc-pWCVTZ-DK energy=  -1272.084515027173

              CI              CI           MULTI         RHF-SCF
  -1272.02396298  -1272.00865400  -1271.23263078  -1271.21844321
 **********************************************************************************************************************************
 Molpro calculation terminated
