
 Working directory              : /scratch/irikura/molpro.idxMecowEU/
 Global scratch directory       : /scratch/irikura/molpro.idxMecowEU/
 Wavefunction directory         : /home/irikura/wfu/
 Main file repository           : /scratch/irikura/molpro.idxMecowEU/

 id        : nistki

 Nodes     nprocs
 n1275.becn    3
 Distribution of processes:   nprocs(total)=    4   nprocs(compute)=    3   nprocs(helper)=    1
 GA implementation: MPI file
 GA implementation (serial work in mppx): MPI file

 Using customized tuning parameters: mindgm=1; mindgv=20; mindgc=4; mindgr=1; noblas=0; minvec=7
 default implementation of scratch files=sf  


 Variables initialized (1013), CPU time= 0.01 sec
 ***,Fe atom SOC with terms up to 10,000 cm-1
                                                                                 ! 5D, 5F, 3F, 5P
                                                                                 ! Use +Dav energies in SO-CI
 memory,3000,M;
 
 gprint,orbitals,civector,basis;
 
 symmetry,xyz
 geometry={Fe}
 
 basis=cc-pwCVTZ-DK
 core
 
 set,dkho=101
 
                                                                                 ! initial orbitals
 {rhf;wf,sym=1, spin=4}
 
                                                                                 ! state-averaged casscf
 {multi
                                                                                 ! 15 quintets
     wf,sym=1,spin=4;state,15;
                                                                                 !  7 triplets
     wf,sym=1,spin=2;state,7;
     expec2,lxx,lyy,lzz;
  }
 table, energy, ll
 title, Energies and &lt;L**2&gt; values
 
 {ci;wf,sym=1,spin=4;state,15;save,5101.2}
 hlsdiag = energd4
 {ci;wf,sym=1,spin=2;state,7;save,5102.2}
 hlsdiag(16) = energd4
 
 table, hlsdiag
 
                                                                                 !compute and diagonalize SO matrix
 {ci;hlsmat,ls,5101.2,5102.2;print,vls=0,hls=0}
 
 Commands initialized (815), CPU time= 0.01 sec, 669 directives.
 Default parameters read. Elapsed time= 0.15 sec

 Checking input...
 Passed
1


                                         ***  PROGRAM SYSTEM MOLPRO  ***
                                       Copyright, TTI GmbH Stuttgart, 2015
                                    Version 2021.3 linked Nov 22 2021 23:03:20


 **********************************************************************************************************************************
 LABEL *   Fe atom SOC with terms up to 10,000 cm-1                                      
  64 bit mpp version                                                                     DATE: 20-Aug-22          TIME: 10:13:05  
 **********************************************************************************************************************************

 SHA1:             8b8f1fffdd8ed686b3bdbdb000c23abeeca3c440
 **********************************************************************************************************************************

 Memory per process:      3000 MW
 Total memory per node:   9000 MW

 GA preallocation disabled
 GA check disabled

 Variable memory set to 3000.0 MW


 ZSYMEL=XYZ

 SETTING BASIS          =    CC-PWCVTZ-DK
 SETTING DKHO           =       101.00000000                                  


 Recomputing integrals since basis changed


 Using spherical harmonics

 Library entry FE     S cc-pwCVTZ-DK         selected for orbital group  1
 Library entry FE     P cc-pwCVTZ-DK         selected for orbital group  1
 Library entry FE     D cc-pwCVTZ-DK         selected for orbital group  1
 Library entry FE     F cc-pwCVTZ-DK         selected for orbital group  1
 Library entry FE     G cc-pwCVTZ-DK         selected for orbital group  1


 PROGRAM * SEWARD (Integral evaluation for generally contracted gaussian basis sets)     Author: Roland Lindh, 1990

 Geometry written to block  1 of record 700

 Orientation using atomic masses  
 Molecule type: Atom
 User-specified symmetry elements: XYZ
 Symmetry elements: XYZ
 Rotational constants:       0.0000000      0.0000000      0.0000000 GHz  (calculated with average atomic masses)

 Point group  Ci  



 ATOMIC COORDINATES

 NR  ATOM    CHARGE       X              Y              Z

   1  FE     26.00    0.000000000    0.000000000    0.000000000


 BASIS DATA

   Nr Sym  Nuc  Type         Exponents   Contraction coefficients

    1.1 Ag    1  1s     4316265.000000     0.000140   -0.000072    0.000017   -0.000004   -0.000007   -0.000012
                                           0.000000
    2.1 Ag               646342.400000     0.000405   -0.000209    0.000049   -0.000011   -0.000021   -0.000036
                                           0.000000
    3.1 Ag               147089.700000     0.001119   -0.000579    0.000135   -0.000029   -0.000058   -0.000099
                                           0.000000
    4.1 Ag                41661.520000     0.002907   -0.001506    0.000352   -0.000077   -0.000155   -0.000263
                                           0.000000
    5.1 Ag                13590.770000     0.007571   -0.003939    0.000923   -0.000201   -0.000393   -0.000664
                                           0.000000
    6.1 Ag                 4905.750000     0.019818   -0.010396    0.002452   -0.000535   -0.001101   -0.001869
                                           0.000000
    7.1 Ag                 1912.746000     0.050734   -0.027074    0.006451   -0.001408   -0.002693   -0.004542
                                           0.000000
                            792.604300     0.118729   -0.065777    0.016106   -0.003518   -0.007404   -0.012601
                                           0.000000
                            344.806500     0.231164   -0.139082    0.035742   -0.007814   -0.014484   -0.024423
                                           0.000000
                            155.899900     0.319322   -0.230150    0.065528   -0.014372   -0.031853   -0.054652
                                           0.000000
                             72.230910     0.233648   -0.229663    0.074430   -0.016383   -0.025352   -0.042541
                                           0.000000
                             32.725060     0.074022    0.046091   -0.025711    0.005643   -0.007887   -0.015989
                                           0.000000
                             15.667620     0.090952    0.515051   -0.308645    0.071221    0.191470    0.345964
                                           0.000000
                              7.503483     0.088898    0.487175   -0.446544    0.107800    0.148242    0.320641
                                           0.000000
                              3.312223     0.014302    0.084380    0.148985   -0.044262    0.050761   -0.202125
                                           0.000000
                              1.558471    -0.000387   -0.005911    0.720395   -0.225999   -1.012246   -2.160673
                                           0.000000
                              0.683914     0.000008   -0.000044    0.389698   -0.237628    0.342339    2.627486
                                           0.000000
                              0.146757    -0.000025   -0.000487    0.019184    0.297780    1.857266   -0.475452
                                           0.000000
                              0.070583     0.000032    0.000437   -0.007023    0.565497   -1.063679   -1.566613
                                           0.000000
                              0.031449    -0.000001   -0.000086    0.003124    0.287937   -0.616873    1.512776
                                           1.000000
    8.1 Ag    1  1s           4.684400     1.000000
    9.1 Ag    1  1s           1.220400     1.000000
   10.1 Ag    1  3d0        114.884000     0.003532
                             33.887800     0.025550
                             12.373000     0.098357
                              4.999250     0.237919
                              2.070430     0.356539
                              0.828183     0.362848
                              0.307547     0.238803
                              0.099455     0.061904
   11.1 Ag    1  3d2-       114.884000     0.003532
                             33.887800     0.025550
                             12.373000     0.098357
                              4.999250     0.237919
                              2.070430     0.356539
                              0.828183     0.362848
                              0.307547     0.238803
                              0.099455     0.061904
   12.1 Ag    1  3d1+       114.884000     0.003532
                             33.887800     0.025550
                             12.373000     0.098357
                              4.999250     0.237919
                              2.070430     0.356539
                              0.828183     0.362848
                              0.307547     0.238803
                              0.099455     0.061904
   13.1 Ag    1  3d2+       114.884000     0.003532
                             33.887800     0.025550
                             12.373000     0.098357
                              4.999250     0.237919
                              2.070430     0.356539
                              0.828183     0.362848
                              0.307547     0.238803
                              0.099455     0.061904
   14.1 Ag    1  3d1-       114.884000     0.003532
                             33.887800     0.025550
                             12.373000     0.098357
                              4.999250     0.237919
                              2.070430     0.356539
                              0.828183     0.362848
                              0.307547     0.238803
                              0.099455     0.061904
   15.1 Ag    1  3d0        114.884000    -0.003896
                             33.887800    -0.028207
                             12.373000    -0.111573
                              4.999250    -0.272839
                              2.070430    -0.317152
                              0.828183     0.052062
                              0.307547     0.561269
                              0.099455     0.389155
   16.1 Ag    1  3d2-       114.884000    -0.003896
                             33.887800    -0.028207
                             12.373000    -0.111573
                              4.999250    -0.272839
                              2.070430    -0.317152
                              0.828183     0.052062
                              0.307547     0.561269
                              0.099455     0.389155
   17.1 Ag    1  3d1+       114.884000    -0.003896
                             33.887800    -0.028207
                             12.373000    -0.111573
                              4.999250    -0.272839
                              2.070430    -0.317152
                              0.828183     0.052062
                              0.307547     0.561269
                              0.099455     0.389155
   18.1 Ag    1  3d2+       114.884000    -0.003896
                             33.887800    -0.028207
                             12.373000    -0.111573
                              4.999250    -0.272839
                              2.070430    -0.317152
                              0.828183     0.052062
                              0.307547     0.561269
                              0.099455     0.389155
   19.1 Ag    1  3d1-       114.884000    -0.003896
                             33.887800    -0.028207
                             12.373000    -0.111573
                              4.999250    -0.272839
                              2.070430    -0.317152
                              0.828183     0.052062
                              0.307547     0.561269
                              0.099455     0.389155
   20.1 Ag    1  3d0        114.884000     0.005703
                             33.887800     0.041691
                             12.373000     0.172043
                              4.999250     0.408607
                              2.070430     0.119525
                              0.828183    -0.766038
                              0.307547    -0.043081
                              0.099455     0.716935
   21.1 Ag    1  3d2-       114.884000     0.005703
                             33.887800     0.041691
                             12.373000     0.172043
                              4.999250     0.408607
                              2.070430     0.119525
                              0.828183    -0.766038
                              0.307547    -0.043081
                              0.099455     0.716935
   22.1 Ag    1  3d1+       114.884000     0.005703
                             33.887800     0.041691
                             12.373000     0.172043
                              4.999250     0.408607
                              2.070430     0.119525
                              0.828183    -0.766038
                              0.307547    -0.043081
                              0.099455     0.716935
   23.1 Ag    1  3d2+       114.884000     0.005703
                             33.887800     0.041691
                             12.373000     0.172043
                              4.999250     0.408607
                              2.070430     0.119525
                              0.828183    -0.766038
                              0.307547    -0.043081
                              0.099455     0.716935
   24.1 Ag    1  3d1-       114.884000     0.005703
                             33.887800     0.041691
                             12.373000     0.172043
                              4.999250     0.408607
                              2.070430     0.119525
                              0.828183    -0.766038
                              0.307547    -0.043081
                              0.099455     0.716935
   25.1 Ag    1  3d0        114.884000     0.000000
                             33.887800     0.000000
                             12.373000     0.000000
                              4.999250     0.000000
                              2.070430     0.000000
                              0.828183     0.000000
                              0.307547     0.000000
                              0.099455     1.000000
   26.1 Ag    1  3d2-       114.884000     0.000000
                             33.887800     0.000000
                             12.373000     0.000000
                              4.999250     0.000000
                              2.070430     0.000000
                              0.828183     0.000000
                              0.307547     0.000000
                              0.099455     1.000000
   27.1 Ag    1  3d1+       114.884000     0.000000
                             33.887800     0.000000
                             12.373000     0.000000
                              4.999250     0.000000
                              2.070430     0.000000
                              0.828183     0.000000
                              0.307547     0.000000
                              0.099455     1.000000
   28.1 Ag    1  3d2+       114.884000     0.000000
                             33.887800     0.000000
                             12.373000     0.000000
                              4.999250     0.000000
                              2.070430     0.000000
                              0.828183     0.000000
                              0.307547     0.000000
                              0.099455     1.000000
   29.1 Ag    1  3d1-       114.884000     0.000000
                             33.887800     0.000000
                             12.373000     0.000000
                              4.999250     0.000000
                              2.070430     0.000000
                              0.828183     0.000000
                              0.307547     0.000000
                              0.099455     1.000000
   30.1 Ag    1  3d0          4.530500     1.000000
   31.1 Ag    1  3d2-         4.530500     1.000000
   32.1 Ag    1  3d1+         4.530500     1.000000
   33.1 Ag    1  3d2+         4.530500     1.000000
   34.1 Ag    1  3d1-         4.530500     1.000000
   35.1 Ag    1  3d0          2.120500     1.000000
   36.1 Ag    1  3d2-         2.120500     1.000000
   37.1 Ag    1  3d1+         2.120500     1.000000
   38.1 Ag    1  3d2+         2.120500     1.000000
   39.1 Ag    1  3d1-         2.120500     1.000000
   40.1 Ag    1  5g0          5.506800     1.000000
   41.1 Ag    1  5g2-         5.506800     1.000000
   42.1 Ag    1  5g1+         5.506800     1.000000
   43.1 Ag    1  5g4+         5.506800     1.000000
   44.1 Ag    1  5g1-         5.506800     1.000000
   45.1 Ag    1  5g2+         5.506800     1.000000
   46.1 Ag    1  5g4-         5.506800     1.000000
   47.1 Ag    1  5g3+         5.506800     1.000000
   48.1 Ag    1  5g3-         5.506800     1.000000
   49.1 Ag    1  5g0          2.051500     1.000000
   50.1 Ag    1  5g2-         2.051500     1.000000
   51.1 Ag    1  5g1+         2.051500     1.000000
   52.1 Ag    1  5g4+         2.051500     1.000000
   53.1 Ag    1  5g1-         2.051500     1.000000
   54.1 Ag    1  5g2+         2.051500     1.000000
   55.1 Ag    1  5g4-         2.051500     1.000000
   56.1 Ag    1  5g3+         2.051500     1.000000
   57.1 Ag    1  5g3-         2.051500     1.000000
    1.2 Au    1  2px      17745.690000     0.000123
                           4200.721000     0.000566
                           1364.429000     0.002608
                            522.080600     0.010295
                            221.459500     0.034751
                            100.909600     0.096690
                             48.401150     0.210030
                             23.985360     0.332457
                             12.182500     0.330771
                              6.242298     0.154733
                              3.110944     0.020964
                              1.509958    -0.002346
                              0.710845    -0.001854
                              0.272598    -0.000317
                              0.103972     0.000030
                              0.038166    -0.000012
    2.2 Au    1  2py      17745.690000     0.000123
                           4200.721000     0.000566
                           1364.429000     0.002608
                            522.080600     0.010295
                            221.459500     0.034751
                            100.909600     0.096690
                             48.401150     0.210030
                             23.985360     0.332457
                             12.182500     0.330771
                              6.242298     0.154733
                              3.110944     0.020964
                              1.509958    -0.002346
                              0.710845    -0.001854
                              0.272598    -0.000317
                              0.103972     0.000030
                              0.038166    -0.000012
    3.2 Au    1  2pz      17745.690000     0.000123
                           4200.721000     0.000566
                           1364.429000     0.002608
                            522.080600     0.010295
                            221.459500     0.034751
                            100.909600     0.096690
                             48.401150     0.210030
                             23.985360     0.332457
                             12.182500     0.330771
                              6.242298     0.154733
                              3.110944     0.020964
                              1.509958    -0.002346
                              0.710845    -0.001854
                              0.272598    -0.000317
                              0.103972     0.000030
                              0.038166    -0.000012
    4.2 Au    1  2px      17745.690000    -0.000043
                           4200.721000    -0.000200
                           1364.429000    -0.000923
                            522.080600    -0.003668
                            221.459500    -0.012539
                            100.909600    -0.035848
                             48.401150    -0.080822
                             23.985360    -0.134697
                             12.182500    -0.136912
                              6.242298     0.033713
                              3.110944     0.335670
                              1.509958     0.455496
                              0.710845     0.281760
                              0.272598     0.045150
                              0.103972    -0.003165
                              0.038166     0.001331
    5.2 Au    1  2py      17745.690000    -0.000043
                           4200.721000    -0.000200
                           1364.429000    -0.000923
                            522.080600    -0.003668
                            221.459500    -0.012539
                            100.909600    -0.035848
                             48.401150    -0.080822
                             23.985360    -0.134697
                             12.182500    -0.136912
                              6.242298     0.033713
                              3.110944     0.335670
                              1.509958     0.455496
                              0.710845     0.281760
                              0.272598     0.045150
                              0.103972    -0.003165
                              0.038166     0.001331
    6.2 Au    1  2pz      17745.690000    -0.000043
                           4200.721000    -0.000200
                           1364.429000    -0.000923
                            522.080600    -0.003668
                            221.459500    -0.012539
                            100.909600    -0.035848
                             48.401150    -0.080822
                             23.985360    -0.134697
                             12.182500    -0.136912
                              6.242298     0.033713
                              3.110944     0.335670
                              1.509958     0.455496
                              0.710845     0.281760
                              0.272598     0.045150
                              0.103972    -0.003165
                              0.038166     0.001331
    7.2 Au    1  2px      17745.690000     0.000009
                           4200.721000     0.000044
                           1364.429000     0.000201
                            522.080600     0.000800
                            221.459500     0.002738
                            100.909600     0.007848
                             48.401150     0.017739
                             23.985360     0.029749
                             12.182500     0.030389
                              6.242298    -0.010765
                              3.110944    -0.087689
                              1.509958    -0.128470
                              0.710845    -0.073996
                              0.272598     0.215455
                              0.103972     0.572005
                              0.038166     0.368079
    8.2 Au    1  2py      17745.690000     0.000009
                           4200.721000     0.000044
                           1364.429000     0.000201
                            522.080600     0.000800
                            221.459500     0.002738
                            100.909600     0.007848
                             48.401150     0.017739
                             23.985360     0.029749
                             12.182500     0.030389
                              6.242298    -0.010765
                              3.110944    -0.087689
                              1.509958    -0.128470
                              0.710845    -0.073996
                              0.272598     0.215455
                              0.103972     0.572005
                              0.038166     0.368079
    9.2 Au    1  2pz      17745.690000     0.000009
                           4200.721000     0.000044
                           1364.429000     0.000201
                            522.080600     0.000800
                            221.459500     0.002738
                            100.909600     0.007848
                             48.401150     0.017739
                             23.985360     0.029749
                             12.182500     0.030389
                              6.242298    -0.010765
                              3.110944    -0.087689
                              1.509958    -0.128470
                              0.710845    -0.073996
                              0.272598     0.215455
                              0.103972     0.572005
                              0.038166     0.368079
   10.2 Au    1  2px      17745.690000     0.000014
                           4200.721000     0.000066
                           1364.429000     0.000303
                            522.080600     0.001219
                            221.459500     0.004120
                            100.909600     0.011953
                             48.401150     0.026620
                             23.985360     0.045699
                             12.182500     0.045033
                              6.242298    -0.013011
                              3.110944    -0.141375
                              1.509958    -0.194148
                              0.710845    -0.101770
                              0.272598     0.467864
                              0.103972     0.624218
                              0.038166     0.056225
   11.2 Au    1  2py      17745.690000     0.000014
                           4200.721000     0.000066
                           1364.429000     0.000303
                            522.080600     0.001219
                            221.459500     0.004120
                            100.909600     0.011953
                             48.401150     0.026620
                             23.985360     0.045699
                             12.182500     0.045033
                              6.242298    -0.013011
                              3.110944    -0.141375
                              1.509958    -0.194148
                              0.710845    -0.101770
                              0.272598     0.467864
                              0.103972     0.624218
                              0.038166     0.056225
   12.2 Au    1  2pz      17745.690000     0.000014
                           4200.721000     0.000066
                           1364.429000     0.000303
                            522.080600     0.001219
                            221.459500     0.004120
                            100.909600     0.011953
                             48.401150     0.026620
                             23.985360     0.045699
                             12.182500     0.045033
                              6.242298    -0.013011
                              3.110944    -0.141375
                              1.509958    -0.194148
                              0.710845    -0.101770
                              0.272598     0.467864
                              0.103972     0.624218
                              0.038166     0.056225
   13.2 Au    1  2px      17745.690000     0.000030
                           4200.721000     0.000134
                           1364.429000     0.000659
                            522.080600     0.002447
                            221.459500     0.009014
                            100.909600     0.023823
                             48.401150     0.059364
                             23.985360     0.087580
                             12.182500     0.122286
                              6.242298    -0.068112
                              3.110944    -0.351907
                              1.509958    -0.623706
                              0.710845     0.841448
                              0.272598     0.792070
                              0.103972    -0.917510
                              0.038166    -0.122615
   14.2 Au    1  2py      17745.690000     0.000030
                           4200.721000     0.000134
                           1364.429000     0.000659
                            522.080600     0.002447
                            221.459500     0.009014
                            100.909600     0.023823
                             48.401150     0.059364
                             23.985360     0.087580
                             12.182500     0.122286
                              6.242298    -0.068112
                              3.110944    -0.351907
                              1.509958    -0.623706
                              0.710845     0.841448
                              0.272598     0.792070
                              0.103972    -0.917510
                              0.038166    -0.122615
   15.2 Au    1  2pz      17745.690000     0.000030
                           4200.721000     0.000134
                           1364.429000     0.000659
                            522.080600     0.002447
                            221.459500     0.009014
                            100.909600     0.023823
                             48.401150     0.059364
                             23.985360     0.087580
                             12.182500     0.122286
                              6.242298    -0.068112
                              3.110944    -0.351907
                              1.509958    -0.623706
                              0.710845     0.841448
                              0.272598     0.792070
                              0.103972    -0.917510
                              0.038166    -0.122615
   16.2 Au    1  2px      17745.690000     0.000000
                           4200.721000     0.000000
                           1364.429000     0.000000
                            522.080600     0.000000
                            221.459500     0.000000
                            100.909600     0.000000
                             48.401150     0.000000
                             23.985360     0.000000
                             12.182500     0.000000
                              6.242298     0.000000
                              3.110944     0.000000
                              1.509958     0.000000
                              0.710845     0.000000
                              0.272598     0.000000
                              0.103972     0.000000
                              0.038166     1.000000
   17.2 Au    1  2py      17745.690000     0.000000
                           4200.721000     0.000000
                           1364.429000     0.000000
                            522.080600     0.000000
                            221.459500     0.000000
                            100.909600     0.000000
                             48.401150     0.000000
                             23.985360     0.000000
                             12.182500     0.000000
                              6.242298     0.000000
                              3.110944     0.000000
                              1.509958     0.000000
                              0.710845     0.000000
                              0.272598     0.000000
                              0.103972     0.000000
                              0.038166     1.000000
   18.2 Au    1  2pz      17745.690000     0.000000
                           4200.721000     0.000000
                           1364.429000     0.000000
                            522.080600     0.000000
                            221.459500     0.000000
                            100.909600     0.000000
                             48.401150     0.000000
                             23.985360     0.000000
                             12.182500     0.000000
                              6.242298     0.000000
                              3.110944     0.000000
                              1.509958     0.000000
                              0.710845     0.000000
                              0.272598     0.000000
                              0.103972     0.000000
                              0.038166     1.000000
   19.2 Au    1  2px          6.878800     1.000000
   20.2 Au    1  2py          6.878800     1.000000
   21.2 Au    1  2pz          6.878800     1.000000
   22.2 Au    1  2px          1.574800     1.000000
   23.2 Au    1  2py          1.574800     1.000000
   24.2 Au    1  2pz          1.574800     1.000000
   25.2 Au    1  4f1+         6.006600     1.000000
   26.2 Au    1  4f1-         6.006600     1.000000
   27.2 Au    1  4f0          6.006600     1.000000
   28.2 Au    1  4f3+         6.006600     1.000000
   29.2 Au    1  4f2-         6.006600     1.000000
   30.2 Au    1  4f3-         6.006600     1.000000
   31.2 Au    1  4f2+         6.006600     1.000000
   32.2 Au    1  4f1+         2.252200     1.000000
   33.2 Au    1  4f1-         2.252200     1.000000
   34.2 Au    1  4f0          2.252200     1.000000
   35.2 Au    1  4f3+         2.252200     1.000000
   36.2 Au    1  4f2-         2.252200     1.000000
   37.2 Au    1  4f3-         2.252200     1.000000
   38.2 Au    1  4f2+         2.252200     1.000000
   39.2 Au    1  4f1+         0.775800     1.000000
   40.2 Au    1  4f1-         0.775800     1.000000
   41.2 Au    1  4f0          0.775800     1.000000
   42.2 Au    1  4f3+         0.775800     1.000000
   43.2 Au    1  4f2-         0.775800     1.000000
   44.2 Au    1  4f3-         0.775800     1.000000
   45.2 Au    1  4f2+         0.775800     1.000000

 NUCLEAR CHARGE:                   26
 NUMBER OF PRIMITIVE AOS:         196
 NUMBER OF SYMMETRY AOS:          165
 NUMBER OF CONTRACTIONS:          102   (   57Ag  +   45Au  )
 NUMBER OF INNER CORE ORBITALS:     5   (    2Ag  +    3Au  )
 NUMBER OF OUTER CORE ORBITALS:     4   (    1Ag  +    3Au  )
 NUMBER OF VALENCE ORBITALS:        6   (    6Ag  +    0Au  )


 NUCLEAR REPULSION ENERGY    0.00000000

 One-electron integrals computed with SEWARD

 eXact-2-Component (X2C) method activated

 Computing Douglas-Kroll / X2C integrals

 AO integral compression algorithm  1   Integral accuracy      1.0D-11

     15.204 MB (compressed) written to integral file ( 14.8%)

     Node minimum: 3.932 MB, node maximum: 6.291 MB


 NUMBER OF SORTED TWO-ELECTRON INTEGRALS:    2346138.     BUFFER LENGTH:  32768
 NUMBER OF SEGMENTS:   1  SEGMENT LENGTH:    2346138      RECORD LENGTH: 524288

 Memory used in sort:       2.90 MW

 SORT1 READ    12883698. AND WROTE      445331. INTEGRALS IN      2 RECORDS. CPU TIME:     0.05 SEC, REAL TIME:     0.06 SEC
 SORT2 READ     1353984. AND WROTE     7035726. INTEGRALS IN     45 RECORDS. CPU TIME:     0.06 SEC, REAL TIME:     0.07 SEC

 Node minimum:     2344346.  Node maximum:     2346138. integrals

 OPERATOR DM      FOR CENTER  0  COORDINATES:    0.000000    0.000000    0.000000

 EXTRA SYMMETRY OF AOS IN SYMMETRY 1:   1 1 1 1 1 1 1 1 1 2   3 4 5 6 2 3 4 5 6 2   3 4 5 6 2 3 4 5 6 2   3 4 5 6 2 3 4 5 6 7
                                        8 9101112131415 7 8   9101112131415
 EXTRA SYMMETRY OF AOS IN SYMMETRY 2:   1 2 3 1 2 3 1 2 3 1   2 3 1 2 3 1 2 3 1 2   3 1 2 3 4 5 6 7 8 9  10 4 5 6 7 8 910 4 5
                                        6 7 8 910

 Eigenvalues of metric

         1 0.372E-03 0.297E-02 0.152E-01 0.152E-01 0.152E-01 0.152E-01 0.152E-01 0.250E-01
         2 0.215E-03 0.215E-03 0.215E-03 0.172E-02 0.172E-02 0.172E-02 0.128E+00 0.128E+00


 **********************************************************************************************************************************
 DATASETS  * FILE   NREC   LENGTH (MB)   RECORD NAMES
              1      22       29.06       500      610      700      900      950      970     1000      129      960     1700   
                                          VAR    BASINP    GEOM    SYMINP    ZMAT    AOBASIS   BASIS     P2S    ABASIS    OPER   
                                         1101     1401     1411     1412     1650     1100     1400     1410     1200     1210   
                                          SR      EKINR    POTR     PVPR    MOLCAS      S      EKIN      POT      H0       H01  
                                         1080     1600   
                                         AOSYM     SMH  

 PROGRAMS   *        TOTAL       INT
 CPU TIMES  *         1.40      1.23
 REAL TIME  *         2.92 SEC
 DISK USED  *        29.34 MB (local),      119.47 MB (total)
 GA USED    *         0.00 MB       (max)       0.00 MB       (current)
 **********************************************************************************************************************************


 Program * Restricted Hartree-Fock

 Orbital guess generated from atomic densities. Full valence occupancy:    9   6

 Initial alpha occupancy:   9   6
 Initial beta  occupancy:   5   6

 NELEC=   26   SYM=1   MS2= 4   THRE=1.0D-08   THRD=3.2D-06   THRG=3.2D-06  HFMA2=F  DIIS_START=2   DIIS_MAX=10   DIIS_INCORE=F

 Level shifts:    0.00 (CLOSED)    0.00 (OPEN)    0.30 (GAP_MIN)

 ITER           ETOT              DE          GRAD        DDIFF     DIIS  NEXP   TIME(IT)  TIME(TOT)  DIAG
   1    -1271.15997440   -1271.15997440     0.00D+00     0.13D+00     0     0       0.01      0.02    start
   2    -1271.15629311       0.00368129     0.16D-01     0.19D-01     1     0       0.02      0.04    diag2
   3    -1271.23209236      -0.07579925     0.17D-01     0.10D-01     2     0       0.01      0.05    diag2
   4    -1271.23408682      -0.00199446     0.11D-02     0.97D-03     3     0       0.01      0.06    diag2
   5    -1271.23663315      -0.00254634     0.60D-03     0.13D-02     4     0       0.01      0.07    diag2
   6    -1271.23766563      -0.00103247     0.50D-03     0.46D-03     5     0       0.02      0.09    diag2
   7    -1271.22883609       0.00882954     0.50D-03     0.38D-02     6     0       0.01      0.10    diag2
   8    -1271.22293186       0.00590424     0.54D-03     0.32D-02     7     0       0.01      0.11    diag2
   9    -1271.22310840      -0.00017654     0.92D-03     0.18D-03     8     0       0.02      0.13    diag2
  10    -1271.22016096       0.00294744     0.10D-02     0.28D-02     9     0       0.01      0.14    diag2/orth
  11    -1271.21895435       0.00120660     0.77D-03     0.29D-02     9     0       0.01      0.15    diag2
  12    -1271.21905063      -0.00009628     0.12D-02     0.29D-03     9     0       0.02      0.17    diag2
  13    -1271.21899500       0.00005563     0.10D-02     0.54D-03     9     0       0.01      0.18    diag2
  14    -1271.21895196       0.00004303     0.79D-03     0.63D-03     9     0       0.01      0.19    diag2
  15    -1271.21888287       0.00006910     0.34D-03     0.83D-03     9     0       0.01      0.20    diag2
  16    -1271.21876117       0.00012169     0.54D-03     0.44D-03     9     0       0.01      0.21    diag2
  17    -1271.21854713       0.00021404     0.50D-03     0.12D-02     9     0       0.02      0.23    diag2
  18    -1271.21848070       0.00006644     0.25D-03     0.55D-03     9     0       0.01      0.24    diag2
  19    -1271.21844791       0.00003278     0.16D-03     0.52D-03     9     0       0.01      0.25    diag2
  20    -1271.21844706       0.00000085     0.16D-03     0.25D-03     9     0       0.01      0.26    diag2/orth
  21    -1271.21844919      -0.00000213     0.97D-04     0.10D-03     9     0       0.02      0.28    diag2
  22    -1271.21845137      -0.00000218     0.68D-04     0.79D-04     9     0       0.01      0.29    diag2
  23    -1271.21845272      -0.00000135     0.21D-04     0.44D-04     9     0       0.01      0.30    diag2
  24    -1271.21845158       0.00000114     0.92D-05     0.33D-04     9     0       0.02      0.32    diag2
  25    -1271.21844641       0.00000517     0.81D-05     0.19D-03     9     0       0.01      0.33    diag2
  26    -1271.21844515       0.00000126     0.47D-05     0.82D-04     9     0       0.01      0.34    diag2
  27    -1271.21844524      -0.00000009     0.41D-05     0.50D-05     9     0       0.01      0.35    diag2
  28    -1271.21844453       0.00000071     0.43D-05     0.51D-04     9     0       0.02      0.37    diag2
  29    -1271.21844342       0.00000111     0.37D-05     0.11D-03     9     0       0.01      0.38    diag2
  30    -1271.21844320       0.00000022     0.21D-05     0.50D-04     9     0       0.01      0.39    diag2/orth
  31    -1271.21844318       0.00000002     0.13D-05     0.11D-04     9     0       0.01      0.40    diag2
  32    -1271.21844319      -0.00000001     0.11D-05     0.29D-05     9     0       0.01      0.41    diag2
  33    -1271.21844321      -0.00000002     0.12D-05     0.38D-05     0     0       0.02      0.43    diag

 Final alpha occupancy:   9   6
 Final beta  occupancy:   5   6

 !RHF STATE 1.1 Energy              -1271.218443211275
  RHF One-electron energy           -1760.562136373076
  RHF Two-electron energy             489.343693161801
  RHF Kinetic energy                 1324.722559634127
  RHF Nuclear energy                    0.000000000000
  RHF Virial quotient                  -0.959611077781

 !RHF STATE 1.1 Dipole moment           0.00000000     0.00000000     0.00000000
 Dipole moment /Debye                   0.00000000     0.00000000     0.00000000

 ELECTRON ORBITALS
 =================

  Orbital  Occupation    Energy    Cen Mu Typ  Coefficients
    1.1     2.00000  -263.49617     1  1  s    0.97998
    2.1     2.00000   -32.23616     1  2  s    0.99635
    3.1     2.00000    -4.05405     1  3  s    0.99182
    4.1     2.00000    -0.32195     1  1  d1+  0.98923
    5.1     2.00000    -0.32195     1  1  d0   0.85340    1  1  d2+ -0.50023
    6.1     1.00000    -0.50490     1  1  d0   0.49034    1  1  d2+  0.85934
    7.1     1.00000    -0.48438     1  1  d1-  0.97736
    8.1     1.00000    -0.48433     1  1  d2-  0.98735
    9.1     1.00000    -0.23726     1  4  s    0.97188
    1.2     2.00000   -27.32590     1  1  py   0.99602
    2.2     2.00000   -27.29772     1  1  pz   0.99397
    3.2     2.00000   -27.29768     1  1  px   0.99731
    4.2     2.00000    -2.58969     1  2  py   0.99657
    5.2     2.00000    -2.57035     1  2  px   0.97958
    6.2     2.00000    -2.57034     1  2  pz   0.97631


 HOMO      9.1    -0.237261 =      -6.4562eV
 LUMO      7.2     0.034862 =       0.9486eV
 LUMO-HOMO         0.272123 =       7.4048eV

 Orbitals saved in record  2100.2


 **********************************************************************************************************************************
 DATASETS  * FILE   NREC   LENGTH (MB)   RECORD NAMES
              1      22       29.06       500      610      700      900      950      970     1000      129      960     1700   
                                          VAR    BASINP    GEOM    SYMINP    ZMAT    AOBASIS   BASIS     P2S    ABASIS    OPER   
                                         1101     1401     1411     1412     1650     1100     1400     1410     1200     1210   
                                          SR      EKINR    POTR     PVPR    MOLCAS      S      EKIN      POT      H0       H01  
                                         1080     1600   
                                         AOSYM     SMH  

              2       4        0.52       700     1000      520     2100   
                                         GEOM     BASIS   MCVARS     RHF  

 PROGRAMS   *        TOTAL   RHF-SCF       INT
 CPU TIMES  *         2.00      0.60      1.23
 REAL TIME  *         3.92 SEC
 DISK USED  *        30.37 MB (local),      122.56 MB (total)
 GA USED    *         0.00 MB       (max)       0.00 MB       (current)
 **********************************************************************************************************************************

 PROGRAM * MULTI (Direct Multiconfiguration SCF)       Authors: P.J. Knowles, H.-J. Werner (1984)
                                                                D.A. Kreplin, P.J. Knowles, H.-J. Werner (2019)

 Number of closed-shell orbitals:   9 (   3   6 )
 Number of active  orbitals:        6 (   6   0 )
 Number of external orbitals:      87 (  48  39 )

 State symmetry 1

 Number of active electrons:   8    Spin symmetry=Quintet   Space symmetry=1
 Number of states:            15
 Number of CSFs:              15   (15 determinants, 15 intermediate states)

 State symmetry 2

 Number of active electrons:   8    Spin symmetry=Triplet   Space symmetry=1
 Number of states:             7
 Number of CSFs:             105   (120 determinants, 120 intermediate states)

 Molecular orbitals read from record     2100.2  Type=RHF/CANONICAL  
 *** IN SYMMETRY 1 ORBITAL  1 SYMMETRY CONTAMINATION OF 0.164D-03 HAS BEEN REMOVED
 *** IN SYMMETRY 1 ORBITAL  2 SYMMETRY CONTAMINATION OF 0.885D-02 HAS BEEN REMOVED
 *** IN SYMMETRY 1 ORBITAL  3 SYMMETRY CONTAMINATION OF 0.306D-01 HAS BEEN REMOVED
 *** IN SYMMETRY 1 ORBITAL  4 SYMMETRY CONTAMINATION OF 0.938D-01 HAS BEEN REMOVED
 *** IN SYMMETRY 1 ORBITAL  5 SYMMETRY CONTAMINATION OF 0.414D+00 HAS BEEN REMOVED
 *** IN SYMMETRY 1 ORBITAL  6 SYMMETRY CONTAMINATION OF 0.441D+00 HAS BEEN REMOVED
 *** IN SYMMETRY 1 ORBITAL  7 SYMMETRY CONTAMINATION OF 0.279D+00 HAS BEEN REMOVED
 *** IN SYMMETRY 1 ORBITAL  8 SYMMETRY CONTAMINATION OF 0.203D+00 HAS BEEN REMOVED
 *** IN SYMMETRY 1 ORBITAL  9 SYMMETRY CONTAMINATION OF 0.816D-01 HAS BEEN REMOVED

 EXTRA SYMMETRY OF MOS IN SYMMETRY 1:   1 1 1 4 2 5 6 3 1 1   5 3 6 4 2 1 5 3 6 4   2 1 5 3 6 4 2101113   714 815 912 1 6 3 5
                                        4 2101113 714 815 9  12 5 6 3 2 4 1
 *** IN SYMMETRY 2 ORBITAL  1 SYMMETRY CONTAMINATION OF 0.775D-01 HAS BEEN REMOVED
 *** IN SYMMETRY 2 ORBITAL  2 SYMMETRY CONTAMINATION OF 0.139D+00 HAS BEEN REMOVED
 *** IN SYMMETRY 2 ORBITAL  3 SYMMETRY CONTAMINATION OF 0.780D-01 HAS BEEN REMOVED
 *** IN SYMMETRY 2 ORBITAL  4 SYMMETRY CONTAMINATION OF 0.889D-01 HAS BEEN REMOVED
 *** IN SYMMETRY 2 ORBITAL  5 SYMMETRY CONTAMINATION OF 0.193D+00 HAS BEEN REMOVED
 *** IN SYMMETRY 2 ORBITAL  6 SYMMETRY CONTAMINATION OF 0.234D+00 HAS BEEN REMOVED
 EXTRA SYMMETRY OF MOS IN SYMMETRY 2:   2 3 1 2 1 3 2 1 3 2   1 3 2 1 3 9 710 5 8   6 4 2 1 3 910 7 8 5   6 4 2 3 1 910 7 5 8
                                        4 6 2 3 1

 Wavefunction dump at record             2140.2

 Convergence thresholds  0.10E-04 (gradient)  0.10E-05 (energy)

 Weight factors for state symmetry  1:    0.04545   0.04545   0.04545   0.04545   0.04545   0.04545   0.04545   0.04545
                                          0.04545   0.04545   0.04545   0.04545   0.04545   0.04545   0.04545
 Weight factors for state symmetry  2:    0.04545   0.04545   0.04545   0.04545   0.04545   0.04545   0.04545
 
 Number of orbital rotations:  684  ( 18 closed/active, 378 closed/virtual, 0 active/active, 288 active/virtual )
 Total number of variables:    1749
 
 Second-order MCSCF: L-BFGS accelerated
 
 ITER  MIC  NCI  NEG     ENERGY(VAR)    ENERGY(PROJ) ENERGY CHANGE       GRAD(0)  GRAD(ORB)   GRAD(CI)      STEP      TIME
   1    5    8    0  -1271.23393816   -1271.24153860   -0.00760044    0.13592529 0.00001163 0.00000000  0.93E-01      0.27
   2    7   12    0  -1271.24145386   -1271.24145757   -0.00000371    0.00323337 0.00000004 0.00000000  0.27E-02      0.60
   3   21   42    0  -1271.24145757   -1271.24145757   -0.00000000    0.00000182 0.00000003 0.00000000  0.17E-05      1.20

 CONVERGENCE REACHED!  Final gradient:    0.00000007 ( 0.69E-07)
                       Final energy:  -1271.24145757
 
 Results for state 1.1 Quintet
 =============================
 !MCSCF STATE 1.1 Quintet Energy             -1271.268189023613
 Nuclear energy                                  0.00000000
 Kinetic energy                               1320.22834902
 One electron energy                         -1748.45084236
 Two electron energy                           477.18265334
 Virial ratio                                    1.96291539
 
 !MCSCF STATE 1.1 Quintet Dipole moment          0.00000000     0.00000000     0.00000000
 Dipole moment /Debye                            0.00000000     0.00000000     0.00000000
 
 Results for state 2.1 Quintet
 =============================
 !MCSCF STATE 2.1 Quintet Energy             -1271.268189023058
 Nuclear energy                                  0.00000000
 Kinetic energy                               1320.22834899
 One electron energy                         -1748.45084232
 Two electron energy                           477.18265330
 Virial ratio                                    1.96291539
 
 !MCSCF STATE 2.1 Quintet Dipole moment          0.00000000     0.00000000     0.00000000
 Dipole moment /Debye                            0.00000000     0.00000000     0.00000000
 
 Results for state 3.1 Quintet
 =============================
 !MCSCF STATE 3.1 Quintet Energy             -1271.268189022833
 Nuclear energy                                  0.00000000
 Kinetic energy                               1320.22834898
 One electron energy                         -1748.45084229
 Two electron energy                           477.18265327
 Virial ratio                                    1.96291539
 
 !MCSCF STATE 3.1 Quintet Dipole moment          0.00000000     0.00000000     0.00000000
 Dipole moment /Debye                            0.00000000     0.00000000     0.00000000
 
 Results for state 4.1 Quintet
 =============================
 !MCSCF STATE 4.1 Quintet Energy             -1271.268189021462
 Nuclear energy                                  0.00000000
 Kinetic energy                               1320.22834892
 One electron energy                         -1748.45084217
 Two electron energy                           477.18265315
 Virial ratio                                    1.96291539
 
 !MCSCF STATE 4.1 Quintet Dipole moment          0.00000000     0.00000000     0.00000000
 Dipole moment /Debye                            0.00000000     0.00000000     0.00000000
 
 Results for state 5.1 Quintet
 =============================
 !MCSCF STATE 5.1 Quintet Energy             -1271.268189021352
 Nuclear energy                                  0.00000000
 Kinetic energy                               1320.22834891
 One electron energy                         -1748.45084217
 Two electron energy                           477.18265314
 Virial ratio                                    1.96291539
 
 !MCSCF STATE 5.1 Quintet Dipole moment          0.00000000     0.00000000     0.00000000
 Dipole moment /Debye                            0.00000000     0.00000000     0.00000000
 
 Results for state 6.1 Quintet
 =============================
 !MCSCF STATE 6.1 Quintet Energy             -1271.259113758659
 Nuclear energy                                  0.00000000
 Kinetic energy                               1326.09954664
 One electron energy                         -1763.15557296
 Two electron energy                           491.89645920
 Virial ratio                                    1.95864531
 
 !MCSCF STATE 6.1 Quintet Dipole moment          0.00000000     0.00000000     0.00000000
 Dipole moment /Debye                            0.00000000     0.00000000     0.00000000
 
 Results for state 7.1 Quintet
 =============================
 !MCSCF STATE 7.1 Quintet Energy             -1271.259113758193
 Nuclear energy                                  0.00000000
 Kinetic energy                               1326.09954668
 One electron energy                         -1763.15557302
 Two electron energy                           491.89645926
 Virial ratio                                    1.95864531
 
 !MCSCF STATE 7.1 Quintet Dipole moment          0.00000000     0.00000000     0.00000000
 Dipole moment /Debye                            0.00000000     0.00000000     0.00000000
 
 Results for state 8.1 Quintet
 =============================
 !MCSCF STATE 8.1 Quintet Energy             -1271.259113757784
 Nuclear energy                                  0.00000000
 Kinetic energy                               1326.09954669
 One electron energy                         -1763.15557304
 Two electron energy                           491.89645929
 Virial ratio                                    1.95864531
 
 !MCSCF STATE 8.1 Quintet Dipole moment          0.00000000     0.00000000     0.00000000
 Dipole moment /Debye                            0.00000000     0.00000000     0.00000000
 
 Results for state 9.1 Quintet
 =============================
 !MCSCF STATE 9.1 Quintet Energy             -1271.259113757620
 Nuclear energy                                  0.00000000
 Kinetic energy                               1326.09954670
 One electron energy                         -1763.15557306
 Two electron energy                           491.89645930
 Virial ratio                                    1.95864531
 
 !MCSCF STATE 9.1 Quintet Dipole moment          0.00000000     0.00000000     0.00000000
 Dipole moment /Debye                            0.00000000     0.00000000     0.00000000
 
 Results for state 10.1 Quintet
 ==============================
 !MCSCF STATE 10.1 Quintet Energy            -1271.259113757395
 Nuclear energy                                  0.00000000
 Kinetic energy                               1326.09954671
 One electron energy                         -1763.15557308
 Two electron energy                           491.89645932
 Virial ratio                                    1.95864531
 
 !MCSCF STATE 10.1 Quintet Dipole moment         0.00000000     0.00000000     0.00000000
 Dipole moment /Debye                            0.00000000     0.00000000     0.00000000
 
 Results for state 11.1 Quintet
 ==============================
 !MCSCF STATE 11.1 Quintet Energy            -1271.259113756306
 Nuclear energy                                  0.00000000
 Kinetic energy                               1326.09954679
 One electron energy                         -1763.15557322
 Two electron energy                           491.89645946
 Virial ratio                                    1.95864531
 
 !MCSCF STATE 11.1 Quintet Dipole moment         0.00000000     0.00000000     0.00000000
 Dipole moment /Debye                            0.00000000     0.00000000     0.00000000
 
 Results for state 12.1 Quintet
 ==============================
 !MCSCF STATE 12.1 Quintet Energy            -1271.259113756049
 Nuclear energy                                  0.00000000
 Kinetic energy                               1326.09954679
 One electron energy                         -1763.15557323
 Two electron energy                           491.89645947
 Virial ratio                                    1.95864531
 
 !MCSCF STATE 12.1 Quintet Dipole moment         0.00000000     0.00000000     0.00000000
 Dipole moment /Debye                            0.00000000     0.00000000     0.00000000
 
 Results for state 13.1 Quintet
 ==============================
 !MCSCF STATE 13.1 Quintet Energy            -1271.186297986138
 Nuclear energy                                  0.00000000
 Kinetic energy                               1326.09954669
 One electron energy                         -1763.15557304
 Two electron energy                           491.96927505
 Virial ratio                                    1.95859040
 
 !MCSCF STATE 13.1 Quintet Dipole moment         0.00000000     0.00000000     0.00000000
 Dipole moment /Debye                            0.00000000     0.00000000     0.00000000
 
 Results for state 14.1 Quintet
 ==============================
 !MCSCF STATE 14.1 Quintet Energy            -1271.186297985278
 Nuclear energy                                  0.00000000
 Kinetic energy                               1326.09954672
 One electron energy                         -1763.15557309
 Two electron energy                           491.96927510
 Virial ratio                                    1.95859040
 
 !MCSCF STATE 14.1 Quintet Dipole moment         0.00000000     0.00000000     0.00000000
 Dipole moment /Debye                            0.00000000     0.00000000     0.00000000
 
 Results for state 15.1 Quintet
 ==============================
 !MCSCF STATE 15.1 Quintet Energy            -1271.186297984696
 Nuclear energy                                  0.00000000
 Kinetic energy                               1326.09954674
 One electron energy                         -1763.15557313
 Two electron energy                           491.96927515
 Virial ratio                                    1.95859040
 
 !MCSCF STATE 15.1 Quintet Dipole moment         0.00000000     0.00000000     0.00000000
 Dipole moment /Debye                            0.00000000     0.00000000     0.00000000
 
 Results for state 1.1 Triplet
 =============================
 !MCSCF STATE 1.1 Triplet Energy             -1271.228347315380
 Nuclear energy                                  0.00000000
 Kinetic energy                               1326.06533304
 One electron energy                         -1763.06988315
 Two electron energy                           491.84153583
 Virial ratio                                    1.95864684
 
 !MCSCF STATE 1.1 Triplet Dipole moment          0.00000000     0.00000000     0.00000000
 Dipole moment /Debye                            0.00000000     0.00000000     0.00000000
 
 Results for state 2.1 Triplet
 =============================
 !MCSCF STATE 2.1 Triplet Energy             -1271.228347314797
 Nuclear energy                                  0.00000000
 Kinetic energy                               1326.06533308
 One electron energy                         -1763.06988321
 Two electron energy                           491.84153590
 Virial ratio                                    1.95864684
 
 !MCSCF STATE 2.1 Triplet Dipole moment          0.00000000     0.00000000     0.00000000
 Dipole moment /Debye                            0.00000000     0.00000000     0.00000000
 
 Results for state 3.1 Triplet
 =============================
 !MCSCF STATE 3.1 Triplet Energy             -1271.228347314328
 Nuclear energy                                  0.00000000
 Kinetic energy                               1326.06533308
 One electron energy                         -1763.06988323
 Two electron energy                           491.84153592
 Virial ratio                                    1.95864684
 
 !MCSCF STATE 3.1 Triplet Dipole moment          0.00000000     0.00000000     0.00000000
 Dipole moment /Debye                            0.00000000     0.00000000     0.00000000
 
 Results for state 4.1 Triplet
 =============================
 !MCSCF STATE 4.1 Triplet Energy             -1271.228347314137
 Nuclear energy                                  0.00000000
 Kinetic energy                               1326.06533309
 One electron energy                         -1763.06988324
 Two electron energy                           491.84153593
 Virial ratio                                    1.95864684
 
 !MCSCF STATE 4.1 Triplet Dipole moment          0.00000000     0.00000000     0.00000000
 Dipole moment /Debye                            0.00000000     0.00000000     0.00000000
 
 Results for state 5.1 Triplet
 =============================
 !MCSCF STATE 5.1 Triplet Energy             -1271.228347313883
 Nuclear energy                                  0.00000000
 Kinetic energy                               1326.06533311
 One electron energy                         -1763.06988327
 Two electron energy                           491.84153595
 Virial ratio                                    1.95864684
 
 !MCSCF STATE 5.1 Triplet Dipole moment          0.00000000     0.00000000     0.00000000
 Dipole moment /Debye                            0.00000000     0.00000000     0.00000000
 
 Results for state 6.1 Triplet
 =============================
 !MCSCF STATE 6.1 Triplet Energy             -1271.228347312545
 Nuclear energy                                  0.00000000
 Kinetic energy                               1326.06533318
 One electron energy                         -1763.06988339
 Two electron energy                           491.84153608
 Virial ratio                                    1.95864684
 
 !MCSCF STATE 6.1 Triplet Dipole moment          0.00000000     0.00000000     0.00000000
 Dipole moment /Debye                            0.00000000     0.00000000     0.00000000
 
 Results for state 7.1 Triplet
 =============================
 !MCSCF STATE 7.1 Triplet Energy             -1271.228347312234
 Nuclear energy                                  0.00000000
 Kinetic energy                               1326.06533318
 One electron energy                         -1763.06988341
 Two electron energy                           491.84153609
 Virial ratio                                    1.95864684
 
 !MCSCF STATE 7.1 Triplet Dipole moment          0.00000000     0.00000000     0.00000000
 Dipole moment /Debye                            0.00000000     0.00000000     0.00000000
 
 State-averaged charge density matrix saved on record 2140.2 (density set 1)
 
 No non-zero expectation values
 
 Expectation values for two-electron operators:
 
 !MCSCF expec      <1.1 Quintet|LXLX|1.1 Quintet>     1.582928342555
 !MCSCF expec      <2.1 Quintet|LXLX|2.1 Quintet>     1.000000194765
 !MCSCF expec      <3.1 Quintet|LXLX|3.1 Quintet>     2.417053387643
 !MCSCF expec      <4.1 Quintet|LXLX|4.1 Quintet>     1.000000779417
 !MCSCF expec      <5.1 Quintet|LXLX|5.1 Quintet>     3.999999298515
 !MCSCF expec      <6.1 Quintet|LXLX|6.1 Quintet>     6.551673423366
 !MCSCF expec      <7.1 Quintet|LXLX|7.1 Quintet>     4.744075796230
 !MCSCF expec      <8.1 Quintet|LXLX|8.1 Quintet>     0.565482053399
 !MCSCF expec      <9.1 Quintet|LXLX|9.1 Quintet>     5.255890637940
 !MCSCF expec    <10.1 Quintet|LXLX|10.1 Quintet>     3.434542880814
 !MCSCF expec    <11.1 Quintet|LXLX|11.1 Quintet>     3.999999774336
 !MCSCF expec    <12.1 Quintet|LXLX|12.1 Quintet>     3.448318490751
 !MCSCF expec    <13.1 Quintet|LXLX|13.1 Quintet>     0.000000020869
 !MCSCF expec    <14.1 Quintet|LXLX|14.1 Quintet>     0.999999978242
 !MCSCF expec    <15.1 Quintet|LXLX|15.1 Quintet>     0.999999999381
 !MCSCF expec      <1.1 Triplet|LXLX|1.1 Triplet>     6.534841654260
 !MCSCF expec      <2.1 Triplet|LXLX|2.1 Triplet>     4.665002411938
 !MCSCF expec      <3.1 Triplet|LXLX|3.1 Triplet>     0.666347685910
 !MCSCF expec      <4.1 Triplet|LXLX|4.1 Triplet>     5.335007583238
 !MCSCF expec      <5.1 Triplet|LXLX|5.1 Triplet>     3.333678778698
 !MCSCF expec      <6.1 Triplet|LXLX|6.1 Triplet>     3.999999880239
 !MCSCF expec      <7.1 Triplet|LXLX|7.1 Triplet>     3.465163248021
 
 !MCSCF expec      <1.1 Quintet|LYLY|1.1 Quintet>     0.514565336217
 !MCSCF expec      <2.1 Quintet|LYLY|2.1 Quintet>     3.999999146941
 !MCSCF expec      <3.1 Quintet|LYLY|3.1 Quintet>     3.485447735919
 !MCSCF expec      <4.1 Quintet|LYLY|4.1 Quintet>     1.000000037069
 !MCSCF expec      <5.1 Quintet|LYLY|5.1 Quintet>     1.000000142820
 !MCSCF expec      <6.1 Quintet|LYLY|6.1 Quintet>     0.021195059567
 !MCSCF expec      <7.1 Quintet|LYLY|7.1 Quintet>     3.291407864212
 !MCSCF expec      <8.1 Quintet|LYLY|8.1 Quintet>     8.415976292727
 !MCSCF expec      <9.1 Quintet|LYLY|9.1 Quintet>     6.708614144614
 !MCSCF expec    <10.1 Quintet|LYLY|10.1 Quintet>     1.584061238728
 !MCSCF expec    <11.1 Quintet|LYLY|11.1 Quintet>     3.999999734292
 !MCSCF expec    <12.1 Quintet|LYLY|12.1 Quintet>     3.978810889694
 !MCSCF expec    <13.1 Quintet|LYLY|13.1 Quintet>     0.999999999455
 !MCSCF expec    <14.1 Quintet|LYLY|14.1 Quintet>     0.999999997126
 !MCSCF expec    <15.1 Quintet|LYLY|15.1 Quintet>     0.000000003728
 !MCSCF expec      <1.1 Triplet|LYLY|1.1 Triplet>     0.019889138466
 !MCSCF expec      <2.1 Triplet|LYLY|2.1 Triplet>     3.363433247043
 !MCSCF expec      <3.1 Triplet|LYLY|3.1 Triplet>     8.553023377360
 !MCSCF expec      <4.1 Triplet|LYLY|4.1 Triplet>     6.636550487189
 !MCSCF expec      <5.1 Triplet|LYLY|5.1 Triplet>     1.447011095849
 !MCSCF expec      <6.1 Triplet|LYLY|6.1 Triplet>     3.999999821912
 !MCSCF expec      <7.1 Triplet|LYLY|7.1 Triplet>     3.980115603871
 
 !MCSCF expec      <1.1 Quintet|LZLZ|1.1 Quintet>     3.902506321228
 !MCSCF expec      <2.1 Quintet|LZLZ|2.1 Quintet>     1.000000658294
 !MCSCF expec      <3.1 Quintet|LZLZ|3.1 Quintet>     0.097498876437
 !MCSCF expec      <4.1 Quintet|LZLZ|4.1 Quintet>     3.999999183513
 !MCSCF expec      <5.1 Quintet|LZLZ|5.1 Quintet>     1.000000558665
 !MCSCF expec      <6.1 Quintet|LZLZ|6.1 Quintet>     5.427131517067
 !MCSCF expec      <7.1 Quintet|LZLZ|7.1 Quintet>     3.964516339557
 !MCSCF expec      <8.1 Quintet|LZLZ|8.1 Quintet>     3.018541653874
 !MCSCF expec      <9.1 Quintet|LZLZ|9.1 Quintet>     0.035495217446
 !MCSCF expec    <10.1 Quintet|LZLZ|10.1 Quintet>     6.981395880459
 !MCSCF expec    <11.1 Quintet|LZLZ|11.1 Quintet>     4.000000491372
 !MCSCF expec    <12.1 Quintet|LZLZ|12.1 Quintet>     4.572870619555
 !MCSCF expec    <13.1 Quintet|LZLZ|13.1 Quintet>     0.999999979676
 !MCSCF expec    <14.1 Quintet|LZLZ|14.1 Quintet>     0.000000024632
 !MCSCF expec    <15.1 Quintet|LZLZ|15.1 Quintet>     0.999999996891
 !MCSCF expec      <1.1 Triplet|LZLZ|1.1 Triplet>     5.445269207273
 !MCSCF expec      <2.1 Triplet|LZLZ|2.1 Triplet>     3.971564341019
 !MCSCF expec      <3.1 Triplet|LZLZ|3.1 Triplet>     2.780628936730
 !MCSCF expec      <4.1 Triplet|LZLZ|4.1 Triplet>     0.028441929572
 !MCSCF expec      <5.1 Triplet|LZLZ|5.1 Triplet>     7.219310125453
 !MCSCF expec      <6.1 Triplet|LZLZ|6.1 Triplet>     4.000000297849
 !MCSCF expec      <7.1 Triplet|LZLZ|7.1 Triplet>     4.554721148108
 
 !MCSCF expec      <1.1 Quintet|L**2|1.1 Quintet>     6.000000000000
 !MCSCF expec      <2.1 Quintet|L**2|2.1 Quintet>     6.000000000000
 !MCSCF expec      <3.1 Quintet|L**2|3.1 Quintet>     6.000000000000
 !MCSCF expec      <4.1 Quintet|L**2|4.1 Quintet>     6.000000000000
 !MCSCF expec      <5.1 Quintet|L**2|5.1 Quintet>     6.000000000000
 !MCSCF expec      <6.1 Quintet|L**2|6.1 Quintet>    12.000000000000
 !MCSCF expec      <7.1 Quintet|L**2|7.1 Quintet>    12.000000000000
 !MCSCF expec      <8.1 Quintet|L**2|8.1 Quintet>    12.000000000000
 !MCSCF expec      <9.1 Quintet|L**2|9.1 Quintet>    12.000000000000
 !MCSCF expec    <10.1 Quintet|L**2|10.1 Quintet>    12.000000000000
 !MCSCF expec    <11.1 Quintet|L**2|11.1 Quintet>    12.000000000000
 !MCSCF expec    <12.1 Quintet|L**2|12.1 Quintet>    12.000000000000
 !MCSCF expec    <13.1 Quintet|L**2|13.1 Quintet>     2.000000000000
 !MCSCF expec    <14.1 Quintet|L**2|14.1 Quintet>     2.000000000000
 !MCSCF expec    <15.1 Quintet|L**2|15.1 Quintet>     2.000000000000
 !MCSCF expec      <1.1 Triplet|L**2|1.1 Triplet>    12.000000000000
 !MCSCF expec      <2.1 Triplet|L**2|2.1 Triplet>    12.000000000000
 !MCSCF expec      <3.1 Triplet|L**2|3.1 Triplet>    12.000000000000
 !MCSCF expec      <4.1 Triplet|L**2|4.1 Triplet>    12.000000000000
 !MCSCF expec      <5.1 Triplet|L**2|5.1 Triplet>    12.000000000000
 !MCSCF expec      <6.1 Triplet|L**2|6.1 Triplet>    12.000000000000
 !MCSCF expec      <7.1 Triplet|L**2|7.1 Triplet>    12.000000000000
 
 EXTRA SYMMETRY OF MOS IN SYMMETRY 1:   1 1 1 6 5 2 3 4 1 1   6 5 2 3 4 1 6 5 2 3   4 1 6 5 2 3 4101315  14 81112 7 9 1 5 6 3
                                        2 413101514 81112 7   9 3 5 6 2 4 1
 EXTRA SYMMETRY OF MOS IN SYMMETRY 2:   2 1 3 2 1 3 2 1 3 2   1 3 2 1 3 5 7 910 6   8 4 2 1 3 5 9 710 8   6 4 2 1 3 9 7 5 810
                                        6 4 2 3 1
 
  NATURAL ORBITALS (STATE AVERAGED)
  =================================

  Orbital  Occupation    Energy    Cen Mu Typ  Coefficients
    1.1     2.00000  -263.52711     1  1  s    0.97999
    2.1     2.00000   -32.27075     1  2  s    0.99634
    3.1     2.00000    -4.08828     1  3  s    0.99083
    4.1     1.35418    -0.16348     1  1  d1-  1.00078
    5.1     1.35417    -0.16348     1  1  d2+  1.00078
    6.1     1.35417    -0.16348     1  1  d0   1.00078
    7.1     1.35417    -0.16348     1  1  d2-  1.00078
    8.1     1.35417    -0.16348     1  1  d1+  1.00078
    9.1     1.22913    -0.12870     1  4  s    0.98556
    1.2     2.00000   -27.34102     1  1  py   0.99998
    2.2     2.00000   -27.34102     1  1  px   0.99998
    3.2     2.00000   -27.34102     1  1  pz   0.99998
    4.2     2.00000    -2.60818     1  2  py   1.00083
    5.2     2.00000    -2.60818     1  2  px   1.00083
    6.2     2.00000    -2.60818     1  2  pz   1.00083
 
 Natural orbital dump (state averaged) at molpro section 2140.2 (Orbital set 2)
 
 Transform the CI vectors
 
 CI Coefficients of symmetry 1 (Quintet)
 =======================================

 State:              1               2               3               4               5               6               7
 aaaa22        -0.00046995      0.99999988      0.00003420      0.00011171     -0.00002105      0.00000000      0.00000000
 aaa2a2        -0.00004679     -0.00011174      0.00003541      0.99999986     -0.00050655     -0.00000000      0.00000001
 a22aaa        -0.00000000     -0.00000000     -0.00000001     -0.00000000     -0.00000000      0.00004946      0.00004759
 2aaaa2         0.00010825      0.00002105     -0.00031406      0.00050657      0.99999982     -0.00000000      0.00000000
 aa22aa         0.00000000      0.00000000     -0.00000000     -0.00000001      0.00000000     -0.00105217      0.99555392
 aa2aa2        -0.15611933     -0.00010714      0.98773814     -0.00004213      0.00032713      0.00000000      0.00000000
 a2aaa2         0.98773808      0.00045884      0.15611939      0.00004071     -0.00005792      0.00000000      0.00000000
 a2a2aa        -0.00000000      0.00000000     -0.00000000     -0.00000000      0.00000000     -0.00008319     -0.04212200
 2aa2aa         0.00000000     -0.00000000     -0.00000000      0.00000000      0.00000000      0.89205455      0.00091953
 2aaa2a        -0.00000000     -0.00000000      0.00000000      0.00000000     -0.00000000     -0.00016637     -0.08424399
 22aaaa        -0.00000000      0.00000000      0.00000000     -0.00000000     -0.00000000     -0.00004534     -0.00000492
 a2aa2a         0.00000000     -0.00000001     -0.00000000     -0.00000000     -0.00000000      0.15998255      0.00017483
 aaa22a         0.00000000      0.00000000     -0.00000000      0.00000000      0.00000000      0.00000748     -0.00012724
 aa2a2a        -0.00000000      0.00000000      0.00000000      0.00000000      0.00000000      0.42266194      0.00042996
 2a2aaa        -0.00000000      0.00000000     -0.00000000      0.00000000      0.00000000     -0.00002186     -0.00007630
 
 Energy:    -1271.26818902  -1271.26818902  -1271.26818902  -1271.26818902  -1271.26818902  -1271.25911376  -1271.25911376

 State:              8               9              10              11              12              13              14
 aaaa22        -0.00000000      0.00000000     -0.00000000     -0.00000000      0.00000001     -0.00000000     -0.00000000
 aaa2a2         0.00000000     -0.00000000     -0.00000000      0.00000000      0.00000000     -0.00000000      0.00000000
 a22aaa         0.00010315      0.00002812      0.00045241      0.99999982      0.00036053      0.00000000     -0.00000000
 2aaaa2        -0.00000000     -0.00000000      0.00000000     -0.00000000      0.00000000      0.00000000      0.00000000
 aa22aa         0.00022212      0.09418720      0.00010408     -0.00005004     -0.00002749      0.00000000      0.00000000
 aa2aa2         0.00000000      0.00000000      0.00000000      0.00000001      0.00000000     -0.00000000     -0.00000000
 a2aaa2         0.00000000      0.00000000      0.00000000      0.00000000      0.00000000      0.00000000      0.00000000
 a2a2aa         0.00034847      0.44522499      0.00055970     -0.00001077     -0.00007567     -0.00012751      0.89442718
 2aa2aa         0.00000714      0.00026467      0.00004565     -0.00006767      0.06509818      0.00001044      0.00002397
 2aaa2a         0.00069694      0.89044998      0.00111940     -0.00002154     -0.00015135      0.00006376     -0.44721359
 22aaaa         0.11841942     -0.00120767      0.88655243     -0.00041326     -0.00000876     -0.44721359     -0.00006376
 a2aa2a        -0.00004026      0.00019600      0.00002237     -0.00032520      0.88000307     -0.00001044     -0.00002397
 aaa22a         0.82879644     -0.00023794     -0.33629805      0.00006665      0.00004521     -0.44721359     -0.00006376
 aa2a2a         0.00002737      0.00003965      0.00001344      0.00014869     -0.47048556     -0.00001808     -0.00004153
 2a2aaa         0.54687534     -0.00083462      0.31768952     -0.00020012      0.00002104      0.77459666      0.00011043
 
 Energy:    -1271.25911376  -1271.25911376  -1271.25911376  -1271.25911376  -1271.25911376  -1271.18629799  -1271.18629799

 State:             15
 aaaa22         0.00000000
 aaa2a2         0.00000000
 a22aaa        -0.00000000
 2aaaa2        -0.00000000
 aa22aa        -0.00000000
 aa2aa2        -0.00000000
 a2aaa2        -0.00000000
 a2a2aa         0.00004795
 2aa2aa        -0.44721358
 2aaa2a        -0.00002397
 22aaaa        -0.00001044
 a2aa2a         0.44721360
 aaa22a        -0.00001044
 aa2a2a         0.77459667
 2a2aaa         0.00001809
 
 Energy:    -1271.18629798
 
 
 CI Coefficients of symmetry 1 (Triplet)
 =======================================
 
 a22aab         0.00003816      0.00003299      0.00007542      0.00001648      0.00032063      0.86349492      0.00020565
 aa22ab        -0.00072707      0.86041986      0.00018576      0.07280611      0.00006712     -0.00003426     -0.00001964
 2aa2ab         0.77041101      0.00063616      0.00000240      0.00019016      0.00003021     -0.00004706      0.05445502
 2aaa2b        -0.00012877     -0.06512001      0.00046205      0.76958255      0.00086721     -0.00001253     -0.00010530
 22aaab        -0.00003030     -0.00000806      0.12894962     -0.00093620      0.76149191     -0.00029400      0.00000372
 a2aa2b         0.13987688      0.00012387     -0.00002703      0.00013782      0.00000654     -0.00018708      0.75956124
 aaa22b         0.00000843     -0.00012099      0.70507442     -0.00007834     -0.31522838      0.00005547      0.00002630
 2a2aab        -0.00001263     -0.00007451      0.48152401     -0.00058574      0.25765037     -0.00013772      0.00001733
 aa2a2b         0.36403902      0.00029577      0.00001699      0.00003022      0.00001367      0.00008084     -0.40709328
 a2a2ab        -0.00006439     -0.03256001      0.00023103      0.38479127      0.00043360     -0.00000627     -0.00005265
 a22aba        -0.00001272     -0.00001100     -0.00002514     -0.00000549     -0.00010688     -0.28783164     -0.00006855
 a22baa        -0.00001272     -0.00001100     -0.00002514     -0.00000549     -0.00010688     -0.28783164     -0.00006855
 b22aaa        -0.00001272     -0.00001100     -0.00002514     -0.00000549     -0.00010688     -0.28783164     -0.00006855
 aa22ba         0.00024226     -0.28685345     -0.00006159     -0.02371528     -0.00002175      0.00001141      0.00000647
 ab22aa         0.00024236     -0.28680662     -0.00006192     -0.02426870     -0.00002237      0.00001142      0.00000655
 ba22aa         0.00024245     -0.28675979     -0.00006225     -0.02482213     -0.00002300      0.00001143      0.00000662
 2aa2ba        -0.25744340     -0.00021258     -0.00000080     -0.00006354     -0.00001009      0.00001572     -0.01819689
 2baa2a         0.00004303      0.02176074     -0.00015440     -0.25716656     -0.00028979      0.00000419      0.00003519
 2aab2a         0.00004303      0.02176074     -0.00015440     -0.25716655     -0.00028979      0.00000419      0.00003519
 2ab2aa        -0.25691982     -0.00021216     -0.00000078     -0.00006350     -0.00001007      0.00001584     -0.01878239
 2ba2aa        -0.25604779     -0.00021142     -0.00000082     -0.00006311     -0.00001004      0.00001549     -0.01747573
 2aba2a         0.00004271      0.02159852     -0.00015325     -0.25524943     -0.00028763      0.00000416      0.00003492
 22aaba         0.00001013      0.00000269     -0.04309028      0.00031285     -0.25446296      0.00009824     -0.00000124
 22baaa         0.00001011      0.00000259     -0.04239773      0.00031200     -0.25409240      0.00009805     -0.00000122
 b2aa2a        -0.04674178     -0.00004139      0.00000903     -0.00004605     -0.00000218      0.00006252     -0.25381780
 a2ba2a        -0.04726536     -0.00004182      0.00000901     -0.00004610     -0.00000220      0.00006240     -0.25323230
 22abaa         0.00001007      0.00000278     -0.04346161      0.00031136     -0.25293656      0.00009771     -0.00000126
 a2ab2a        -0.04586975     -0.00004066      0.00000899     -0.00004567     -0.00000215      0.00006217     -0.25251114
 baa22a        -0.00000282      0.00004043     -0.23561028      0.00002618      0.10533788     -0.00001854     -0.00000879
 aab22a        -0.00000283      0.00004032     -0.23491773      0.00002533      0.10570845     -0.00001873     -0.00000876
 aba22a        -0.00000278      0.00004024     -0.23454641      0.00002682      0.10418205     -0.00001820     -0.00000875
 2b2aaa         0.00000420      0.00002501     -0.16152208      0.00019536     -0.08543008      0.00004583     -0.00000581
 2a2baa         0.00000425      0.00002485     -0.16069346      0.00019659     -0.08697867      0.00004633     -0.00000578
 2a2aba         0.00000418      0.00002465     -0.15930847      0.00019379     -0.08524162      0.00004556     -0.00000573
 aa2b2a        -0.12114516     -0.00009841     -0.00000570     -0.00000987     -0.00000455     -0.00002722      0.13679020
 ab2a2a        -0.12245439     -0.00009951     -0.00000567     -0.00001035     -0.00000460     -0.00002688      0.13561944
 ba2a2a        -0.12043948     -0.00009785     -0.00000562     -0.00001000     -0.00000452     -0.00002675      0.13468364
 a2b2aa         0.00002168      0.01096148     -0.00007778     -0.12954184     -0.00014598      0.00000211      0.00001772
 b2a2aa         0.00002240      0.00956176     -0.00007689     -0.12772943     -0.00014391      0.00000213      0.00001749
 a2a2ba         0.00002031      0.01203676     -0.00007636     -0.12752000     -0.00014372      0.00000203      0.00001743
 
 Energy:    -1271.22834732  -1271.22834731  -1271.22834731  -1271.22834731  -1271.22834731  -1271.22834731  -1271.22834731
 


 **********************************************************************************************************************************
 DATASETS  * FILE   NREC   LENGTH (MB)   RECORD NAMES
              1      24       36.44       500      610      700      900      950      970     1000      129      960     1700   
                                          VAR    BASINP    GEOM    SYMINP    ZMAT    AOBASIS   BASIS     P2S    ABASIS    OPER   
                                         1101     1401     1411     1412     1650     1100     1400     1410     1200     1210   
                                          SR      EKINR    POTR     PVPR    MOLCAS      S      EKIN      POT      H0       H01  
                                         1080     1600     1380     1700(1)
                                         AOSYM     SMH     JKOP     OPER   

              2       5        0.80       700     1000      520     2100     2140   
                                         GEOM     BASIS   MCVARS     RHF     MCSCF   

 PROGRAMS   *        TOTAL     MULTI   RHF-SCF       INT
[...]
    7    7.1  2.0  2.0   0.011%   0.000%   0.000%   0.000%   0.000%   0.000%   0.000%   0.000%   0.000%   0.000%
    8    8.1  2.0  2.0   0.000%   0.000%   0.000%   0.000%   0.000%   0.000%   0.000%   0.000%   0.000%   0.000%
    9    9.1  2.0  2.0   0.000%   0.000%   0.000%   0.000%   0.000%   0.000%   0.000%   0.000%   0.000%   0.000%
   10   10.1  2.0  2.0   0.000%   0.000%   0.000%   0.000%   0.000%   0.000%   0.000%   0.000%   0.000%   0.000%
   11   11.1  2.0  2.0   0.000%   0.000%   0.000%   0.000%   0.000%   0.000%   0.000%   0.000%   0.000%   0.000%
   12   12.1  2.0  2.0   0.000%   0.000%   0.000%   0.000%   0.000%   0.000%   0.000%   0.000%   0.000%   0.000%
   13   13.1  2.0  2.0   0.000%  25.243%  24.792%   0.000%   0.000%   1.649%   1.649%   0.000%   0.000%   8.345%
   14   14.1  2.0  2.0   0.000%  25.207%  24.757%   0.000%   0.000%   1.685%   1.684%   0.000%   0.000%   8.345%
   15   15.1  2.0  2.0   0.000%   0.000%   0.000%  16.641%  16.641%   0.000%   0.000%   0.000%   0.000%   0.000%
   16    1.1  2.0  1.0   0.000%   0.000%   0.000%   0.000%   0.000%   0.000%   0.000%   0.000%   0.000%   0.000%
   17    2.1  2.0  1.0   0.000%   0.000%   0.000%   0.000%   0.000%   0.000%   0.000%   0.000%   0.000%   0.000%
   18    3.1  2.0  1.0   0.000%   0.000%   0.000%   0.000%   0.000%   0.000%   0.000%   0.000%   0.000%   0.000%
   19    4.1  2.0  1.0   0.000%   0.000%   0.000%   0.000%   0.000%   0.000%   0.000%   0.000%   0.000%   0.000%
   20    5.1  2.0  1.0   0.000%   0.000%   0.000%   0.000%   0.000%   0.000%   0.000%   0.000%   0.000%   0.000%
   21    6.1  2.0  1.0   0.000%   0.000%   0.000%   0.000%   0.000%   0.000%   0.000%   0.000%   0.000%   0.000%
   22    7.1  2.0  1.0   0.000%   0.000%   0.000%   0.000%   0.000%   0.000%   0.000%   0.000%   0.000%   0.000%
   23    8.1  2.0  1.0   0.001%   0.000%   0.000%   0.000%   0.000%   0.000%   0.000%   0.000%   0.000%   0.000%
   24    9.1  2.0  1.0   0.000%   0.000%   0.000%   0.000%   0.000%   0.000%   0.000%   0.000%   0.000%   0.000%
   25   10.1  2.0  1.0   0.004%   0.000%   0.000%   0.000%   0.000%   0.000%   0.000%   0.000%   0.000%   0.000%
   26   11.1  2.0  1.0   0.004%   0.000%   0.000%   0.000%   0.000%   0.000%   0.000%   0.000%   0.000%   0.000%
   27   12.1  2.0  1.0   0.000%   0.000%   0.000%   0.000%   0.000%   0.000%   0.000%   0.000%   0.000%   0.000%
   28   13.1  2.0  1.0   0.000%   0.000%   0.000%  16.820%  16.679%   0.000%   0.000%   9.868%  25.065%   0.000%
   29   14.1  2.0  1.0   0.000%   0.000%   0.000%  16.539%  16.679%   0.000%   0.000%  10.149%  24.935%   0.000%
   30   15.1  2.0  1.0   0.000%   0.000%   0.000%   0.000%   0.000%  26.645%  26.645%   0.000%   0.000%   8.335%
   31    1.1  2.0  0.0   0.000%   0.000%   0.000%   0.000%   0.000%   0.000%   0.000%   0.000%   0.000%   0.000%
   32    2.1  2.0  0.0   0.000%   0.000%   0.000%   0.000%   0.000%   0.000%   0.000%   0.000%   0.000%   0.000%
   33    3.1  2.0  0.0   0.000%   0.000%   0.000%   0.000%   0.000%   0.000%   0.000%   0.000%   0.000%   0.000%
   34    4.1  2.0  0.0   0.000%   0.000%   0.000%   0.000%   0.000%   0.000%   0.000%   0.000%   0.000%   0.000%
   35    5.1  2.0  0.0   0.000%   0.000%   0.000%   0.000%   0.000%   0.000%   0.000%   0.000%   0.000%   0.000%
   36    6.1  2.0  0.0   0.000%   0.000%   0.000%   0.000%   0.000%   0.000%   0.000%   0.000%   0.000%   0.000%
   37    7.1  2.0  0.0   0.000%   0.000%   0.000%   0.000%   0.000%   0.000%   0.000%   0.000%   0.000%   0.000%
   38    8.1  2.0  0.0   0.000%   0.000%   0.000%   0.000%   0.000%   0.000%   0.000%   0.000%   0.000%   0.000%
   39    9.1  2.0  0.0   0.000%   0.000%   0.000%   0.000%   0.000%   0.000%   0.000%   0.000%   0.000%   0.000%
   40   10.1  2.0  0.0   0.000%   0.000%   0.000%   0.000%   0.000%   0.000%   0.000%   0.000%   0.000%   0.000%
   41   11.1  2.0  0.0   0.000%   0.000%   0.000%   0.000%   0.000%   0.000%   0.000%   0.000%   0.000%   0.000%
   42   12.1  2.0  0.0   0.000%   0.000%   0.000%   0.000%   0.000%   0.000%   0.000%   0.000%   0.000%   0.000%
   43   13.1  2.0  0.0   0.000%   0.000%   0.000%   0.000%   0.000%  40.042%   0.000%   0.000%   0.000%  49.951%
   44   14.1  2.0  0.0   0.000%   0.000%   0.000%   0.000%   0.000%   0.000%  40.042%   0.000%   0.000%   0.000%
   45   15.1  2.0  0.0   0.000%   0.000%   0.000%   0.002%   0.000%   0.000%   0.000%  59.965%   0.000%   0.000%
   46    1.1  2.0 -1.0   0.000%   0.000%   0.000%   0.000%   0.000%   0.000%   0.000%   0.000%   0.000%   0.000%
   47    2.1  2.0 -1.0   0.000%   0.000%   0.000%   0.000%   0.000%   0.000%   0.000%   0.000%   0.000%   0.000%
   48    3.1  2.0 -1.0   0.000%   0.000%   0.000%   0.000%   0.000%   0.000%   0.000%   0.000%   0.000%   0.000%
   49    4.1  2.0 -1.0   0.000%   0.000%   0.000%   0.000%   0.000%   0.000%   0.000%   0.000%   0.000%   0.000%
   50    5.1  2.0 -1.0   0.000%   0.000%   0.000%   0.000%   0.000%   0.000%   0.000%   0.000%   0.000%   0.000%
   51    6.1  2.0 -1.0   0.000%   0.000%   0.000%   0.000%   0.000%   0.000%   0.000%   0.000%   0.000%   0.000%
   52    7.1  2.0 -1.0   0.000%   0.000%   0.000%   0.000%   0.000%   0.000%   0.000%   0.000%   0.000%   0.000%
   53    8.1  2.0 -1.0   0.001%   0.000%   0.000%   0.000%   0.000%   0.000%   0.000%   0.000%   0.000%   0.000%
   54    9.1  2.0 -1.0   0.000%   0.000%   0.000%   0.000%   0.000%   0.000%   0.000%   0.000%   0.000%   0.000%
   55   10.1  2.0 -1.0   0.004%   0.000%   0.000%   0.000%   0.000%   0.000%   0.000%   0.000%   0.000%   0.000%
   56   11.1  2.0 -1.0   0.004%   0.000%   0.000%   0.000%   0.000%   0.000%   0.000%   0.000%   0.000%   0.000%
   57   12.1  2.0 -1.0   0.000%   0.000%   0.000%   0.000%   0.000%   0.000%   0.000%   0.000%   0.000%   0.000%
   58   13.1  2.0 -1.0   0.000%   0.000%   0.000%  16.820%  16.680%   0.000%   0.000%   9.868%  25.065%   0.000%
   59   14.1  2.0 -1.0   0.000%   0.000%   0.000%  16.538%  16.679%   0.000%   0.000%  10.149%  24.935%   0.000%
   60   15.1  2.0 -1.0   0.000%   0.000%   0.000%   0.000%   0.000%  26.645%  26.645%   0.000%   0.000%   8.335%
   61    1.1  2.0 -2.0   0.000%   0.000%   0.000%   0.000%   0.000%   0.000%   0.000%   0.000%   0.000%   0.000%
   62    2.1  2.0 -2.0   0.000%   0.000%   0.000%   0.000%   0.000%   0.000%   0.000%   0.000%   0.000%   0.000%
   63    3.1  2.0 -2.0   0.000%   0.000%   0.000%   0.000%   0.000%   0.000%   0.000%   0.000%   0.000%   0.000%
   64    4.1  2.0 -2.0   0.000%   0.000%   0.000%   0.000%   0.000%   0.000%   0.000%   0.000%   0.000%   0.000%
   65    5.1  2.0 -2.0   0.000%   0.000%   0.000%   0.000%   0.000%   0.000%   0.000%   0.000%   0.000%   0.000%
   66    6.1  2.0 -2.0   0.011%   0.000%   0.000%   0.000%   0.000%   0.000%   0.000%   0.000%   0.000%   0.000%
   67    7.1  2.0 -2.0   0.011%   0.000%   0.000%   0.000%   0.000%   0.000%   0.000%   0.000%   0.000%   0.000%
   68    8.1  2.0 -2.0   0.000%   0.000%   0.000%   0.000%   0.000%   0.000%   0.000%   0.000%   0.000%   0.000%
   69    9.1  2.0 -2.0   0.000%   0.000%   0.000%   0.000%   0.000%   0.000%   0.000%   0.000%   0.000%   0.000%
   70   10.1  2.0 -2.0   0.000%   0.000%   0.000%   0.000%   0.000%   0.000%   0.000%   0.000%   0.000%   0.000%
   71   11.1  2.0 -2.0   0.000%   0.000%   0.000%   0.000%   0.000%   0.000%   0.000%   0.000%   0.000%   0.000%
   72   12.1  2.0 -2.0   0.000%   0.000%   0.000%   0.000%   0.000%   0.000%   0.000%   0.000%   0.000%   0.000%
   73   13.1  2.0 -2.0   0.000%  24.792%  25.243%   0.000%   0.000%   1.649%   1.649%   0.000%   0.000%   8.345%
   74   14.1  2.0 -2.0   0.000%  24.757%  25.207%   0.000%   0.000%   1.685%   1.684%   0.000%   0.000%   8.345%
   75   15.1  2.0 -2.0   0.000%   0.000%   0.000%  16.641%  16.641%   0.000%   0.000%   0.000%   0.000%   0.000%
   76    1.1  1.0  1.0   9.297%   0.000%   0.000%   0.000%   0.000%   0.000%   0.000%   0.000%   0.000%   0.000%
   77    2.1  1.0  1.0  10.559%   0.000%   0.000%   0.000%   0.000%   0.000%   0.000%   0.000%   0.000%   0.000%
   78    3.1  1.0  1.0   0.000%   0.000%   0.000%   0.000%   0.000%   0.000%   0.000%   0.000%   0.000%   0.000%
   79    4.1  1.0  1.0   0.000%   0.000%   0.000%   0.000%   0.000%   0.000%   0.000%   0.000%   0.000%   0.000%
   80    5.1  1.0  1.0   3.254%   0.000%   0.000%   0.000%   0.000%   0.000%   0.000%   0.000%   0.000%   0.000%
   81    6.1  1.0  1.0   0.000%   0.000%   0.000%   0.000%   0.000%   0.000%   0.000%   0.000%   0.000%   0.000%
   82    7.1  1.0  1.0   5.471%   0.000%   0.000%   0.000%   0.000%   0.000%   0.000%   0.000%   0.000%   0.000%
   83    1.1  1.0  0.0   0.000%   0.000%   0.000%   0.000%   0.000%   0.000%   0.000%   0.000%   0.000%   0.000%
   84    2.1  1.0  0.0   0.000%   0.000%   0.000%   0.000%   0.000%   0.000%   0.000%   0.000%   0.000%   0.000%
   85    3.1  1.0  0.0   0.000%   0.000%   0.000%   0.000%   0.000%   0.000%   0.000%   0.000%   0.000%   0.000%
   86    4.1  1.0  0.0   1.819%   0.000%   0.000%   0.000%   0.000%   0.000%   0.000%   0.000%   0.000%   0.000%
   87    5.1  1.0  0.0   0.000%   0.000%   0.000%   0.000%   0.000%   0.000%   0.000%   0.000%   0.000%   0.000%
   88    6.1  1.0  0.0  40.954%   0.000%   0.000%   0.000%   0.000%   0.000%   0.000%   0.000%   0.000%   0.000%
   89    7.1  1.0  0.0   0.000%   0.000%   0.000%   0.000%   0.000%   0.000%   0.000%   0.000%   0.000%   0.000%
   90    1.1  1.0 -1.0   9.297%   0.000%   0.000%   0.000%   0.000%   0.000%   0.000%   0.000%   0.000%   0.000%
   91    2.1  1.0 -1.0  10.559%   0.000%   0.000%   0.000%   0.000%   0.000%   0.000%   0.000%   0.000%   0.000%
   92    3.1  1.0 -1.0   0.000%   0.000%   0.000%   0.000%   0.000%   0.000%   0.000%   0.000%   0.000%   0.000%
   93    4.1  1.0 -1.0   0.000%   0.000%   0.000%   0.000%   0.000%   0.000%   0.000%   0.000%   0.000%   0.000%
   94    5.1  1.0 -1.0   3.254%   0.000%   0.000%   0.000%   0.000%   0.000%   0.000%   0.000%   0.000%   0.000%
   95    6.1  1.0 -1.0   0.000%   0.000%   0.000%   0.000%   0.000%   0.000%   0.000%   0.000%   0.000%   0.000%
   96    7.1  1.0 -1.0   5.471%   0.000%   0.000%   0.000%   0.000%   0.000%   0.000%   0.000%   0.000%   0.000%

   Nr   State  S   Sz      91       92       93       94       95       96

    1    1.1  2.0  2.0   0.000%   0.000%   0.000%   0.000%   0.000%   0.000%
    2    2.1  2.0  2.0   0.000%   0.000%   0.000%   0.000%   0.000%   0.000%
    3    3.1  2.0  2.0   0.000%   0.000%   0.000%   0.000%   0.000%   0.000%
    4    4.1  2.0  2.0   0.000%   0.000%   0.000%   0.000%   0.000%   0.000%
    5    5.1  2.0  2.0   0.000%   0.000%   0.000%   0.000%   0.000%   0.000%
    6    6.1  2.0  2.0   0.000%   0.000%   0.000%   0.000%   0.000%   0.000%
    7    7.1  2.0  2.0   0.000%   0.000%   0.000%   0.000%   0.000%   0.000%
    8    8.1  2.0  2.0   0.000%   0.000%   0.000%   0.000%   0.000%   0.000%
    9    9.1  2.0  2.0   0.000%   0.000%   0.000%   0.000%   0.000%   0.000%
   10   10.1  2.0  2.0   0.000%   0.000%   0.000%   0.000%   0.000%   0.000%
   11   11.1  2.0  2.0   0.000%   0.000%   0.000%   0.000%   0.000%   0.000%
   12   12.1  2.0  2.0   0.000%   0.000%   0.000%   0.000%   0.000%   0.000%
   13   13.1  2.0  2.0   8.345%   0.000%   0.000%  14.988%  14.988%   0.000%
   14   14.1  2.0  2.0   8.345%   0.000%   0.000%  14.988%  14.988%   0.000%
   15   15.1  2.0  2.0   0.000%  33.359%  33.358%   0.000%   0.000%   0.000%
   16    1.1  2.0  1.0   0.000%   0.000%   0.000%   0.000%   0.000%   0.000%
   17    2.1  2.0  1.0   0.000%   0.000%   0.000%   0.000%   0.000%   0.000%
   18    3.1  2.0  1.0   0.000%   0.000%   0.000%   0.000%   0.000%   0.000%
   19    4.1  2.0  1.0   0.000%   0.000%   0.000%   0.000%   0.000%   0.000%
   20    5.1  2.0  1.0   0.000%   0.000%   0.000%   0.000%   0.000%   0.000%
   21    6.1  2.0  1.0   0.000%   0.000%   0.000%   0.000%   0.000%   0.000%
   22    7.1  2.0  1.0   0.000%   0.000%   0.000%   0.000%   0.000%   0.000%
   23    8.1  2.0  1.0   0.000%   0.000%   0.000%   0.000%   0.000%   0.000%
   24    9.1  2.0  1.0   0.000%   0.000%   0.000%   0.000%   0.000%   0.000%
   25   10.1  2.0  1.0   0.000%   0.000%   0.000%   0.000%   0.000%   0.000%
   26   11.1  2.0  1.0   0.000%   0.000%   0.000%   0.000%   0.000%   0.000%
   27   12.1  2.0  1.0   0.000%   0.000%   0.000%   0.000%   0.000%   0.000%
   28   13.1  2.0  1.0   0.000%   8.321%   8.255%   0.000%   0.000%  14.992%
   29   14.1  2.0  1.0   0.000%   8.321%   8.386%   0.000%   0.000%  14.992%
   30   15.1  2.0  1.0   8.334%   0.000%   0.000%  15.020%  15.020%   0.000%
   31    1.1  2.0  0.0   0.000%   0.000%   0.000%   0.000%   0.000%   0.000%
   32    2.1  2.0  0.0   0.000%   0.000%   0.000%   0.000%   0.000%   0.000%
   33    3.1  2.0  0.0   0.000%   0.000%   0.000%   0.000%   0.000%   0.000%
   34    4.1  2.0  0.0   0.000%   0.000%   0.000%   0.000%   0.000%   0.000%
   35    5.1  2.0  0.0   0.000%   0.000%   0.000%   0.000%   0.000%   0.000%
   36    6.1  2.0  0.0   0.000%   0.000%   0.000%   0.000%   0.000%   0.000%
   37    7.1  2.0  0.0   0.000%   0.000%   0.000%   0.000%   0.000%   0.000%
   38    8.1  2.0  0.0   0.000%   0.000%   0.000%   0.000%   0.000%   0.000%
   39    9.1  2.0  0.0   0.000%   0.000%   0.000%   0.000%   0.000%   0.000%
   40   10.1  2.0  0.0   0.000%   0.000%   0.000%   0.000%   0.000%   0.000%
   41   11.1  2.0  0.0   0.000%   0.000%   0.000%   0.000%   0.000%   0.000%
   42   12.1  2.0  0.0   0.000%   0.000%   0.000%   0.000%   0.000%   0.000%
   43   13.1  2.0  0.0   0.000%   0.000%   0.000%  10.007%   0.000%   0.000%
   44   14.1  2.0  0.0  49.952%   0.000%   0.000%   0.000%  10.007%   0.000%
   45   15.1  2.0  0.0   0.000%   0.000%   0.000%   0.000%   0.000%  40.034%
   46    1.1  2.0 -1.0   0.000%   0.000%   0.000%   0.000%   0.000%   0.000%
   47    2.1  2.0 -1.0   0.000%   0.000%   0.000%   0.000%   0.000%   0.000%
   48    3.1  2.0 -1.0   0.000%   0.000%   0.000%   0.000%   0.000%   0.000%
   49    4.1  2.0 -1.0   0.000%   0.000%   0.000%   0.000%   0.000%   0.000%
   50    5.1  2.0 -1.0   0.000%   0.000%   0.000%   0.000%   0.000%   0.000%
   51    6.1  2.0 -1.0   0.000%   0.000%   0.000%   0.000%   0.000%   0.000%
   52    7.1  2.0 -1.0   0.000%   0.000%   0.000%   0.000%   0.000%   0.000%
   53    8.1  2.0 -1.0   0.000%   0.000%   0.000%   0.000%   0.000%   0.000%
   54    9.1  2.0 -1.0   0.000%   0.000%   0.000%   0.000%   0.000%   0.000%
   55   10.1  2.0 -1.0   0.000%   0.000%   0.000%   0.000%   0.000%   0.000%
   56   11.1  2.0 -1.0   0.000%   0.000%   0.000%   0.000%   0.000%   0.000%
   57   12.1  2.0 -1.0   0.000%   0.000%   0.000%   0.000%   0.000%   0.000%
   58   13.1  2.0 -1.0   0.000%   8.320%   8.255%   0.000%   0.000%  14.992%
   59   14.1  2.0 -1.0   0.000%   8.320%   8.386%   0.000%   0.000%  14.992%
   60   15.1  2.0 -1.0   8.334%   0.000%   0.000%  15.020%  15.020%   0.000%
   61    1.1  2.0 -2.0   0.000%   0.000%   0.000%   0.000%   0.000%   0.000%
   62    2.1  2.0 -2.0   0.000%   0.000%   0.000%   0.000%   0.000%   0.000%
   63    3.1  2.0 -2.0   0.000%   0.000%   0.000%   0.000%   0.000%   0.000%
   64    4.1  2.0 -2.0   0.000%   0.000%   0.000%   0.000%   0.000%   0.000%
   65    5.1  2.0 -2.0   0.000%   0.000%   0.000%   0.000%   0.000%   0.000%
   66    6.1  2.0 -2.0   0.000%   0.000%   0.000%   0.000%   0.000%   0.000%
   67    7.1  2.0 -2.0   0.000%   0.000%   0.000%   0.000%   0.000%   0.000%
   68    8.1  2.0 -2.0   0.000%   0.000%   0.000%   0.000%   0.000%   0.000%
   69    9.1  2.0 -2.0   0.000%   0.000%   0.000%   0.000%   0.000%   0.000%
   70   10.1  2.0 -2.0   0.000%   0.000%   0.000%   0.000%   0.000%   0.000%
   71   11.1  2.0 -2.0   0.000%   0.000%   0.000%   0.000%   0.000%   0.000%
   72   12.1  2.0 -2.0   0.000%   0.000%   0.000%   0.000%   0.000%   0.000%
   73   13.1  2.0 -2.0   8.345%   0.000%   0.000%  14.988%  14.988%   0.000%
   74   14.1  2.0 -2.0   8.345%   0.000%   0.000%  14.988%  14.988%   0.000%
   75   15.1  2.0 -2.0   0.000%  33.358%  33.359%   0.000%   0.000%   0.000%
   76    1.1  1.0  1.0   0.000%   0.000%   0.000%   0.000%   0.000%   0.000%
   77    2.1  1.0  1.0   0.000%   0.000%   0.000%   0.000%   0.000%   0.000%
   78    3.1  1.0  1.0   0.000%   0.000%   0.000%   0.000%   0.000%   0.000%
   79    4.1  1.0  1.0   0.000%   0.000%   0.000%   0.000%   0.000%   0.000%
   80    5.1  1.0  1.0   0.000%   0.000%   0.000%   0.000%   0.000%   0.000%
   81    6.1  1.0  1.0   0.000%   0.000%   0.000%   0.000%   0.000%   0.000%
   82    7.1  1.0  1.0   0.000%   0.000%   0.000%   0.000%   0.000%   0.000%
   83    1.1  1.0  0.0   0.000%   0.000%   0.000%   0.000%   0.000%   0.000%
   84    2.1  1.0  0.0   0.000%   0.000%   0.000%   0.000%   0.000%   0.000%
   85    3.1  1.0  0.0   0.000%   0.000%   0.000%   0.000%   0.000%   0.000%
   86    4.1  1.0  0.0   0.000%   0.000%   0.000%   0.000%   0.000%   0.000%
   87    5.1  1.0  0.0   0.000%   0.000%   0.000%   0.000%   0.000%   0.000%
   88    6.1  1.0  0.0   0.000%   0.000%   0.000%   0.000%   0.000%   0.000%
   89    7.1  1.0  0.0   0.000%   0.000%   0.000%   0.000%   0.000%   0.000%
   90    1.1  1.0 -1.0   0.000%   0.000%   0.000%   0.000%   0.000%   0.000%
   91    2.1  1.0 -1.0   0.000%   0.000%   0.000%   0.000%   0.000%   0.000%
   92    3.1  1.0 -1.0   0.000%   0.000%   0.000%   0.000%   0.000%   0.000%
   93    4.1  1.0 -1.0   0.000%   0.000%   0.000%   0.000%   0.000%   0.000%
   94    5.1  1.0 -1.0   0.000%   0.000%   0.000%   0.000%   0.000%   0.000%
   95    6.1  1.0 -1.0   0.000%   0.000%   0.000%   0.000%   0.000%   0.000%
   96    7.1  1.0 -1.0   0.000%   0.000%   0.000%   0.000%   0.000%   0.000%


 Property matrices transformed in SO basis (not sym. adapted)
 ============================================================

 No matrix element <i|DMX|i> larger than 1E-10
 No matrix element <i|DMX|1> larger than 1E-10

 No matrix element <i|DMY|i> larger than 1E-10
 No matrix element <i|DMY|1> larger than 1E-10

 No matrix element <i|DMZ|i> larger than 1E-10
 No matrix element <i|DMZ|1> larger than 1E-10


 **********************************************************************************************************************************
 DATASETS  * FILE   NREC   LENGTH (MB)   RECORD NAMES
              1      24      163.69       500      610      700      900      950      970     1000      129      960     1700   
                                          VAR    BASINP    GEOM    SYMINP    ZMAT    AOBASIS   BASIS     P2S    ABASIS    OPER   
                                         1101     1401     1411     1412     1650     1100     1400     1410     1200     1210   
                                          SR      EKINR    POTR     PVPR    MOLCAS      S      EKIN      POT      H0       H01  
                                         1080     1600     1380     1700(1)
                                         AOSYM     SMH     JKOP     OPER   

              2       7      921.86       700     1000      520     2100     2140     5101     5102   
                                         GEOM     BASIS   MCVARS     RHF     MCSCF    MRCI     MRCI   

 PROGRAMS   *        TOTAL        CI        CI        CI     MULTI   RHF-SCF       INT
 CPU TIMES  *     19317.12  15294.00    990.47   3029.40      1.22      0.60      1.23
 REAL TIME  *     19785.71 SEC
 DISK USED  *       958.42 MB (local),        3.08 GB (total)
 SF USED    *         7.15 GB
 GA USED    *         0.00 MB       (max)       0.00 MB       (current)
 **********************************************************************************************************************************

 CI/cc-pWCVTZ-DK energy=  -1272.087254677756

              CI              CI           MULTI         RHF-SCF
  -1272.05513847  -1272.02539912  -1271.22834731  -1271.21844321
 **********************************************************************************************************************************
 Molpro calculation terminated
