
 Working directory              : /scratch/irikura/molpro.qDT5Iutuda/
 Global scratch directory       : /scratch/irikura/molpro.qDT5Iutuda/
 Wavefunction directory         : /home/irikura/wfu/
 Main file repository           : /scratch/irikura/molpro.qDT5Iutuda/

 id        : nistki

 Nodes     nprocs
 n1247.becn    3
 Distribution of processes:   nprocs(total)=    4   nprocs(compute)=    3   nprocs(helper)=    1
 GA implementation: MPI file
 GA implementation (serial work in mppx): MPI file

 Using customized tuning parameters: mindgm=1; mindgv=20; mindgc=4; mindgr=1; noblas=0; minvec=7
 default implementation of scratch files=sf  


 Variables initialized (1013), CPU time= 0.01 sec
 ***,Fe atom SOC
                                                                                 ! 5D, 5F, 5P and 3F
                                                                                 ! Use +Dav energies in SO-CI
 memory,3000,M;
 
 gprint,orbitals,civector;
 
 symmetry,xyz
 geometry={Fe}
 
 basis=cc-pwCV5Z-DK
 core,2,3
 
 set,dkho=101
 
                                                                                 ! initial orbitals
 {rhf;wf,sym=1, spin=4}
 
                                                                                 ! state-averaged casscf
 {multi
                                                                                 ! 15 quintets
     wf,sym=1,spin=4;state,15;
                                                                                 ! 7 triplets
     wf,sym=1,spin=2;state,7;
     expec2,lxx,lyy,lzz;
  }
 table, energy, ll
 title, Energies and &lt;L**2&gt; values
 
 {ci;wf,sym=1,spin=4;state,15;save,5101.2}
 hlsdiag = energd4
 {ci;wf,sym=1,spin=2;state,7;save,5102.2}
 hlsdiag(16) = energd4
 
 table, hlsdiag
 
                                                                                 !compute and diagonalize SO matrix
 {ci;hlsmat,ls,5101.2,5102.2;print,vls=0,hls=0}
 
 Commands initialized (815), CPU time= 0.01 sec, 669 directives.
 Default parameters read. Elapsed time= 0.15 sec

 Checking input...
 Passed
1


                                         ***  PROGRAM SYSTEM MOLPRO  ***
                                       Copyright, TTI GmbH Stuttgart, 2015
                                    Version 2021.3 linked Nov 22 2021 23:03:20


 **********************************************************************************************************************************
 LABEL *   Fe atom SOC                                                                   
  64 bit mpp version                                                                     DATE: 25-Aug-22          TIME: 17:15:21  
 **********************************************************************************************************************************

 SHA1:             8b8f1fffdd8ed686b3bdbdb000c23abeeca3c440
 **********************************************************************************************************************************

 Memory per process:      3000 MW
 Total memory per node:   9000 MW

 GA preallocation disabled
 GA check disabled

 Variable memory set to 3000.0 MW


 ZSYMEL=XYZ

 SETTING BASIS          =    CC-PWCV5Z-DK
 SETTING DKHO           =       101.00000000                                  


 Recomputing integrals since basis changed


 Using spherical harmonics

 Library entry FE     S cc-pwCV5Z-DK         selected for orbital group  1
 Library entry FE     P cc-pwCV5Z-DK         selected for orbital group  1
 Library entry FE     D cc-pwCV5Z-DK         selected for orbital group  1
 Library entry FE     F cc-pwCV5Z-DK         selected for orbital group  1
 Library entry FE     G cc-pwCV5Z-DK         selected for orbital group  1
 Library entry FE     H cc-pwCV5Z-DK         selected for orbital group  1
 Library entry FE     I cc-pwCV5Z-DK         selected for orbital group  1


 PROGRAM * SEWARD (Integral evaluation for generally contracted gaussian basis sets)     Author: Roland Lindh, 1990

 Geometry written to block  1 of record 700

 Orientation using atomic masses  
 Molecule type: Atom
 User-specified symmetry elements: XYZ
 Symmetry elements: XYZ
 Rotational constants:       0.0000000      0.0000000      0.0000000 GHz  (calculated with average atomic masses)

 Point group  Ci  



 ATOMIC COORDINATES

 NR  ATOM    CHARGE       X              Y              Z

   1  FE     26.00    0.000000000    0.000000000    0.000000000

 NUCLEAR CHARGE:                   26
 NUMBER OF PRIMITIVE AOS:         409
 NUMBER OF SYMMETRY AOS:          296
 NUMBER OF CONTRACTIONS:          211   (  113Ag  +   98Au  )
 NUMBER OF INNER CORE ORBITALS:     5   (    2Ag  +    3Au  )
 NUMBER OF OUTER CORE ORBITALS:     4   (    1Ag  +    3Au  )
 NUMBER OF VALENCE ORBITALS:        6   (    6Ag  +    0Au  )


 NUCLEAR REPULSION ENERGY    0.00000000

 One-electron integrals computed with SEWARD

 eXact-2-Component (X2C) method activated

 Computing Douglas-Kroll / X2C integrals

 AO integral compression algorithm  1   Integral accuracy      1.0D-11

     185.860 MB (compressed) written to integral file ( 12.1%)

     Node minimum: 48.759 MB, node maximum: 77.070 MB


 NUMBER OF SORTED TWO-ELECTRON INTEGRALS:   42087384.     BUFFER LENGTH:  32768
 NUMBER OF SEGMENTS:   3  SEGMENT LENGTH:   15999444      RECORD LENGTH: 524288

 Memory used in sort:      16.56 MW

 SORT1 READ   191636194. AND WROTE     6578168. INTEGRALS IN     21 RECORDS. CPU TIME:     0.83 SEC, REAL TIME:     0.90 SEC
 SORT2 READ    20393719. AND WROTE   126250860. INTEGRALS IN    558 RECORDS. CPU TIME:     0.73 SEC, REAL TIME:     0.79 SEC

 Node minimum:    42079856.  Node maximum:    42087384. integrals

 OPERATOR DM      FOR CENTER  0  COORDINATES:    0.000000    0.000000    0.000000

 EXTRA SYMMETRY OF AOS IN SYMMETRY 1:   1 1 1 1 1 1 1 1 1 1   1 2 3 4 5 6 2 3 4 5   6 2 3 4 5 6 2 3 4 5   6 2 3 4 5 6 2 3 4 5
                                        6 2 3 4 5 6 2 3 4 5   6 7 8 9101112131415   7 8 9101112131415 7   8 9101112131415 7 8
                                        9101112131415161718  19202122232425262728  16171819202122232425  262728
 EXTRA SYMMETRY OF AOS IN SYMMETRY 2:   1 2 3 1 2 3 1 2 3 1   2 3 1 2 3 1 2 3 1 2   3 1 2 3 1 2 3 1 2 3   4 5 6 7 8 910 4 5 6
                                        7 8 910 4 5 6 7 8 9  10 4 5 6 7 8 910 4 5   6 7 8 9101112131415  16171819202111121314
                                       15161718192021111213  1415161718192021

 Eigenvalues of metric

         1 0.385E-04 0.488E-03 0.643E-02 0.951E-02 0.951E-02 0.951E-02 0.951E-02 0.951E-02
         2 0.662E-04 0.662E-04 0.662E-04 0.196E-03 0.196E-03 0.196E-03 0.542E-01 0.542E-01


 **********************************************************************************************************************************
 DATASETS  * FILE   NREC   LENGTH (MB)   RECORD NAMES
              1      22       30.40       500      610      700      900      950      970     1000      129      960     1700   
                                          VAR    BASINP    GEOM    SYMINP    ZMAT    AOBASIS   BASIS     P2S    ABASIS    OPER   
                                         1101     1401     1411     1412     1650     1100     1400     1410     1200     1210   
                                          SR      EKINR    POTR     PVPR    MOLCAS      S      EKIN      POT      H0       H01  
                                         1080     1600   
                                         AOSYM     SMH  

 PROGRAMS   *        TOTAL       INT
 CPU TIMES  *         8.87      8.71
 REAL TIME  *        10.46 SEC
 DISK USED  *        30.74 MB (local),      491.82 MB (total)
 GA USED    *         0.00 MB       (max)       0.00 MB       (current)
 **********************************************************************************************************************************


 Program * Restricted Hartree-Fock

 Orbital guess generated from atomic densities. Full valence occupancy:    9   6

 Initial alpha occupancy:   9   6
 Initial beta  occupancy:   5   6

 NELEC=   26   SYM=1   MS2= 4   THRE=1.0D-08   THRD=3.2D-06   THRG=3.2D-06  HFMA2=F  DIIS_START=2   DIIS_MAX=10   DIIS_INCORE=F

 Level shifts:    0.00 (CLOSED)    0.00 (OPEN)    0.30 (GAP_MIN)

 ITER           ETOT              DE          GRAD        DDIFF     DIIS  NEXP   TIME(IT)  TIME(TOT)  DIAG
   1    -1271.20692064   -1271.20692064     0.00D+00     0.65D-01     0     0       0.18      0.34    start
   2    -1271.20487343       0.00204720     0.11D-01     0.35D-02     1     0       0.20      0.54    diag2
   3    -1271.27045259      -0.06557916     0.11D-01     0.18D-02     2     0       0.19      0.73    diag2
   4    -1271.27092618      -0.00047359     0.53D-03     0.22D-03     3     0       0.20      0.93    diag2
   5    -1271.27104489      -0.00011871     0.18D-03     0.15D-03     4     0       0.19      1.12    diag2
   6    -1271.27108847      -0.00004358     0.61D-04     0.13D-03     5     0       0.19      1.31    diag2
   7    -1271.27111904      -0.00003057     0.37D-04     0.77D-04     6     0       0.20      1.51    diag2
   8    -1271.27120368      -0.00008465     0.32D-04     0.25D-03     7     0       0.19      1.70    diag2
   9    -1271.27122487      -0.00002118     0.16D-04     0.18D-03     8     0       0.19      1.89    diag2
  10    -1271.27122535      -0.00000048     0.38D-05     0.28D-04     9     0       0.20      2.09    diag2/orth
  11    -1271.27122536      -0.00000001     0.12D-05     0.46D-05     9     0       0.20      2.29    diag2
  12    -1271.27122538      -0.00000001     0.85D-06     0.38D-05     9     0       0.20      2.49    diag2
  13    -1271.27122541      -0.00000003     0.71D-06     0.39D-05     9     0       0.20      2.69    diag2
  14    -1271.27122543      -0.00000003     0.55D-06     0.60D-05     9     0       0.19      2.88    diag2
  15    -1271.27122543      -0.00000000     0.15D-06     0.11D-05     9     0       0.20      3.08    diag2
  16    -1271.27122543      -0.00000000     0.30D-07     0.26D-06     0     0       0.20      3.28    diag

 Final alpha occupancy:   9   6
 Final beta  occupancy:   5   6

 !RHF STATE 1.1 Energy              -1271.271225431626
  RHF One-electron energy           -1760.848818657673
  RHF Two-electron energy             489.577593226047
  RHF Kinetic energy                 1323.929598301419
  RHF Nuclear energy                    0.000000000000
  RHF Virial quotient                  -0.960225700115

 !RHF STATE 1.1 Dipole moment           0.00000000     0.00000000     0.00000000
 Dipole moment /Debye                   0.00000000     0.00000000     0.00000000

 ELECTRON ORBITALS
 =================

  Orbital  Occupation    Energy    Cen Mu Typ  Coefficients
    1.1     2.00000  -263.48788     1  1  s    0.96068
    2.1     2.00000   -32.22139     1  2  s    1.01383
    3.1     2.00000    -4.04245     1  3  s    0.98551
    4.1     2.00000    -0.36167     1  1  d2-  0.99546
    5.1     2.00000    -0.36167     1  1  d0   0.99510
    6.1     1.00000    -0.45217     1  1  d1+  0.98891
    7.1     1.00000    -0.45217     1  1  d2+ -0.49887    1  1  d1-  0.85437
    8.1     1.00000    -0.45217     1  1  d2+  0.86600    1  1  d1-  0.49856
    9.1     1.00000    -0.23482     1  4  s    0.98489
    1.2     2.00000   -27.29274     1  1  px   0.99967
    2.2     2.00000   -27.29274     1  1  pz   0.99861
    3.2     2.00000   -27.29274     1  1  py   0.99850
    4.2     2.00000    -2.56596     1  2  px   0.99768
    5.2     2.00000    -2.56596     1  2  pz   0.99684
    6.2     2.00000    -2.56596     1  2  py   0.99843


 HOMO      9.1    -0.234816 =      -6.3897eV
 LUMO      7.2     0.035380 =       0.9627eV
 LUMO-HOMO         0.270195 =       7.3524eV

 Orbitals saved in record  2100.2


 **********************************************************************************************************************************
 DATASETS  * FILE   NREC   LENGTH (MB)   RECORD NAMES
              1      22       30.40       500      610      700      900      950      970     1000      129      960     1700   
                                          VAR    BASINP    GEOM    SYMINP    ZMAT    AOBASIS   BASIS     P2S    ABASIS    OPER   
                                         1101     1401     1411     1412     1650     1100     1400     1410     1200     1210   
                                          SR      EKINR    POTR     PVPR    MOLCAS      S      EKIN      POT      H0       H01  
                                         1080     1600   
                                         AOSYM     SMH  

              2       4        1.08       700     1000      520     2100   
                                         GEOM     BASIS   MCVARS     RHF  

 PROGRAMS   *        TOTAL   RHF-SCF       INT
 CPU TIMES  *        12.16      3.29      8.71
 REAL TIME  *        14.47 SEC
 DISK USED  *        34.67 MB (local),      503.60 MB (total)
 GA USED    *         0.00 MB       (max)       0.00 MB       (current)
 **********************************************************************************************************************************

 PROGRAM * MULTI (Direct Multiconfiguration SCF)       Authors: P.J. Knowles, H.-J. Werner (1984)
                                                                D.A. Kreplin, P.J. Knowles, H.-J. Werner (2019)

 Number of frozen core orbitals:    5 (   2   3 )
 Number of closed-shell orbitals:   4 (   1   3 )
 Number of active  orbitals:        6 (   6   0 )
 Number of external orbitals:     196 ( 104  92 )

 State symmetry 1

 Number of active electrons:   8    Spin symmetry=Quintet   Space symmetry=1
 Number of states:            15
 Number of CSFs:              15   (15 determinants, 15 intermediate states)

 State symmetry 2

 Number of active electrons:   8    Spin symmetry=Triplet   Space symmetry=1
 Number of states:             7
 Number of CSFs:             105   (120 determinants, 120 intermediate states)

 Valence orbitals read from record       2100.2  Type=RHF/CANONICAL  
 Frozen core orbitals read from record   2100.2  Type=RHF/CANONICAL  
 *** IN SYMMETRY 1 ORBITAL  2 SYMMETRY CONTAMINATION OF 0.207D-03 HAS BEEN REMOVED
 *** IN SYMMETRY 1 ORBITAL  3 SYMMETRY CONTAMINATION OF 0.258D-02 HAS BEEN REMOVED
 *** IN SYMMETRY 1 ORBITAL  4 SYMMETRY CONTAMINATION OF 0.106D+00 HAS BEEN REMOVED
 *** IN SYMMETRY 1 ORBITAL  5 SYMMETRY CONTAMINATION OF 0.109D+00 HAS BEEN REMOVED
 *** IN SYMMETRY 1 ORBITAL  6 SYMMETRY CONTAMINATION OF 0.178D+00 HAS BEEN REMOVED
 *** IN SYMMETRY 1 ORBITAL  7 SYMMETRY CONTAMINATION OF 0.447D+00 HAS BEEN REMOVED
 *** IN SYMMETRY 1 ORBITAL  8 SYMMETRY CONTAMINATION OF 0.399D+00 HAS BEEN REMOVED
 *** IN SYMMETRY 1 ORBITAL  9 SYMMETRY CONTAMINATION OF 0.357D-02 HAS BEEN REMOVED

 EXTRA SYMMETRY OF MOS IN SYMMETRY 1:   0 0 1 3 2 4 6 5 1 1   4 6 5 3 2 1 4 6 5 3   2 1 4 6 5 3 2 11412  15 810 91113 7 4 6 5
                                        3 2141215 810 91113   7 1 4 5 6 3 2141215   810 91113 719232426  202118172827162522 4
                                        5 6 3 2 114121510 8  13 911 7192324262021  18172816272225 4 5 6   2 3 1
 *** IN SYMMETRY 2 ORBITAL  1 SYMMETRY CONTAMINATION OF 0.316D-01 HAS BEEN REMOVED
 *** IN SYMMETRY 2 ORBITAL  2 SYMMETRY CONTAMINATION OF 0.597D-01 HAS BEEN REMOVED
 *** IN SYMMETRY 2 ORBITAL  3 SYMMETRY CONTAMINATION OF 0.658D-01 HAS BEEN REMOVED
 *** IN SYMMETRY 2 ORBITAL  4 SYMMETRY CONTAMINATION OF 0.849D-01 HAS BEEN REMOVED
 *** IN SYMMETRY 2 ORBITAL  5 SYMMETRY CONTAMINATION OF 0.104D+00 HAS BEEN REMOVED
 *** IN SYMMETRY 2 ORBITAL  6 SYMMETRY CONTAMINATION OF 0.709D-01 HAS BEEN REMOVED
 EXTRA SYMMETRY OF MOS IN SYMMETRY 2:   0 0 0 1 3 2 3 1 2 1   3 2 1 3 210 4 8 5 6   9 7 1 3 210 4 8 5 9   6 7 1 3 21417161315
                                       18212019111210 4 8 5   9 6 7 1 3 210 4 8 5   9 6 714171613151821  20111912 1 3 210 4 8
                                        5 9 6 7141716131518  2120111912 1 3 2

 Wavefunction dump at record             2140.2

 Convergence thresholds  0.10E-04 (gradient)  0.10E-05 (energy)

 Weight factors for state symmetry  1:    0.04545   0.04545   0.04545   0.04545   0.04545   0.04545   0.04545   0.04545
                                          0.04545   0.04545   0.04545   0.04545   0.04545   0.04545   0.04545
 Weight factors for state symmetry  2:    0.04545   0.04545   0.04545   0.04545   0.04545   0.04545   0.04545
 
 Number of orbital rotations:  1010  ( 6 closed/active, 380 closed/virtual, 0 active/active, 624 active/virtual )
 Total number of variables:    2075
 
 Second-order MCSCF: L-BFGS accelerated
 
 ITER  MIC  NCI  NEG     ENERGY(VAR)    ENERGY(PROJ) ENERGY CHANGE       GRAD(0)  GRAD(ORB)   GRAD(CI)      STEP      TIME
   1    5    8    0  -1271.24000347   -1271.24437043   -0.00436696    0.14150674 0.00000741 0.00000000  0.60E-01      0.86
   2    8   14    0  -1271.24431879   -1271.24432036   -0.00000157    0.00206364 0.00000003 0.00000000  0.15E-02      1.67
   3   21   42    0  -1271.24432036   -1271.24432036   -0.00000000    0.00000087 0.00000003 0.00000000  0.77E-06      2.72

 CONVERGENCE REACHED!  Final gradient:    0.00000003 ( 0.31E-07)
                       Final energy:  -1271.24432036
 
 Results for state 1.1 Quintet
 =============================
 !MCSCF STATE 1.1 Quintet Energy             -1271.270940003249
 Nuclear energy                                  0.00000000
 Kinetic energy                               1319.40124822
 One electron energy                         -1748.44191387
 Two electron energy                           477.17097387
 Virial ratio                                    1.96352110
 
 !MCSCF STATE 1.1 Quintet Dipole moment          0.00000000     0.00000000     0.00000000
 Dipole moment /Debye                            0.00000000     0.00000000     0.00000000
 
 Results for state 2.1 Quintet
 =============================
 !MCSCF STATE 2.1 Quintet Energy             -1271.270940002814
 Nuclear energy                                  0.00000000
 Kinetic energy                               1319.40124819
 One electron energy                         -1748.44191381
 Two electron energy                           477.17097381
 Virial ratio                                    1.96352110
 
 !MCSCF STATE 2.1 Quintet Dipole moment          0.00000000     0.00000000     0.00000000
 Dipole moment /Debye                            0.00000000     0.00000000     0.00000000
 
 Results for state 3.1 Quintet
 =============================
 !MCSCF STATE 3.1 Quintet Energy             -1271.270940001682
 Nuclear energy                                  0.00000000
 Kinetic energy                               1319.40124814
 One electron energy                         -1748.44191372
 Two electron energy                           477.17097372
 Virial ratio                                    1.96352110
 
 !MCSCF STATE 3.1 Quintet Dipole moment          0.00000000     0.00000000     0.00000000
 Dipole moment /Debye                            0.00000000     0.00000000     0.00000000
 
 Results for state 4.1 Quintet
 =============================
 !MCSCF STATE 4.1 Quintet Energy             -1271.270940001103
 Nuclear energy                                  0.00000000
 Kinetic energy                               1319.40124811
 One electron energy                         -1748.44191369
 Two electron energy                           477.17097368
 Virial ratio                                    1.96352110
 
 !MCSCF STATE 4.1 Quintet Dipole moment          0.00000000     0.00000000     0.00000000
 Dipole moment /Debye                            0.00000000     0.00000000     0.00000000
 
 Results for state 5.1 Quintet
 =============================
 !MCSCF STATE 5.1 Quintet Energy             -1271.270940000633
 Nuclear energy                                  0.00000000
 Kinetic energy                               1319.40124808
 One electron energy                         -1748.44191362
 Two electron energy                           477.17097362
 Virial ratio                                    1.96352110
 
 !MCSCF STATE 5.1 Quintet Dipole moment          0.00000000     0.00000000     0.00000000
 Dipole moment /Debye                            0.00000000     0.00000000     0.00000000
 
 Results for state 6.1 Quintet
 =============================
 !MCSCF STATE 6.1 Quintet Energy             -1271.262004090145
 Nuclear energy                                  0.00000000
 Kinetic energy                               1325.27670045
 One electron energy                         -1763.15115935
 Two electron energy                           491.88915526
 Virial ratio                                    1.95924270
 
 !MCSCF STATE 6.1 Quintet Dipole moment          0.00000000     0.00000000     0.00000000
 Dipole moment /Debye                            0.00000000     0.00000000     0.00000000
 
 Results for state 7.1 Quintet
 =============================
 !MCSCF STATE 7.1 Quintet Energy             -1271.262004089780
 Nuclear energy                                  0.00000000
 Kinetic energy                               1325.27670048
 One electron energy                         -1763.15115940
 Two electron energy                           491.88915531
 Virial ratio                                    1.95924270
 
 !MCSCF STATE 7.1 Quintet Dipole moment          0.00000000     0.00000000     0.00000000
 Dipole moment /Debye                            0.00000000     0.00000000     0.00000000
 
 Results for state 8.1 Quintet
 =============================
 !MCSCF STATE 8.1 Quintet Energy             -1271.262004089259
 Nuclear energy                                  0.00000000
 Kinetic energy                               1325.27670050
 One electron energy                         -1763.15115944
 Two electron energy                           491.88915535
 Virial ratio                                    1.95924270
 
 !MCSCF STATE 8.1 Quintet Dipole moment          0.00000000     0.00000000     0.00000000
 Dipole moment /Debye                            0.00000000     0.00000000     0.00000000
 
 Results for state 9.1 Quintet
 =============================
 !MCSCF STATE 9.1 Quintet Energy             -1271.262004088708
 Nuclear energy                                  0.00000000
 Kinetic energy                               1325.27670054
 One electron energy                         -1763.15115951
 Two electron energy                           491.88915542
 Virial ratio                                    1.95924270
 
 !MCSCF STATE 9.1 Quintet Dipole moment          0.00000000     0.00000000     0.00000000
 Dipole moment /Debye                            0.00000000     0.00000000     0.00000000
 
 Results for state 10.1 Quintet
 ==============================
 !MCSCF STATE 10.1 Quintet Energy            -1271.262004088685
 Nuclear energy                                  0.00000000
 Kinetic energy                               1325.27670055
 One electron energy                         -1763.15115951
 Two electron energy                           491.88915543
 Virial ratio                                    1.95924270
 
 !MCSCF STATE 10.1 Quintet Dipole moment         0.00000000     0.00000000     0.00000000
 Dipole moment /Debye                            0.00000000     0.00000000     0.00000000
 
 Results for state 11.1 Quintet
 ==============================
 !MCSCF STATE 11.1 Quintet Energy            -1271.262004088127
 Nuclear energy                                  0.00000000
 Kinetic energy                               1325.27670058
 One electron energy                         -1763.15115957
 Two electron energy                           491.88915548
 Virial ratio                                    1.95924270
 
 !MCSCF STATE 11.1 Quintet Dipole moment         0.00000000     0.00000000     0.00000000
 Dipole moment /Debye                            0.00000000     0.00000000     0.00000000
 
 Results for state 12.1 Quintet
 ==============================
 !MCSCF STATE 12.1 Quintet Energy            -1271.262004087061
 Nuclear energy                                  0.00000000
 Kinetic energy                               1325.27670065
 One electron energy                         -1763.15115969
 Two electron energy                           491.88915560
 Virial ratio                                    1.95924270
 
 !MCSCF STATE 12.1 Quintet Dipole moment         0.00000000     0.00000000     0.00000000
 Dipole moment /Debye                            0.00000000     0.00000000     0.00000000
 
 Results for state 13.1 Quintet
 ==============================
 !MCSCF STATE 13.1 Quintet Energy            -1271.189183461015
 Nuclear energy                                  0.00000000
 Kinetic energy                               1325.27670051
 One electron energy                         -1763.15115945
 Two electron energy                           491.96197599
 Virial ratio                                    1.95918776
 
 !MCSCF STATE 13.1 Quintet Dipole moment         0.00000000     0.00000000     0.00000000
 Dipole moment /Debye                            0.00000000     0.00000000     0.00000000
 
 Results for state 14.1 Quintet
 ==============================
 !MCSCF STATE 14.1 Quintet Energy            -1271.189183460138
 Nuclear energy                                  0.00000000
 Kinetic energy                               1325.27670055
 One electron energy                         -1763.15115951
 Two electron energy                           491.96197605
 Virial ratio                                    1.95918776
 
 !MCSCF STATE 14.1 Quintet Dipole moment         0.00000000     0.00000000     0.00000000
 Dipole moment /Debye                            0.00000000     0.00000000     0.00000000
 
 Results for state 15.1 Quintet
 ==============================
 !MCSCF STATE 15.1 Quintet Energy            -1271.189183459661
 Nuclear energy                                  0.00000000
 Kinetic energy                               1325.27670054
 One electron energy                         -1763.15115952
 Two electron energy                           491.96197606
 Virial ratio                                    1.95918776
 
 !MCSCF STATE 15.1 Quintet Dipole moment         0.00000000     0.00000000     0.00000000
 Dipole moment /Debye                            0.00000000     0.00000000     0.00000000
 
 Results for state 1.1 Triplet
 =============================
 !MCSCF STATE 1.1 Triplet Energy             -1271.231252701979
 Nuclear energy                                  0.00000000
 Kinetic energy                               1325.24271824
 One electron energy                         -1763.06608460
 Two electron energy                           491.83483190
 Virial ratio                                    1.95924410
 
 !MCSCF STATE 1.1 Triplet Dipole moment          0.00000000     0.00000000     0.00000000
 Dipole moment /Debye                            0.00000000     0.00000000     0.00000000
 
 Results for state 2.1 Triplet
 =============================
 !MCSCF STATE 2.1 Triplet Energy             -1271.231252701525
 Nuclear energy                                  0.00000000
 Kinetic energy                               1325.24271827
 One electron energy                         -1763.06608465
 Two electron energy                           491.83483195
 Virial ratio                                    1.95924410
 
 !MCSCF STATE 2.1 Triplet Dipole moment          0.00000000     0.00000000     0.00000000
 Dipole moment /Debye                            0.00000000     0.00000000     0.00000000
 
 Results for state 3.1 Triplet
 =============================
 !MCSCF STATE 3.1 Triplet Energy             -1271.231252700922
 Nuclear energy                                  0.00000000
 Kinetic energy                               1325.24271829
 One electron energy                         -1763.06608469
 Two electron energy                           491.83483199
 Virial ratio                                    1.95924410
 
 !MCSCF STATE 3.1 Triplet Dipole moment          0.00000000     0.00000000     0.00000000
 Dipole moment /Debye                            0.00000000     0.00000000     0.00000000
 
 Results for state 4.1 Triplet
 =============================
 !MCSCF STATE 4.1 Triplet Energy             -1271.231252700247
 Nuclear energy                                  0.00000000
 Kinetic energy                               1325.24271833
 One electron energy                         -1763.06608475
 Two electron energy                           491.83483205
 Virial ratio                                    1.95924410
 
 !MCSCF STATE 4.1 Triplet Dipole moment          0.00000000     0.00000000     0.00000000
 Dipole moment /Debye                            0.00000000     0.00000000     0.00000000
 
 Results for state 5.1 Triplet
 =============================
 !MCSCF STATE 5.1 Triplet Energy             -1271.231252700222
 Nuclear energy                                  0.00000000
 Kinetic energy                               1325.24271834
 One electron energy                         -1763.06608476
 Two electron energy                           491.83483206
 Virial ratio                                    1.95924410
 
 !MCSCF STATE 5.1 Triplet Dipole moment          0.00000000     0.00000000     0.00000000
 Dipole moment /Debye                            0.00000000     0.00000000     0.00000000
 
 Results for state 6.1 Triplet
 =============================
 !MCSCF STATE 6.1 Triplet Energy             -1271.231252699569
 Nuclear energy                                  0.00000000
 Kinetic energy                               1325.24271836
 One electron energy                         -1763.06608481
 Two electron energy                           491.83483211
 Virial ratio                                    1.95924410
 
 !MCSCF STATE 6.1 Triplet Dipole moment          0.00000000     0.00000000     0.00000000
 Dipole moment /Debye                            0.00000000     0.00000000     0.00000000
 
 Results for state 7.1 Triplet
 =============================
 !MCSCF STATE 7.1 Triplet Energy             -1271.231252698276
 Nuclear energy                                  0.00000000
 Kinetic energy                               1325.24271843
 One electron energy                         -1763.06608492
 Two electron energy                           491.83483222
 Virial ratio                                    1.95924410
 
 !MCSCF STATE 7.1 Triplet Dipole moment          0.00000000     0.00000000     0.00000000
 Dipole moment /Debye                            0.00000000     0.00000000     0.00000000
 
 State-averaged charge density matrix saved on record 2140.2 (density set 1)
 
 No non-zero expectation values
 
 Expectation values for two-electron operators:
 
 !MCSCF expec      <1.1 Quintet|LXLX|1.1 Quintet>     1.000000009628
 !MCSCF expec      <2.1 Quintet|LXLX|2.1 Quintet>     2.883685921309
 !MCSCF expec      <3.1 Quintet|LXLX|3.1 Quintet>     3.999999984755
 !MCSCF expec      <4.1 Quintet|LXLX|4.1 Quintet>     1.116318689481
 !MCSCF expec      <5.1 Quintet|LXLX|5.1 Quintet>     1.000000006594
 !MCSCF expec      <6.1 Quintet|LXLX|6.1 Quintet>     3.299110067840
 !MCSCF expec      <7.1 Quintet|LXLX|7.1 Quintet>     5.928033552587
 !MCSCF expec      <8.1 Quintet|LXLX|8.1 Quintet>     3.651186492596
 !MCSCF expec      <9.1 Quintet|LXLX|9.1 Quintet>     3.999999592106
 !MCSCF expec    <10.1 Quintet|LXLX|10.1 Quintet>     0.348798998340
 !MCSCF expec    <11.1 Quintet|LXLX|11.1 Quintet>     6.700915034949
 !MCSCF expec    <12.1 Quintet|LXLX|12.1 Quintet>     4.071966445194
 !MCSCF expec    <13.1 Quintet|LXLX|13.1 Quintet>     0.999999999755
 !MCSCF expec    <14.1 Quintet|LXLX|14.1 Quintet>     0.000000013010
 !MCSCF expec    <15.1 Quintet|LXLX|15.1 Quintet>     0.999999987379
 !MCSCF expec      <1.1 Triplet|LXLX|1.1 Triplet>     3.276456386528
 !MCSCF expec      <2.1 Triplet|LXLX|2.1 Triplet>     5.942417760362
 !MCSCF expec      <3.1 Triplet|LXLX|3.1 Triplet>     3.613588210650
 !MCSCF expec      <4.1 Triplet|LXLX|4.1 Triplet>     3.999999956376
 !MCSCF expec      <5.1 Triplet|LXLX|5.1 Triplet>     0.386411493977
 !MCSCF expec      <6.1 Triplet|LXLX|6.1 Triplet>     6.723585970473
 !MCSCF expec      <7.1 Triplet|LXLX|7.1 Triplet>     4.057575116153
 
 !MCSCF expec      <1.1 Quintet|LYLY|1.1 Quintet>     1.000000077258
 !MCSCF expec      <2.1 Quintet|LYLY|2.1 Quintet>     3.111966592241
 !MCSCF expec      <3.1 Quintet|LYLY|3.1 Quintet>     1.000000014374
 !MCSCF expec      <4.1 Quintet|LYLY|4.1 Quintet>     0.888029062854
 !MCSCF expec      <5.1 Quintet|LYLY|5.1 Quintet>     3.999999980600
 !MCSCF expec      <6.1 Quintet|LYLY|6.1 Quintet>     3.965308298018
 !MCSCF expec      <7.1 Quintet|LYLY|7.1 Quintet>     6.071622756515
 !MCSCF expec      <8.1 Quintet|LYLY|8.1 Quintet>     1.989014921313
 !MCSCF expec      <9.1 Quintet|LYLY|9.1 Quintet>     4.000000171089
 !MCSCF expec    <10.1 Quintet|LYLY|10.1 Quintet>     8.010948836987
 !MCSCF expec    <11.1 Quintet|LYLY|11.1 Quintet>     0.034694873586
 !MCSCF expec    <12.1 Quintet|LYLY|12.1 Quintet>     3.928377210697
 !MCSCF expec    <13.1 Quintet|LYLY|13.1 Quintet>     0.000000000447
 !MCSCF expec    <14.1 Quintet|LYLY|14.1 Quintet>     0.999999999611
 !MCSCF expec    <15.1 Quintet|LYLY|15.1 Quintet>     0.999999999798
 !MCSCF expec      <1.1 Triplet|LYLY|1.1 Triplet>     3.962945475728
 !MCSCF expec      <2.1 Triplet|LYLY|2.1 Triplet>     6.057361966751
 !MCSCF expec      <3.1 Triplet|LYLY|3.1 Triplet>     1.904920661443
 !MCSCF expec      <4.1 Triplet|LYLY|4.1 Triplet>     3.999999985167
 !MCSCF expec      <5.1 Triplet|LYLY|5.1 Triplet>     8.095077733138
 !MCSCF expec      <6.1 Triplet|LYLY|6.1 Triplet>     0.037059410777
 !MCSCF expec      <7.1 Triplet|LYLY|7.1 Triplet>     3.942645042359
 
 !MCSCF expec      <1.1 Quintet|LZLZ|1.1 Quintet>     3.999999913115
 !MCSCF expec      <2.1 Quintet|LZLZ|2.1 Quintet>     0.004347486450
 !MCSCF expec      <3.1 Quintet|LZLZ|3.1 Quintet>     1.000000000871
 !MCSCF expec      <4.1 Quintet|LZLZ|4.1 Quintet>     3.995652247665
 !MCSCF expec      <5.1 Quintet|LZLZ|5.1 Quintet>     1.000000012806
 !MCSCF expec      <6.1 Quintet|LZLZ|6.1 Quintet>     4.735581634142
 !MCSCF expec      <7.1 Quintet|LZLZ|7.1 Quintet>     0.000343690898
 !MCSCF expec      <8.1 Quintet|LZLZ|8.1 Quintet>     6.359798586091
 !MCSCF expec      <9.1 Quintet|LZLZ|9.1 Quintet>     4.000000236805
 !MCSCF expec    <10.1 Quintet|LZLZ|10.1 Quintet>     3.640252164672
 !MCSCF expec    <11.1 Quintet|LZLZ|11.1 Quintet>     5.264390091465
 !MCSCF expec    <12.1 Quintet|LZLZ|12.1 Quintet>     3.999656344109
 !MCSCF expec    <13.1 Quintet|LZLZ|13.1 Quintet>     0.999999999798
 !MCSCF expec    <14.1 Quintet|LZLZ|14.1 Quintet>     0.999999987379
 !MCSCF expec    <15.1 Quintet|LZLZ|15.1 Quintet>     0.000000012823
 !MCSCF expec      <1.1 Triplet|LZLZ|1.1 Triplet>     4.760598137744
 !MCSCF expec      <2.1 Triplet|LZLZ|2.1 Triplet>     0.000220272888
 !MCSCF expec      <3.1 Triplet|LZLZ|3.1 Triplet>     6.481491127907
 !MCSCF expec      <4.1 Triplet|LZLZ|4.1 Triplet>     4.000000058457
 !MCSCF expec      <5.1 Triplet|LZLZ|5.1 Triplet>     3.518510772885
 !MCSCF expec      <6.1 Triplet|LZLZ|6.1 Triplet>     5.239354618751
 !MCSCF expec      <7.1 Triplet|LZLZ|7.1 Triplet>     3.999779841489
 
 !MCSCF expec      <1.1 Quintet|L**2|1.1 Quintet>     6.000000000000
 !MCSCF expec      <2.1 Quintet|L**2|2.1 Quintet>     6.000000000000
 !MCSCF expec      <3.1 Quintet|L**2|3.1 Quintet>     6.000000000000
 !MCSCF expec      <4.1 Quintet|L**2|4.1 Quintet>     6.000000000000
 !MCSCF expec      <5.1 Quintet|L**2|5.1 Quintet>     6.000000000000
 !MCSCF expec      <6.1 Quintet|L**2|6.1 Quintet>    12.000000000000
 !MCSCF expec      <7.1 Quintet|L**2|7.1 Quintet>    12.000000000000
 !MCSCF expec      <8.1 Quintet|L**2|8.1 Quintet>    12.000000000000
 !MCSCF expec      <9.1 Quintet|L**2|9.1 Quintet>    12.000000000000
 !MCSCF expec    <10.1 Quintet|L**2|10.1 Quintet>    12.000000000000
 !MCSCF expec    <11.1 Quintet|L**2|11.1 Quintet>    12.000000000000
 !MCSCF expec    <12.1 Quintet|L**2|12.1 Quintet>    12.000000000000
 !MCSCF expec    <13.1 Quintet|L**2|13.1 Quintet>     2.000000000000
 !MCSCF expec    <14.1 Quintet|L**2|14.1 Quintet>     2.000000000000
 !MCSCF expec    <15.1 Quintet|L**2|15.1 Quintet>     2.000000000000
 !MCSCF expec      <1.1 Triplet|L**2|1.1 Triplet>    12.000000000000
 !MCSCF expec      <2.1 Triplet|L**2|2.1 Triplet>    12.000000000000
 !MCSCF expec      <3.1 Triplet|L**2|3.1 Triplet>    12.000000000000
 !MCSCF expec      <4.1 Triplet|L**2|4.1 Triplet>    12.000000000000
 !MCSCF expec      <5.1 Triplet|L**2|5.1 Triplet>    12.000000000000
 !MCSCF expec      <6.1 Triplet|L**2|6.1 Triplet>    12.000000000000
 !MCSCF expec      <7.1 Triplet|L**2|7.1 Triplet>    12.000000000000
 
 EXTRA SYMMETRY OF MOS IN SYMMETRY 1:   0 0 1 4 3 2 5 6 1 1   3 4 2 5 6 1 4 3 2 5   6 1 4 3 2 5 6 11310   9141512 8 711 4 3 2
                                        5 61013 9151412 8 7  11 1 4 3 5 2 6131015  14 912 8 71116222018  192421282326251727 5
                                        3 4 2 6 11013151412   9 8 711162218201924  21282623251727 5 3 4   2 6 1
 EXTRA SYMMETRY OF MOS IN SYMMETRY 2:   0 0 0 1 3 2 1 3 2 1   2 3 1 2 3 4 9 7 810   6 5 1 2 3 4 7 9 8 6  10 5 1 2 32018171511
                                       131416211912 4 9 7 8  10 6 5 1 2 3 7 9 410   8 6 518201715131614  11192112 3 1 2 7 910
                                        4 8 6 5182015171614  1311192112 3 1 2
 
  NATURAL ORBITALS (STATE AVERAGED)
  =================================

  Orbital  Occupation    Energy    Cen Mu Typ  Coefficients
    3.1     2.00000    -4.08819     1  3  s    0.98553
    4.1     1.35418    -0.16355     1  1  d1+  1.00040
    5.1     1.35418    -0.16355     1  1  d2-  1.00040
    6.1     1.35418    -0.16355     1  1  d0   1.00040
    7.1     1.35418    -0.16355     1  1  d2+  1.00040
    8.1     1.35418    -0.16355     1  1  d1-  1.00040
    9.1     1.22911    -0.12864     1  4  s    0.99377
    4.2     2.00000    -2.60812     1  2  px   0.99986
    5.2     2.00000    -2.60812     1  2  pz   0.99986
    6.2     2.00000    -2.60812     1  2  py   0.99986
 
 Natural orbital dump (state averaged) at molpro section 2140.2 (Orbital set 2)
 
 Transform the CI vectors
 
 CI Coefficients of symmetry 1 (Quintet)
 =======================================

 State:              1               2               3               4               5               6               7
 aaaa22        -0.00003036      0.00005722      1.00000000      0.00000522     -0.00004709      0.00000000      0.00000000
 2aaaa2         0.00000467      0.00000042      0.00004709     -0.00006570      1.00000000     -0.00000001      0.00000000
 a2aaa2         0.99999999      0.00014719      0.00003035      0.00006521     -0.00000467      0.00000000     -0.00000000
 aa22aa         0.00000000     -0.00000000      0.00000000      0.00000000      0.00000000     -0.00000579     -0.00002315
 a22aaa        -0.00000001     -0.00000000      0.00000000     -0.00000000      0.00000000     -0.00000043      0.00926904
 aaa2a2        -0.00007003      0.03296740     -0.00000710      0.99945642      0.00006565      0.00000000     -0.00000000
 aa2aa2        -0.00014496      0.99945642     -0.00005702     -0.03296741     -0.00000258     -0.00000000      0.00000000
 a2a2aa         0.00000000     -0.00000000     -0.00000000      0.00000000     -0.00000000     -0.00002021      0.44719437
 2aaa2a         0.00000000     -0.00000000     -0.00000000      0.00000000     -0.00000000     -0.00004042      0.89438877
 aaa22a         0.00000000     -0.00000000      0.00000000     -0.00000000      0.00000000     -0.00001444      0.00001370
 a2aa2a        -0.00000000     -0.00000000     -0.00000000     -0.00000000     -0.00000001      0.08329672      0.00002458
 2aa2aa        -0.00000000      0.00000000      0.00000000     -0.00000000      0.00000000      0.88308592      0.00004323
 22aaaa        -0.00000000     -0.00000000      0.00000001      0.00000000     -0.00000000     -0.00004389     -0.00002728
 aa2a2a        -0.00000000     -0.00000000      0.00000001     -0.00000000      0.00000000     -0.00003368     -0.00000784
 2a2aaa        -0.00000000     -0.00000000     -0.00000000      0.00000000     -0.00000001     -0.46175850     -0.00001077
 
 Energy:    -1271.27094000  -1271.27094000  -1271.27094000  -1271.27094000  -1271.27094000  -1271.26200409  -1271.26200409

 State:              8               9              10              11              12              13              14
 aaaa22        -0.00000000      0.00000000     -0.00000001     -0.00000000     -0.00000000      0.00000000     -0.00000000
 2aaaa2        -0.00000000     -0.00000000     -0.00000000      0.00000001     -0.00000000      0.00000000     -0.00000000
 a2aaa2        -0.00000000      0.00000000      0.00000000      0.00000000      0.00000001     -0.00000000     -0.00000000
 aa22aa        -0.00010940      0.99999995      0.00029547     -0.00002286     -0.00008842     -0.00000000     -0.00000000
 a22aaa         0.00000947      0.00008862      0.00001646      0.00005972      0.99995704      0.00000000     -0.00000000
 aaa2a2         0.00000000     -0.00000000     -0.00000000      0.00000000      0.00000000      0.00000000     -0.00000000
 aa2aa2         0.00000000      0.00000000      0.00000000      0.00000000     -0.00000000      0.00000000      0.00000000
 a2a2aa        -0.00000746      0.00000998      0.00001192     -0.00001070     -0.00414524     -0.00001270     -0.00010048
 2aaa2a        -0.00001492      0.00001996      0.00002384     -0.00002140     -0.00829048      0.00000635      0.00005024
 aaa22a         0.89343562      0.00008530      0.04210441      0.00010941     -0.00000929     -0.00000700     -0.44721359
 a2aa2a        -0.00009777      0.00002088     -0.00021099      0.89054005     -0.00005337     -0.44721361      0.00000700
 2aa2aa        -0.00000381      0.00000836      0.00001468      0.14198333     -0.00000851      0.44721359     -0.00000700
 22aaaa        -0.26412631     -0.00028138      0.85453916      0.00017757     -0.00001130     -0.00000700     -0.44721359
 aa2a2a         0.36333189     -0.00011321      0.51767740      0.00016569     -0.00001189      0.00001213      0.77459667
 2a2aaa        -0.00005425      0.00000723     -0.00013029      0.43217944     -0.00002590      0.77459667     -0.00001213
 
 Energy:    -1271.26200409  -1271.26200409  -1271.26200409  -1271.26200409  -1271.26200409  -1271.18918346  -1271.18918346

 State:             15
 aaaa22        -0.00000000
 2aaaa2        -0.00000000
 a2aaa2         0.00000000
 aa22aa         0.00000000
 a22aaa        -0.00000000
 aaa2a2        -0.00000000
 aa2aa2        -0.00000000
 a2a2aa         0.89442719
 2aaa2a        -0.44721358
 aaa22a        -0.00005024
 a2aa2a        -0.00000635
 2aa2aa         0.00000635
 22aaaa        -0.00005024
 aa2a2a         0.00008702
 2a2aaa         0.00001100
 
 Energy:    -1271.18918346
 
 
 CI Coefficients of symmetry 1 (Triplet)
 =======================================
 
 aa22ab        -0.00000621     -0.00001722     -0.00007927      0.86351397      0.00006243     -0.00002951     -0.00006402
 a22aab         0.00000382      0.00640712      0.00002767      0.00006414      0.00001284      0.00003297      0.86349021
 2aaa2b        -0.00007022      0.77232913     -0.00001911      0.00001498      0.00001455     -0.00001136     -0.00573070
 aaa22b         0.00001191      0.00001796      0.77080036      0.00006723      0.04890726      0.00007366     -0.00002557
 a2aa2b         0.07433701      0.00001784     -0.00006612      0.00002680     -0.00013385      0.76876465     -0.00002981
 2aa2ab         0.76293745      0.00007107     -0.00002407      0.00000959      0.00001248      0.12021467     -0.00000849
 22aaab        -0.00003703     -0.00001980     -0.24005434     -0.00007511      0.73409741      0.00011075     -0.00000307
 aa2a2b        -0.00001450     -0.00000106      0.30642635     -0.00000455      0.45206795      0.00010647     -0.00001654
 2a2aab        -0.39756364     -0.00003073     -0.00002428      0.00000994     -0.00008448      0.37444052     -0.00001231
 a2a2ab        -0.00003511      0.38616455     -0.00000955      0.00000749      0.00000728     -0.00000568     -0.00286535
 ab22aa         0.00000207      0.00000574      0.00002642     -0.28783799     -0.00002081      0.00000984      0.00002134
 aa22ba         0.00000207      0.00000574      0.00002642     -0.28783799     -0.00002081      0.00000984      0.00002134
 ba22aa         0.00000207      0.00000574      0.00002642     -0.28783799     -0.00002081      0.00000984      0.00002134
 b22aaa        -0.00000132     -0.00158325     -0.00000924     -0.00002137     -0.00000427     -0.00001100     -0.28783417
 a22baa        -0.00000127     -0.00213571     -0.00000922     -0.00002138     -0.00000428     -0.00001099     -0.28783007
 a22aba        -0.00000122     -0.00268816     -0.00000921     -0.00002139     -0.00000429     -0.00001098     -0.28782597
 2baa2a         0.00002346     -0.25808097      0.00000639     -0.00000500     -0.00000486      0.00000379      0.00191497
 2aab2a         0.00002346     -0.25808096      0.00000639     -0.00000500     -0.00000486      0.00000379      0.00191497
 baa22a        -0.00000398     -0.00000600     -0.25757011     -0.00002246     -0.01634281     -0.00002461      0.00000855
 aab22a        -0.00000400     -0.00000600     -0.25713173     -0.00002247     -0.01569608     -0.00002446      0.00000852
 b2aa2a        -0.02484040     -0.00000596      0.00002210     -0.00000896      0.00004473     -0.25688986      0.00000996
 a2ba2a        -0.02540917     -0.00000601      0.00002206     -0.00000894      0.00004461     -0.25635418      0.00000994
 2aba2a         0.00002329     -0.25616720      0.00000634     -0.00000497     -0.00000483      0.00000377      0.00190077
 aba22a        -0.00000393     -0.00000596     -0.25609852     -0.00002229     -0.01686837     -0.00002458      0.00000851
 a2ab2a        -0.02408744     -0.00000587      0.00002197     -0.00000890      0.00004452     -0.25552061      0.00000991
 2aa2ba        -0.25494265     -0.00002375      0.00000804     -0.00000321     -0.00000417     -0.04017085      0.00000284
 2ab2aa        -0.25437388     -0.00002370      0.00000808     -0.00000322     -0.00000405     -0.04070654      0.00000285
 2ba2aa        -0.25362092     -0.00002362      0.00000795     -0.00000317     -0.00000426     -0.03933729      0.00000280
 22aaba         0.00001237      0.00000662      0.08021639      0.00002510     -0.24530548     -0.00003701      0.00000103
 22baaa         0.00001235      0.00000661      0.08065477      0.00002509     -0.24465874     -0.00003686      0.00000100
 22abaa         0.00001230      0.00000657      0.07918318      0.00002492     -0.24413319     -0.00003689      0.00000104
 aa2b2a         0.00000489      0.00000038     -0.10179869      0.00000162     -0.15173954     -0.00003565      0.00000552
 ab2a2a         0.00000482      0.00000033     -0.10324484      0.00000142     -0.15075929     -0.00003560      0.00000555
 ba2a2a         0.00000480      0.00000035     -0.10138282      0.00000150     -0.14956913     -0.00003523      0.00000547
 2b2aaa         0.13361269      0.00001034      0.00000806     -0.00000330      0.00002818     -0.12464153      0.00000409
 2a2baa         0.13241486      0.00001022      0.00000819     -0.00000335      0.00002835     -0.12591332      0.00000415
 2a2aba         0.13153608      0.00001017      0.00000803     -0.00000329      0.00002795     -0.12388567      0.00000407
 a2b2aa         0.00001182     -0.12999736      0.00000322     -0.00000252     -0.00000245      0.00000191      0.00096458
 a2a2ba         0.00001164     -0.12809276      0.00000313     -0.00000258     -0.00000243      0.00000184     -0.00028495
 b2a2aa         0.00001165     -0.12807443      0.00000321     -0.00000239     -0.00000240      0.00000193      0.00218571
 
 Energy:    -1271.23125270  -1271.23125270  -1271.23125270  -1271.23125270  -1271.23125270  -1271.23125270  -1271.23125270
 


 **********************************************************************************************************************************
 DATASETS  * FILE   NREC   LENGTH (MB)   RECORD NAMES
              1      24       45.31       500      610      700      900      950      970     1000      129      960     1700   
                                          VAR    BASINP    GEOM    SYMINP    ZMAT    AOBASIS   BASIS     P2S    ABASIS    OPER   
                                         1101     1401     1411     1412     1650     1100     1400     1410     1200     1210   
                                          SR      EKINR    POTR     PVPR    MOLCAS      S      EKIN      POT      H0       H01  
                                         1080     1600     1380     1700(1)
                                         AOSYM     SMH     JKOP     OPER   

              2       5        1.95       700     1000      520     2100     2140   
                                         GEOM     BASIS   MCVARS     RHF     MCSCF   

 PROGRAMS   *        TOTAL     MULTI   RHF-SCF       INT
 CPU TIMES  *        15.32      3.16      3.29      8.71
 REAL TIME  *        18.11 SEC
 DISK USED  *        47.35 MB (local),      541.66 MB (total)
 SF USED    *        42.46 MB
 GA USED    *         0.00 MB       (max)       0.00 MB       (current)
 **********************************************************************************************************************************

 Energies and &lt;L**2&gt; values

          ENERGY     LL
    -1271.270940    6.0
    -1271.270940    6.0
    -1271.270940    6.0
    -1271.270940    6.0
    -1271.270940    6.0
    -1271.262004   12.0
    -1271.262004   12.0
    -1271.262004   12.0
    -1271.262004   12.0
    -1271.262004   12.0
    -1271.262004   12.0
    -1271.262004   12.0
    -1271.189183    2.0
    -1271.189183    2.0
    -1271.189183    2.0
    -1271.231253   12.0
    -1271.231253   12.0
    -1271.231253   12.0
    -1271.231253   12.0
    -1271.231253   12.0
    -1271.231253   12.0
    -1271.231253   12.0
                                                  


 PROGRAM * CI (Multireference internally contracted CI)     Authors: H.-J. Werner, P.J. Knowles, 1987


 Convergence thresholds:  THRVAR = 1.00D-08  THRDEN = 1.00D-06

 Number of optimized states: 15  Roots:   1   2   3   4   5   6   7   8   9  10  11  12  13  14  15
 Number of reference states: 15  Roots:   1   2   3   4   5   6   7   8   9  10  11  12  13  14  15

 Reference symmetry:                   1   Quintet 
 Number of electrons:                 26
 Maximum number of shells:             3
 Maximum number of spin couplings:    20

 Reference space:       15 conf       15 CSFs
 N elec internal:      185 conf      185 CSFs
 N-1 el internal:      566 conf     1310 CSFs
 N-2 el internal:      535 conf     4040 CSFs

 Number of electrons in valence space:                     16
 Maximum number of open shell orbitals in reference space:  4
 Maximum number of open shell orbitals in internal spaces:  8


 Number of core orbitals:           5 (   2   3 )
 Number of closed-shell orbitals:   4 (   1   3 )
 Number of active  orbitals:        6 (   6   0 )
 Number of external orbitals:     196 ( 104  92 )

 Molecular orbitals read from record     2140.2  Type=MCSCF/NATURAL (state averaged)

 Valence orbitals related to previous ones by unitary transformation. Operators transformed.


 Number of p-space configurations:  15

 Reference wavefunction optimized for reference space (refopt=1)

 State     Reference Energy 
     1     -1271.27094000
     2     -1271.27094000
     3     -1271.27094000
     4     -1271.27094000
     5     -1271.27094000
     6     -1271.26200409
     7     -1271.26200409
     8     -1271.26200409
     9     -1271.26200409
    10     -1271.26200409
    11     -1271.26200409
    12     -1271.26200409
    13     -1271.18918346
    14     -1271.18918346
    15     -1271.18918346

 Number of blocks in overlap matrix:   365   Smallest eigenvalue:  0.16D+00
 Number of N-2 electron functions:    1220
 Number of N-1 electron functions:    1310

 Number of internal configurations:                   80
 Number of singly external configurations:        127780
 Number of doubly external configurations:      11702700
 Total number of contracted configurations:     11830560
 Total number of uncontracted configurations:   38814060

 Diagonal Coupling coefficients finished.               Storage:  372706 words, CPU-Time:      0.27 seconds.
 Energy denominators for pairs finished in 1 passes.    Storage: 1033072 words, CPU-time:      0.29 seconds.

  ITER. STATE  ROOT     SQ.NORM     CORR.ENERGY   TOTAL ENERGY   ENERGY CHANGE       DEN1      VAR(S)    VAR(P)      TIME
    1     1     1     1.00000000     0.00000000 -1271.27094000     0.00000000    -0.83488514  0.10D+00  0.92D-01     2.08
    1     2     2     1.00000000     0.00000000 -1271.27094000     0.00000000    -0.83450203  0.10D+00  0.91D-01     2.08
    1     3     3     1.00000000     0.00000000 -1271.27094000    -0.00000000    -0.83472854  0.10D+00  0.92D-01     2.08
    1     4     4     1.00000000     0.00000000 -1271.27094000     0.00000000    -0.83449734  0.10D+00  0.91D-01     2.08
    1     5     5     1.00000000     0.00000000 -1271.27094000    -0.00000000    -0.83499326  0.10D+00  0.92D-01     2.08
    1     6     6     1.00000000     0.00000000 -1271.26200409     0.00000000    -0.81867875  0.35D-01  0.97D-01     2.08
    1     7     7     1.00000000     0.00000000 -1271.26200409     0.00000000    -0.81832980  0.35D-01  0.97D-01     2.08
    1     8     8     1.00000000     0.00000000 -1271.26200409    -0.00000000    -0.81852811  0.35D-01  0.97D-01     2.08
    1     9     9     1.00000000     0.00000000 -1271.26200409     0.00000000    -0.81924083  0.35D-01  0.98D-01     2.08
    1    10    10     1.00000000     0.00000000 -1271.26200409     0.00000000    -0.81822253  0.35D-01  0.97D-01     2.08
    1    11    11     1.00000000     0.00000000 -1271.26200409     0.00000000    -0.81854950  0.35D-01  0.97D-01     2.08
    1    12    12     1.00000000     0.00000000 -1271.26200409     0.00000000    -0.81849655  0.35D-01  0.97D-01     2.08
    1    13    13     1.00000000     0.00000000 -1271.18918346     0.00000000    -0.84207044  0.56D-01  0.10D+00     2.08
    1    14    14     1.00000000     0.00000000 -1271.18918346    -0.00000000    -0.84198531  0.55D-01  0.10D+00     2.08
    1    15    15     1.00000000     0.00000000 -1271.18918346    -0.00000000    -0.84195276  0.55D-01  0.10D+00     2.08
    2     1     1     1.08179955    -0.63860095 -1271.90954095    -0.63860095    -0.02290440  0.20D-02  0.22D-02   780.73
    2     2     2     1.08186274    -0.63858139 -1271.90952139    -0.63858139    -0.02292951  0.20D-02  0.21D-02   780.73
    2     3     3     1.08183752    -0.63857359 -1271.90951359    -0.63857359    -0.02294053  0.20D-02  0.22D-02   780.73
    2     4     4     1.08189640    -0.63851703 -1271.90945703    -0.63851703    -0.02301737  0.21D-02  0.22D-02   780.73
    2     5     5     1.08189702    -0.63850277 -1271.90944277    -0.63850277    -0.02303598  0.21D-02  0.22D-02   780.73
    2     6     6     1.08192130    -0.64734535 -1271.90934944    -0.64734535    -0.02315930  0.22D-02  0.22D-02   780.73
    2     7     7     1.08192249    -0.64730789 -1271.90931198    -0.64730789    -0.02321183  0.22D-02  0.22D-02   780.73
    2     8     8     1.10881731    -0.64238724 -1271.90439133    -0.64238724    -0.04864373  0.86D-02  0.39D-02   780.73
    2     9     9     1.10882837    -0.64235754 -1271.90436163    -0.64235754    -0.04868433  0.86D-02  0.39D-02   780.73
    2    10    10     1.10913471    -0.64235323 -1271.90435732    -0.64235323    -0.04861014  0.85D-02  0.39D-02   780.73
    2    11    11     1.10915975    -0.64225571 -1271.90425980    -0.64225571    -0.04874988  0.86D-02  0.39D-02   780.73
    2    12    12     1.10918126    -0.64225279 -1271.90425688    -0.64225279    -0.04875416  0.86D-02  0.39D-02   780.73
    2    13    13     1.09364077    -0.66038831 -1271.84957178    -0.66038831    -0.02768274  0.41D-02  0.23D-02   780.73
    2    14    14     1.09370732    -0.66024912 -1271.84943258    -0.66024912    -0.02788641  0.43D-02  0.23D-02   780.73
    2    15    15     1.09374434    -0.66021999 -1271.84940345    -0.66021999    -0.02792752  0.43D-02  0.22D-02   780.73
    3     1     1     1.08982624    -0.67208375 -1271.94302376    -0.03348280    -0.00109254  0.83D-04  0.18D-03  1540.04
    3     2     2     1.08982743    -0.67208265 -1271.94302265    -0.03350126    -0.00109341  0.83D-04  0.18D-03  1540.04
    3     3     3     1.08992685    -0.67206776 -1271.94300776    -0.03349417    -0.00110270  0.83D-04  0.18D-03  1540.04
    3     4     4     1.08993020    -0.67206707 -1271.94300707    -0.03355004    -0.00110575  0.83D-04  0.18D-03  1540.04
    3     5     5     1.08993989    -0.67206605 -1271.94300605    -0.03356328    -0.00110526  0.83D-04  0.18D-03  1540.04
    3     6     6     1.07546550    -0.66772748 -1271.92973157    -0.02038213    -0.00047202  0.58D-04  0.46D-04  1540.04
    3     7     7     1.07546864    -0.66772644 -1271.92973053    -0.02041854    -0.00047336  0.58D-04  0.46D-04  1540.04
    3     8     8     1.07547563    -0.66772442 -1271.92972851    -0.02533718    -0.00047559  0.59D-04  0.46D-04  1540.04
    3     9     9     1.07548729    -0.66772288 -1271.92972697    -0.02536534    -0.00047948  0.60D-04  0.46D-04  1540.04
    3    10    10     1.07548185    -0.66772142 -1271.92972551    -0.02536818    -0.00048052  0.60D-04  0.46D-04  1540.04
    3    11    11     1.07548842    -0.66771669 -1271.92972078    -0.02546098    -0.00048850  0.62D-04  0.46D-04  1540.04
    3    12    12     1.07549036    -0.66771245 -1271.92971654    -0.02545966    -0.00049266  0.62D-04  0.47D-04  1540.04
    3    13    13     1.08354131    -0.68417491 -1271.87335837    -0.02378660    -0.00073507  0.10D-03  0.76D-04  1540.04
    3    14    14     1.08355766    -0.68416197 -1271.87334543    -0.02391285    -0.00075431  0.11D-03  0.78D-04  1540.04
    3    15    15     1.08356763    -0.68415881 -1271.87334227    -0.02393882    -0.00075849  0.11D-03  0.78D-04  1540.04
    4     1     1     1.08925548    -0.67320259 -1271.94414259    -0.00111883    -0.00006519  0.16D-04  0.64D-05  2308.75
    4     2     2     1.08925509    -0.67320252 -1271.94414252    -0.00111987    -0.00006513  0.16D-04  0.64D-05  2308.75
    4     3     3     1.08926585    -0.67319893 -1271.94413893    -0.00113118    -0.00006603  0.16D-04  0.68D-05  2308.75
    4     4     4     1.08926866    -0.67319683 -1271.94413684    -0.00112977    -0.00006575  0.16D-04  0.67D-05  2308.75
    4     5     5     1.08926462    -0.67319653 -1271.94413653    -0.00113048    -0.00006590  0.16D-04  0.67D-05  2308.75
    4     6     6     1.07544320    -0.66817211 -1271.93017620    -0.00044463    -0.00002935  0.67D-05  0.29D-05  2308.75
    4     7     7     1.07544353    -0.66817199 -1271.93017608    -0.00044555    -0.00002955  0.68D-05  0.29D-05  2308.75
    4     8     8     1.07544390    -0.66817158 -1271.93017567    -0.00044716    -0.00003041  0.71D-05  0.30D-05  2308.75
    4     9     9     1.07544231    -0.66817157 -1271.93017565    -0.00044868    -0.00002952  0.67D-05  0.29D-05  2308.75
    4    10    10     1.07544135    -0.66817134 -1271.93017543    -0.00044992    -0.00002980  0.68D-05  0.30D-05  2308.75
    4    11    11     1.07544275    -0.66817117 -1271.93017526    -0.00045448    -0.00002957  0.67D-05  0.30D-05  2308.75
    4    12    12     1.07544440    -0.66817094 -1271.93017503    -0.00045849    -0.00003085  0.71D-05  0.31D-05  2308.75
    4    13    13     1.08298874    -0.68482390 -1271.87400736    -0.00064899    -0.00004629  0.12D-04  0.51D-05  2308.75
    4    14    14     1.08299622    -0.68482382 -1271.87400728    -0.00066185    -0.00004713  0.13D-04  0.53D-05  2308.75
    4    15    15     1.08299727    -0.68482358 -1271.87400704    -0.00066477    -0.00004735  0.13D-04  0.53D-05  2308.75
    5     1     1     1.08964756    -0.67328467 -1271.94422467    -0.00008208    -0.00000965  0.13D-05  0.12D-05  3101.74
    5     2     2     1.08964738    -0.67328447 -1271.94422448    -0.00008196    -0.00000964  0.13D-05  0.12D-05  3101.74
    5     3     3     1.08964523    -0.67328188 -1271.94422188    -0.00008295    -0.00000964  0.13D-05  0.12D-05  3101.74
    5     4     4     1.08964332    -0.67327938 -1271.94421938    -0.00008254    -0.00000960  0.13D-05  0.12D-05  3101.74
    5     5     5     1.08964292    -0.67327933 -1271.94421933    -0.00008280    -0.00000964  0.13D-05  0.12D-05  3101.74
    5     6     6     1.07571514    -0.66820244 -1271.93020654    -0.00003033    -0.00000236  0.47D-06  0.27D-06  3101.74
    5     7     7     1.07571524    -0.66820226 -1271.93020635    -0.00003027    -0.00000238  0.46D-06  0.28D-06  3101.74
    5     8     8     1.07571800    -0.66820223 -1271.93020632    -0.00003065    -0.00000229  0.46D-06  0.26D-06  3101.74
    5     9     9     1.07571764    -0.66820223 -1271.93020632    -0.00003066    -0.00000229  0.46D-06  0.26D-06  3101.74
    5    10    10     1.07571780    -0.66820174 -1271.93020583    -0.00003040    -0.00000228  0.46D-06  0.26D-06  3101.74
    5    11    11     1.07571774    -0.66820174 -1271.93020583    -0.00003056    -0.00000228  0.46D-06  0.26D-06  3101.74
    5    12    12     1.07571797    -0.66820146 -1271.93020555    -0.00003052    -0.00000228  0.46D-06  0.26D-06  3101.74
    5    13    13     1.08302408    -0.68487273 -1271.87405619    -0.00004883    -0.00000375  0.78D-06  0.45D-06  3101.74
    5    14    14     1.08302381    -0.68487271 -1271.87405617    -0.00004889    -0.00000376  0.78D-06  0.45D-06  3101.74
    5    15    15     1.08301971    -0.68487207 -1271.87405553    -0.00004848    -0.00000369  0.76D-06  0.44D-06  3101.74
    6     1     1     1.08974776    -0.67329605 -1271.94423605    -0.00001138    -0.00000145  0.34D-06  0.11D-06  3901.52
    6     2     2     1.08974776    -0.67329585 -1271.94423586    -0.00001138    -0.00000145  0.34D-06  0.11D-06  3901.52
    6     3     3     1.08974262    -0.67329327 -1271.94423327    -0.00001138    -0.00000145  0.34D-06  0.11D-06  3901.52
    6     4     4     1.08974022    -0.67329072 -1271.94423072    -0.00001134    -0.00000145  0.34D-06  0.11D-06  3901.52
    6     5     5     1.08974024    -0.67329072 -1271.94423072    -0.00001139    -0.00000145  0.34D-06  0.11D-06  3901.52
    6     6     6     1.07579556    -0.66820479 -1271.93020888    -0.00000234    -0.00000017  0.27D-07  0.21D-07  3901.52
    6     7     7     1.07579537    -0.66820462 -1271.93020871    -0.00000236    -0.00000017  0.26D-07  0.21D-07  3901.52
    6     8     8     1.07579589    -0.66820450 -1271.93020859    -0.00000227    -0.00000016  0.25D-07  0.20D-07  3901.52
    6     9     9     1.07579577    -0.66820450 -1271.93020859    -0.00000227    -0.00000016  0.25D-07  0.20D-07  3901.52
    6    10    10     1.07579582    -0.66820399 -1271.93020808    -0.00000226    -0.00000016  0.25D-07  0.20D-07  3901.52
    6    11    11     1.07579582    -0.66820399 -1271.93020808    -0.00000226    -0.00000016  0.25D-07  0.20D-07  3901.52
    6    12    12     1.07579567    -0.66820372 -1271.93020781    -0.00000227    -0.00000016  0.25D-07  0.20D-07  3901.52
    6    13    13     1.08302097    -0.68487666 -1271.87406012    -0.00000393    -0.00000030  0.44D-07  0.41D-07  3901.52
    6    14    14     1.08302081    -0.68487666 -1271.87406012    -0.00000395    -0.00000030  0.45D-07  0.42D-07  3901.52
    6    15    15     1.08301881    -0.68487593 -1271.87405939    -0.00000386    -0.00000029  0.43D-07  0.40D-07  3901.52
    7     1     1     1.08981001    -0.67329769 -1271.94423769    -0.00000164    -0.00000021  0.55D-07  0.19D-07  4719.90
    7     2     2     1.08980995    -0.67329749 -1271.94423749    -0.00000164    -0.00000021  0.55D-07  0.19D-07  4719.90
    7     3     3     1.08980653    -0.67329491 -1271.94423491    -0.00000165    -0.00000021  0.55D-07  0.20D-07  4719.90
    7     4     4     1.08980397    -0.67329236 -1271.94423236    -0.00000164    -0.00000021  0.55D-07  0.20D-07  4719.90
    7     5     5     1.08980401    -0.67329236 -1271.94423236    -0.00000165    -0.00000021  0.55D-07  0.20D-07  4719.90
    7     6     6     1.07581118    -0.66820497 -1271.93020906    -0.00000019    -0.00000002  0.37D-08  0.14D-08  4719.90
    7     7     7     1.07581081    -0.66820480 -1271.93020889    -0.00000018    -0.00000002  0.36D-08  0.14D-08  4719.90
    7     8     8     1.07581089    -0.66820468 -1271.93020877    -0.00000018    -0.00000002  0.34D-08  0.14D-08  4719.90
    7     9     9     1.07581092    -0.66820468 -1271.93020877    -0.00000018    -0.00000002  0.33D-08  0.14D-08  4719.90
    7    10    10     1.07581095    -0.66820417 -1271.93020826    -0.00000018    -0.00000002  0.33D-08  0.13D-08  4719.90
    7    11    11     1.07581095    -0.66820417 -1271.93020826    -0.00000018    -0.00000002  0.33D-08  0.13D-08  4719.90
    7    12    12     1.07581072    -0.66820390 -1271.93020799    -0.00000018    -0.00000002  0.33D-08  0.14D-08  4719.90
    7    13    13     1.08300567    -0.68487699 -1271.87406045    -0.00000034    -0.00000004  0.17D-07  0.26D-08  4719.90
    7    14    14     1.08300564    -0.68487699 -1271.87406045    -0.00000034    -0.00000004  0.17D-07  0.27D-08  4719.90
    7    15    15     1.08300423    -0.68487626 -1271.87405971    -0.00000033    -0.00000004  0.16D-07  0.25D-08  4719.90
    8     1     1     1.08980162    -0.67329791 -1271.94423791    -0.00000022    -0.00000004  0.48D-08  0.53D-08  5116.16
    8     2     2     1.08980156    -0.67329771 -1271.94423771    -0.00000022    -0.00000004  0.48D-08  0.53D-08  5116.16
    8     3     3     1.08979910    -0.67329513 -1271.94423514    -0.00000022    -0.00000004  0.49D-08  0.54D-08  5116.16
    8     4     4     1.08979651    -0.67329259 -1271.94423259    -0.00000022    -0.00000004  0.48D-08  0.54D-08  5116.16
    8     5     5     1.08979651    -0.67329259 -1271.94423259    -0.00000022    -0.00000004  0.48D-08  0.53D-08  5116.16
    8     6     6     1.07581118    -0.66820497 -1271.93020906    -0.00000000    -0.00000002  0.37D-08  0.14D-08  5116.16
    8     7     7     1.07581081    -0.66820480 -1271.93020889    -0.00000000    -0.00000002  0.36D-08  0.14D-08  5116.16
    8     8     8     1.07581089    -0.66820468 -1271.93020877    -0.00000000    -0.00000002  0.34D-08  0.14D-08  5116.16
    8     9     9     1.07581092    -0.66820468 -1271.93020877    -0.00000000    -0.00000002  0.33D-08  0.14D-08  5116.16
    8    10    10     1.07581094    -0.66820417 -1271.93020826    -0.00000000    -0.00000002  0.33D-08  0.13D-08  5116.16
    8    11    11     1.07581094    -0.66820417 -1271.93020826    -0.00000000    -0.00000002  0.33D-08  0.13D-08  5116.16
    8    12    12     1.07581071    -0.66820390 -1271.93020799    -0.00000000    -0.00000002  0.33D-08  0.14D-08  5116.16
    8    13    13     1.08299399    -0.68487704 -1271.87406050    -0.00000004    -0.00000000  0.89D-09  0.47D-09  5116.16
    8    14    14     1.08299399    -0.68487704 -1271.87406050    -0.00000004    -0.00000000  0.88D-09  0.47D-09  5116.16
    8    15    15     1.08299314    -0.68487630 -1271.87405976    -0.00000004    -0.00000000  0.83D-09  0.44D-09  5116.16
    9     1     1     1.08981355    -0.67329795 -1271.94423796    -0.00000005    -0.00000000  0.67D-09  0.37D-09  5387.00
    9     2     2     1.08981347    -0.67329776 -1271.94423776    -0.00000005    -0.00000000  0.67D-09  0.37D-09  5387.00
    9     3     3     1.08981111    -0.67329518 -1271.94423518    -0.00000005    -0.00000000  0.68D-09  0.39D-09  5387.00
    9     4     4     1.08980849    -0.67329263 -1271.94423263    -0.00000005    -0.00000000  0.68D-09  0.39D-09  5387.00
    9     5     5     1.08980851    -0.67329263 -1271.94423263    -0.00000005    -0.00000000  0.68D-09  0.39D-09  5387.00
    9     6     6     1.07581118    -0.66820497 -1271.93020906    -0.00000000    -0.00000002  0.37D-08  0.14D-08  5387.00
    9     7     7     1.07581081    -0.66820480 -1271.93020889     0.00000000    -0.00000002  0.36D-08  0.14D-08  5387.00
    9     8     8     1.07581089    -0.66820468 -1271.93020877     0.00000000    -0.00000002  0.34D-08  0.14D-08  5387.00
    9     9     9     1.07581092    -0.66820468 -1271.93020877    -0.00000000    -0.00000002  0.33D-08  0.14D-08  5387.00
    9    10    10     1.07581094    -0.66820417 -1271.93020826    -0.00000000    -0.00000002  0.33D-08  0.13D-08  5387.00
    9    11    11     1.07581094    -0.66820417 -1271.93020826    -0.00000000    -0.00000002  0.33D-08  0.13D-08  5387.00
    9    12    12     1.07581071    -0.66820390 -1271.93020799     0.00000000    -0.00000002  0.33D-08  0.14D-08  5387.00
    9    13    13     1.08299399    -0.68487704 -1271.87406050    -0.00000000    -0.00000000  0.89D-09  0.47D-09  5387.00
    9    14    14     1.08299399    -0.68487704 -1271.87406050    -0.00000000    -0.00000000  0.88D-09  0.47D-09  5387.00
    9    15    15     1.08299314    -0.68487630 -1271.87405976    -0.00000000    -0.00000000  0.83D-09  0.44D-09  5387.00


 =====================================
 Analysis of CPU times by interactions
 =====================================

       I      S      P

 I   0.0%
 S   0.0%   0.1%
 P   0.1%   3.5%  55.7%

 Initialization:   0.0%
 Other:           40.5%

 Total CPU:     5387.0 seconds
 =====================================



 Wavefunction saved on  5101.2

 Reference coefficients greater than 0.0500000
 =============================================
 2/22///222           0.0000000  -0.0000000  -0.0000017   0.0000000  -0.0000000  -0.0000000   0.9639007   0.0000000   0.0000000
                     -0.0000000   0.0000000  -0.0000037  -0.0000000  -0.0000000   0.0000000
 2//22//222          -0.0000000  -0.0000634   0.0000000  -0.0000000  -0.0000000   0.9639005   0.0000000  -0.0000000   0.0000000
                     -0.0000000  -0.0000000   0.0000000   0.0000000   0.0000000  -0.0000000
 2////22222          -0.0000000   0.0000000  -0.0000000   0.9572373   0.0000000  -0.0000000  -0.0000000   0.0000000  -0.0000413
                      0.0000011   0.0000000  -0.0000000   0.0000000   0.0000111  -0.0000000
 22////2222          -0.0000000   0.0000000  -0.0000000   0.0000000   0.9572373   0.0000000   0.0000000  -0.0000413   0.0000000
                      0.0000000  -0.0000011  -0.0000000  -0.0000111  -0.0000000   0.0000000
 2/2///2222          -0.0000000  -0.0000000   0.9572361   0.0000000  -0.0000000   0.0000000   0.0000016   0.0000000   0.0000000
                     -0.0000000   0.0000000  -0.0000000   0.0000000   0.0000000   0.0000000
 2///2/2222          -0.0000618   0.9572350   0.0000000   0.0000000  -0.0000000   0.0000639  -0.0000000   0.0000000  -0.0000000
                      0.0000000   0.0000000   0.0000000  -0.0000000   0.0000000  -0.0000000
 2//2//2222           0.9572350   0.0000618  -0.0000000   0.0000000   0.0000000  -0.0000000  -0.0000000   0.0000000  -0.0000000
                     -0.0000000  -0.0000000  -0.0000000   0.0000000   0.0000000  -0.0000000
 22///2/222          -0.0000000   0.0000000   0.0000000  -0.0000000   0.0000000   0.0000000   0.0000033  -0.0000000  -0.0000000
                      0.0000000  -0.0000000   0.8621359   0.0000000  -0.0000000  -0.4294805
 2/2/2//222           0.0000000  -0.0000000  -0.0000000   0.0000000  -0.0000000  -0.0000000   0.0000017   0.0000000   0.0000000
                     -0.0000000   0.0000000   0.4310760  -0.0000000   0.0000000   0.8589446
 22//2//222           0.0000000   0.0000000  -0.0000000  -0.0000000   0.0000383   0.0000000   0.0000000   0.8013794  -0.0000000
                      0.0000000  -0.3179237  -0.0000000   0.4294727  -0.0000000   0.0000000
 2///22/222           0.0000000   0.0000000  -0.0000000   0.0000383  -0.0000000  -0.0000000  -0.0000000   0.0000000   0.8012587
                      0.3182278   0.0000000  -0.0000000   0.0000000  -0.4294727   0.0000000
 22/2///222          -0.0000000   0.0000000   0.0000000   0.0000000   0.0000016   0.0000000   0.0000000  -0.1692812  -0.0000000
                      0.0000000   0.5856500  -0.0000000   0.7438703   0.0000000   0.0000000
 2//2/2/222          -0.0000000  -0.0000000   0.0000000  -0.0000016   0.0000000   0.0000000   0.0000000   0.0000000   0.1690589
                      0.5857142   0.0000000  -0.0000000  -0.0000000   0.7438703  -0.0000000
 2/2//2/222           0.0000000  -0.0000000  -0.0000000  -0.0000000   0.0000178  -0.0000000  -0.0000000   0.5081726   0.0000000
                     -0.0000000   0.6964504   0.0000000  -0.4294748  -0.0000000  -0.0000000
 222////222           0.0000000   0.0000000  -0.0000000  -0.0000178   0.0000000  -0.0000000   0.0000000  -0.0000000  -0.5084369
                      0.6962575  -0.0000000   0.0000000  -0.0000000  -0.4294748   0.0000000

 Coefficients of fixed reference functions:
 ==========================================

 State      Coefficients
 1          -0.000000    0.956713   -0.000000   -0.031617   -0.000000    0.000000   -0.000000   -0.000000    0.000000    0.000000
             0.000000    0.000000   -0.000000   -0.000000    0.000000
 2          -0.000000    0.031617    0.000000    0.956713    0.000000    0.000000    0.000000    0.000000   -0.000063    0.000000
            -0.000000   -0.000000    0.000000   -0.000000   -0.000000
 3           0.957236   -0.000000   -0.000000    0.000000   -0.000000   -0.000000   -0.000000   -0.000000    0.000000    0.000000
            -0.000000   -0.000002    0.000000    0.000000   -0.000000
 4           0.000000    0.000000    0.957237    0.000000    0.000000   -0.000000   -0.000000    0.000038   -0.000000   -0.000014
            -0.000000    0.000000    0.000000   -0.000010    0.000000
 5          -0.000000    0.000000    0.000000   -0.000000    0.957237    0.000035    0.000000   -0.000000   -0.000000    0.000000
             0.000022   -0.000000    0.000010    0.000000   -0.000000
 6           0.000000    0.000002   -0.000000    0.000064    0.000000   -0.000000   -0.000000    0.000000    0.963901   -0.000000
            -0.000000   -0.000000    0.000000    0.000000   -0.000000
 7           0.000002   -0.000000   -0.000000   -0.000000    0.000000    0.000000    0.008939   -0.000000    0.000000    0.000000
            -0.000000    0.963859    0.000000    0.000000    0.000000
 8           0.000000    0.000000    0.000000    0.000000   -0.000041    0.828190   -0.000000    0.000000   -0.000000    0.000000
             0.493159    0.000000    0.000001    0.000000    0.000000
 9           0.000000   -0.000000   -0.000041   -0.000000    0.000000    0.000000   -0.000000    0.911589    0.000000   -0.313224
            -0.000000    0.000000   -0.000000   -0.000001    0.000000
 10         -0.000000   -0.000000    0.000001    0.000000    0.000000    0.000000   -0.000000    0.313224   -0.000000    0.911589
             0.000000   -0.000000    0.000000    0.000001   -0.000000
 11          0.000000   -0.000000    0.000000    0.000000   -0.000001   -0.493159   -0.000000    0.000000   -0.000000    0.000000
             0.828190    0.000000    0.000001    0.000000    0.000000
 12         -0.000000   -0.000000   -0.000000    0.000000   -0.000000    0.000000    0.963859   -0.000000    0.000000   -0.000000
             0.000000   -0.008939   -0.000000   -0.000000    0.000007
 13          0.000000    0.000000    0.000000   -0.000000   -0.000011   -0.000001    0.000000    0.000000    0.000000   -0.000000
            -0.000001   -0.000000    0.960332    0.000000   -0.000000
 14          0.000000    0.000000    0.000011    0.000000   -0.000000   -0.000000    0.000000    0.000001    0.000000   -0.000001
            -0.000000   -0.000000    0.000000    0.960332    0.000000
 15          0.000000   -0.000000   -0.000000   -0.000000    0.000000   -0.000000   -0.000007   -0.000000   -0.000000    0.000000
            -0.000000    0.000000    0.000000   -0.000000    0.960333

 Coefficients of rotated reference functions:
 ============================================

 State      Coefficients
 1           0.957235   -0.000000   -0.000000    0.000000    0.000000   -0.000000   -0.000000    0.000000   -0.000000   -0.000000
             0.000000   -0.000000   -0.000000   -0.000000    0.000000
 2          -0.000000    0.957235   -0.000000    0.000000    0.000000    0.000000   -0.000000    0.000000   -0.000000    0.000000
             0.000000    0.000000   -0.000000   -0.000000   -0.000000
 3          -0.000000   -0.000000    0.957236   -0.000000   -0.000000    0.000000   -0.000000    0.000000    0.000000   -0.000000
             0.000000   -0.000000    0.000000    0.000000    0.000000
 4           0.000000    0.000000   -0.000000    0.957237    0.000000   -0.000000    0.000000   -0.000000   -0.000000   -0.000000
            -0.000000   -0.000000    0.000000    0.000000   -0.000000
 5           0.000000    0.000000   -0.000000    0.000000    0.957237    0.000000   -0.000000   -0.000000   -0.000000    0.000000
             0.000000   -0.000000   -0.000000    0.000000   -0.000000
 6          -0.000000    0.000000    0.000000   -0.000000    0.000000    0.963901   -0.000000   -0.000000    0.000000   -0.000000
            -0.000000    0.000000    0.000000    0.000000   -0.000000
 7          -0.000000   -0.000000   -0.000000    0.000000   -0.000000   -0.000000    0.963901    0.000000   -0.000000   -0.000000
             0.000000   -0.000000    0.000000    0.000000    0.000000
 8           0.000000    0.000000    0.000000   -0.000000   -0.000000   -0.000000    0.000000    0.963901    0.000000    0.000000
            -0.000000   -0.000000   -0.000000    0.000000   -0.000000
 9          -0.000000   -0.000000    0.000000   -0.000000   -0.000000    0.000000   -0.000000    0.000000    0.963901    0.000000
             0.000000   -0.000000    0.000000    0.000000   -0.000000
 10         -0.000000    0.000000   -0.000000   -0.000000    0.000000   -0.000000   -0.000000    0.000000    0.000000    0.963901
             0.000000   -0.000000   -0.000000    0.000000    0.000000
 11          0.000000    0.000000    0.000000   -0.000000    0.000000   -0.000000    0.000000   -0.000000    0.000000    0.000000
             0.963901   -0.000000    0.000000    0.000000   -0.000000
 12         -0.000000    0.000000   -0.000000   -0.000000   -0.000000    0.000000   -0.000000   -0.000000   -0.000000   -0.000000
            -0.000000    0.963901   -0.000000   -0.000000   -0.000000
 13         -0.000000   -0.000000    0.000000    0.000000   -0.000000    0.000000    0.000000   -0.000000    0.000000   -0.000000
             0.000000   -0.000000    0.960332    0.000000   -0.000000
 14         -0.000000   -0.000000    0.000000    0.000000    0.000000    0.000000    0.000000    0.000000    0.000000    0.000000
             0.000000   -0.000000    0.000000    0.960332   -0.000000
 15          0.000000   -0.000000    0.000000   -0.000000   -0.000000   -0.000000    0.000000   -0.000000   -0.000000    0.000000
            -0.000000   -0.000000   -0.000000   -0.000000    0.960333


 RESULTS FOR STATE 1.1
 =====================

 Maximum overlap with reference state  2

 Coefficient of reference function:   C(0) = 0.95671271 (fixed)   0.95723499 (relaxed)   0.95723499 (rotated)

 Energy contributions of configuration classes

 CLASS          SQ.NORM        ECORR1        ECORR2
 +++++++++++++++++++++++++++++++++++++++++++++++++++
 Internals    0.00140710   -0.00872438   -0.45593010
 Singles      0.03924561   -0.17666739   -0.18609068
 Pairs        0.05069431    0.00000000   -0.03127717
[...]
    7    7.1  2.0  2.0   0.003%   0.000%   0.000%   0.000%   0.000%   0.000%   0.000%   0.000%   0.000%   0.000%
    8    8.1  2.0  2.0   0.000%   0.000%   0.000%   0.000%   0.000%   0.000%   0.000%   0.000%   0.000%   0.000%
    9    9.1  2.0  2.0   0.000%   0.000%   0.000%   0.000%   0.000%   0.000%   0.000%   0.000%   0.000%   0.000%
   10   10.1  2.0  2.0   0.000%   0.000%   0.000%   0.000%   0.000%   0.000%   0.000%   0.000%   0.000%   0.000%
   11   11.1  2.0  2.0   0.000%   0.000%   0.000%   0.000%   0.000%   0.000%   0.000%   0.000%   0.000%   0.000%
   12   12.1  2.0  2.0   0.002%   0.000%   0.000%   0.000%   0.000%   0.000%   0.000%   0.000%   0.000%   0.000%
   13   13.1  2.0  2.0   0.000%  37.630%  12.366%   0.000%   0.000%   1.669%   1.669%   0.000%   0.000%   8.345%
   14   14.1  2.0  2.0   0.000%  37.636%  12.368%   0.000%   0.000%   1.665%   1.665%   0.000%   0.000%   8.345%
   15   15.1  2.0  2.0   0.000%   0.000%   0.000%  16.643%  16.640%   0.000%   0.000%   0.000%   0.000%   0.000%
   16    1.1  2.0  1.0   0.000%   0.000%   0.000%   0.000%   0.000%   0.000%   0.000%   0.000%   0.000%   0.000%
   17    2.1  2.0  1.0   0.000%   0.000%   0.000%   0.000%   0.000%   0.000%   0.000%   0.000%   0.000%   0.000%
   18    3.1  2.0  1.0   0.000%   0.000%   0.000%   0.000%   0.000%   0.000%   0.000%   0.000%   0.000%   0.000%
   19    4.1  2.0  1.0   0.000%   0.000%   0.000%   0.000%   0.000%   0.000%   0.000%   0.000%   0.000%   0.000%
   20    5.1  2.0  1.0   0.000%   0.000%   0.000%   0.000%   0.000%   0.000%   0.000%   0.000%   0.000%   0.000%
   21    6.1  2.0  1.0   0.000%   0.000%   0.000%   0.000%   0.000%   0.000%   0.000%   0.000%   0.000%   0.000%
   22    7.1  2.0  1.0   0.000%   0.000%   0.000%   0.000%   0.000%   0.000%   0.000%   0.000%   0.000%   0.000%
   23    8.1  2.0  1.0   0.010%   0.000%   0.000%   0.000%   0.000%   0.000%   0.000%   0.000%   0.000%   0.000%
   24    9.1  2.0  1.0   0.007%   0.000%   0.000%   0.000%   0.000%   0.000%   0.000%   0.000%   0.000%   0.000%
   25   10.1  2.0  1.0   0.000%   0.000%   0.000%   0.000%   0.000%   0.000%   0.000%   0.000%   0.000%   0.000%
   26   11.1  2.0  1.0   0.004%   0.000%   0.000%   0.000%   0.000%   0.000%   0.000%   0.000%   0.000%   0.000%
   27   12.1  2.0  1.0   0.000%   0.000%   0.000%   0.000%   0.000%   0.000%   0.000%   0.000%   0.000%   0.000%
   28   13.1  2.0  1.0   0.000%   0.000%   0.000%  16.664%  16.678%   0.000%   0.000%  10.025%  24.989%   0.000%
   29   14.1  2.0  1.0   0.000%   0.000%   0.000%  16.698%  16.678%   0.000%   0.000%   9.991%  25.011%   0.000%
   30   15.1  2.0  1.0   0.000%   0.000%   0.000%   0.000%   0.000%  26.646%  26.646%   0.000%   0.000%   8.334%
   31    1.1  2.0  0.0   0.000%   0.000%   0.000%   0.000%   0.000%   0.000%   0.000%   0.000%   0.000%   0.000%
   32    2.1  2.0  0.0   0.000%   0.000%   0.000%   0.000%   0.000%   0.000%   0.000%   0.000%   0.000%   0.000%
   33    3.1  2.0  0.0   0.000%   0.000%   0.000%   0.000%   0.000%   0.000%   0.000%   0.000%   0.000%   0.000%
   34    4.1  2.0  0.0   0.000%   0.000%   0.000%   0.000%   0.000%   0.000%   0.000%   0.000%   0.000%   0.000%
   35    5.1  2.0  0.0   0.000%   0.000%   0.000%   0.000%   0.000%   0.000%   0.000%   0.000%   0.000%   0.000%
   36    6.1  2.0  0.0   0.024%   0.000%   0.000%   0.000%   0.000%   0.000%   0.000%   0.000%   0.000%   0.000%
   37    7.1  2.0  0.0   0.000%   0.000%   0.000%   0.000%   0.000%   0.000%   0.000%   0.000%   0.000%   0.000%
   38    8.1  2.0  0.0   0.000%   0.000%   0.000%   0.000%   0.000%   0.000%   0.000%   0.000%   0.000%   0.000%
   39    9.1  2.0  0.0   0.000%   0.000%   0.000%   0.000%   0.000%   0.000%   0.000%   0.000%   0.000%   0.000%
   40   10.1  2.0  0.0   0.000%   0.000%   0.000%   0.000%   0.000%   0.000%   0.000%   0.000%   0.000%   0.000%
   41   11.1  2.0  0.0   0.000%   0.000%   0.000%   0.000%   0.000%   0.000%   0.000%   0.000%   0.000%   0.000%
   42   12.1  2.0  0.0   0.000%   0.000%   0.000%   0.000%   0.000%   0.000%   0.000%   0.000%   0.000%   0.000%
   43   13.1  2.0  0.0   0.000%   0.000%   0.000%   0.000%   0.000%   0.000%  40.041%   0.000%   0.000%   0.000%
   44   14.1  2.0  0.0   0.000%   0.000%   0.000%   0.000%   0.000%  40.041%   0.000%   0.000%   0.000%  49.952%
   45   15.1  2.0  0.0   0.000%   0.000%   0.000%   0.000%   0.000%   0.000%   0.000%  59.967%   0.000%   0.000%
   46    1.1  2.0 -1.0   0.000%   0.000%   0.000%   0.000%   0.000%   0.000%   0.000%   0.000%   0.000%   0.000%
   47    2.1  2.0 -1.0   0.000%   0.000%   0.000%   0.000%   0.000%   0.000%   0.000%   0.000%   0.000%   0.000%
   48    3.1  2.0 -1.0   0.000%   0.000%   0.000%   0.000%   0.000%   0.000%   0.000%   0.000%   0.000%   0.000%
   49    4.1  2.0 -1.0   0.000%   0.000%   0.000%   0.000%   0.000%   0.000%   0.000%   0.000%   0.000%   0.000%
   50    5.1  2.0 -1.0   0.000%   0.000%   0.000%   0.000%   0.000%   0.000%   0.000%   0.000%   0.000%   0.000%
   51    6.1  2.0 -1.0   0.000%   0.000%   0.000%   0.000%   0.000%   0.000%   0.000%   0.000%   0.000%   0.000%
   52    7.1  2.0 -1.0   0.000%   0.000%   0.000%   0.000%   0.000%   0.000%   0.000%   0.000%   0.000%   0.000%
   53    8.1  2.0 -1.0   0.010%   0.000%   0.000%   0.000%   0.000%   0.000%   0.000%   0.000%   0.000%   0.000%
   54    9.1  2.0 -1.0   0.007%   0.000%   0.000%   0.000%   0.000%   0.000%   0.000%   0.000%   0.000%   0.000%
   55   10.1  2.0 -1.0   0.000%   0.000%   0.000%   0.000%   0.000%   0.000%   0.000%   0.000%   0.000%   0.000%
   56   11.1  2.0 -1.0   0.004%   0.000%   0.000%   0.000%   0.000%   0.000%   0.000%   0.000%   0.000%   0.000%
   57   12.1  2.0 -1.0   0.000%   0.000%   0.000%   0.000%   0.000%   0.000%   0.000%   0.000%   0.000%   0.000%
   58   13.1  2.0 -1.0   0.000%   0.000%   0.000%  16.661%  16.681%   0.000%   0.000%  10.025%  24.989%   0.000%
   59   14.1  2.0 -1.0   0.000%   0.000%   0.000%  16.694%  16.681%   0.000%   0.000%   9.991%  25.011%   0.000%
   60   15.1  2.0 -1.0   0.000%   0.000%   0.000%   0.000%   0.000%  26.646%  26.646%   0.000%   0.000%   8.334%
   61    1.1  2.0 -2.0   0.000%   0.000%   0.000%   0.000%   0.000%   0.000%   0.000%   0.000%   0.000%   0.000%
   62    2.1  2.0 -2.0   0.000%   0.000%   0.000%   0.000%   0.000%   0.000%   0.000%   0.000%   0.000%   0.000%
   63    3.1  2.0 -2.0   0.000%   0.000%   0.000%   0.000%   0.000%   0.000%   0.000%   0.000%   0.000%   0.000%
   64    4.1  2.0 -2.0   0.000%   0.000%   0.000%   0.000%   0.000%   0.000%   0.000%   0.000%   0.000%   0.000%
   65    5.1  2.0 -2.0   0.000%   0.000%   0.000%   0.000%   0.000%   0.000%   0.000%   0.000%   0.000%   0.000%
   66    6.1  2.0 -2.0   0.003%   0.000%   0.000%   0.000%   0.000%   0.000%   0.000%   0.000%   0.000%   0.000%
   67    7.1  2.0 -2.0   0.003%   0.000%   0.000%   0.000%   0.000%   0.000%   0.000%   0.000%   0.000%   0.000%
   68    8.1  2.0 -2.0   0.000%   0.000%   0.000%   0.000%   0.000%   0.000%   0.000%   0.000%   0.000%   0.000%
   69    9.1  2.0 -2.0   0.000%   0.000%   0.000%   0.000%   0.000%   0.000%   0.000%   0.000%   0.000%   0.000%
   70   10.1  2.0 -2.0   0.000%   0.000%   0.000%   0.000%   0.000%   0.000%   0.000%   0.000%   0.000%   0.000%
   71   11.1  2.0 -2.0   0.000%   0.000%   0.000%   0.000%   0.000%   0.000%   0.000%   0.000%   0.000%   0.000%
   72   12.1  2.0 -2.0   0.002%   0.000%   0.000%   0.000%   0.000%   0.000%   0.000%   0.000%   0.000%   0.000%
   73   13.1  2.0 -2.0   0.000%  12.366%  37.630%   0.000%   0.000%   1.669%   1.669%   0.000%   0.000%   8.345%
   74   14.1  2.0 -2.0   0.000%  12.368%  37.636%   0.000%   0.000%   1.665%   1.665%   0.000%   0.000%   8.345%
   75   15.1  2.0 -2.0   0.000%   0.000%   0.000%  16.640%  16.643%   0.000%   0.000%   0.000%   0.000%   0.000%
   76    1.1  1.0  1.0   0.000%   0.000%   0.000%   0.000%   0.000%   0.000%   0.000%   0.000%   0.000%   0.000%
   77    2.1  1.0  1.0   0.071%   0.000%   0.000%   0.000%   0.000%   0.000%   0.000%   0.000%   0.000%   0.000%
   78    3.1  1.0  1.0   0.000%   0.000%   0.000%   0.000%   0.000%   0.000%   0.000%   0.000%   0.000%   0.000%
   79    4.1  1.0  1.0   9.297%   0.000%   0.000%   0.000%   0.000%   0.000%   0.000%   0.000%   0.000%   0.000%
   80    5.1  1.0  1.0   0.000%   0.000%   0.000%   0.000%   0.000%   0.000%   0.000%   0.000%   0.000%   0.000%
   81    6.1  1.0  1.0   5.710%   0.000%   0.000%   0.000%   0.000%   0.000%   0.000%   0.000%   0.000%   0.000%
   82    7.1  1.0  1.0  21.274%   0.000%   0.000%   0.000%   0.000%   0.000%   0.000%   0.000%   0.000%   0.000%
   83    1.1  1.0  0.0   0.000%   0.000%   0.000%   0.000%   0.000%   0.000%   0.000%   0.000%   0.000%   0.000%
   84    2.1  1.0  0.0   0.000%   0.000%   0.000%   0.000%   0.000%   0.000%   0.000%   0.000%   0.000%   0.000%
   85    3.1  1.0  0.0  24.943%   0.000%   0.000%   0.000%   0.000%   0.000%   0.000%   0.000%   0.000%   0.000%
   86    4.1  1.0  0.0   0.000%   0.000%   0.000%   0.000%   0.000%   0.000%   0.000%   0.000%   0.000%   0.000%
   87    5.1  1.0  0.0   2.272%   0.000%   0.000%   0.000%   0.000%   0.000%   0.000%   0.000%   0.000%   0.000%
   88    6.1  1.0  0.0   0.000%   0.000%   0.000%   0.000%   0.000%   0.000%   0.000%   0.000%   0.000%   0.000%
   89    7.1  1.0  0.0   0.000%   0.000%   0.000%   0.000%   0.000%   0.000%   0.000%   0.000%   0.000%   0.000%
   90    1.1  1.0 -1.0   0.000%   0.000%   0.000%   0.000%   0.000%   0.000%   0.000%   0.000%   0.000%   0.000%
   91    2.1  1.0 -1.0   0.071%   0.000%   0.000%   0.000%   0.000%   0.000%   0.000%   0.000%   0.000%   0.000%
   92    3.1  1.0 -1.0   0.000%   0.000%   0.000%   0.000%   0.000%   0.000%   0.000%   0.000%   0.000%   0.000%
   93    4.1  1.0 -1.0   9.297%   0.000%   0.000%   0.000%   0.000%   0.000%   0.000%   0.000%   0.000%   0.000%
   94    5.1  1.0 -1.0   0.000%   0.000%   0.000%   0.000%   0.000%   0.000%   0.000%   0.000%   0.000%   0.000%
   95    6.1  1.0 -1.0   5.710%   0.000%   0.000%   0.000%   0.000%   0.000%   0.000%   0.000%   0.000%   0.000%
   96    7.1  1.0 -1.0  21.274%   0.000%   0.000%   0.000%   0.000%   0.000%   0.000%   0.000%   0.000%   0.000%

   Nr   State  S   Sz      91       92       93       94       95       96

    1    1.1  2.0  2.0   0.000%   0.000%   0.000%   0.000%   0.000%   0.000%
    2    2.1  2.0  2.0   0.000%   0.000%   0.000%   0.000%   0.000%   0.000%
    3    3.1  2.0  2.0   0.000%   0.000%   0.000%   0.000%   0.000%   0.000%
    4    4.1  2.0  2.0   0.000%   0.000%   0.000%   0.000%   0.000%   0.000%
    5    5.1  2.0  2.0   0.000%   0.000%   0.000%   0.000%   0.000%   0.000%
    6    6.1  2.0  2.0   0.000%   0.000%   0.000%   0.000%   0.000%   0.000%
    7    7.1  2.0  2.0   0.000%   0.000%   0.000%   0.000%   0.000%   0.000%
    8    8.1  2.0  2.0   0.000%   0.000%   0.000%   0.000%   0.000%   0.000%
    9    9.1  2.0  2.0   0.000%   0.000%   0.000%   0.000%   0.000%   0.000%
   10   10.1  2.0  2.0   0.000%   0.000%   0.000%   0.000%   0.000%   0.000%
   11   11.1  2.0  2.0   0.000%   0.000%   0.000%   0.000%   0.000%   0.000%
   12   12.1  2.0  2.0   0.000%   0.000%   0.000%   0.000%   0.000%   0.000%
   13   13.1  2.0  2.0   8.345%   0.000%   0.000%  14.988%  14.988%   0.000%
   14   14.1  2.0  2.0   8.345%   0.000%   0.000%  14.988%  14.988%   0.000%
   15   15.1  2.0  2.0   0.000%  33.356%  33.361%   0.000%   0.000%   0.000%
   16    1.1  2.0  1.0   0.000%   0.000%   0.000%   0.000%   0.000%   0.000%
   17    2.1  2.0  1.0   0.000%   0.000%   0.000%   0.000%   0.000%   0.000%
   18    3.1  2.0  1.0   0.000%   0.000%   0.000%   0.000%   0.000%   0.000%
   19    4.1  2.0  1.0   0.000%   0.000%   0.000%   0.000%   0.000%   0.000%
   20    5.1  2.0  1.0   0.000%   0.000%   0.000%   0.000%   0.000%   0.000%
   21    6.1  2.0  1.0   0.000%   0.000%   0.000%   0.000%   0.000%   0.000%
   22    7.1  2.0  1.0   0.000%   0.000%   0.000%   0.000%   0.000%   0.000%
   23    8.1  2.0  1.0   0.000%   0.000%   0.000%   0.000%   0.000%   0.000%
   24    9.1  2.0  1.0   0.000%   0.000%   0.000%   0.000%   0.000%   0.000%
   25   10.1  2.0  1.0   0.000%   0.000%   0.000%   0.000%   0.000%   0.000%
   26   11.1  2.0  1.0   0.000%   0.000%   0.000%   0.000%   0.000%   0.000%
   27   12.1  2.0  1.0   0.000%   0.000%   0.000%   0.000%   0.000%   0.000%
   28   13.1  2.0  1.0   0.000%   8.320%   8.332%   0.000%   0.000%  14.992%
   29   14.1  2.0  1.0   0.000%   8.320%   8.310%   0.000%   0.000%  14.992%
   30   15.1  2.0  1.0   8.334%   0.000%   0.000%  15.020%  15.020%   0.000%
   31    1.1  2.0  0.0   0.000%   0.000%   0.000%   0.000%   0.000%   0.000%
   32    2.1  2.0  0.0   0.000%   0.000%   0.000%   0.000%   0.000%   0.000%
   33    3.1  2.0  0.0   0.000%   0.000%   0.000%   0.000%   0.000%   0.000%
   34    4.1  2.0  0.0   0.000%   0.000%   0.000%   0.000%   0.000%   0.000%
   35    5.1  2.0  0.0   0.000%   0.000%   0.000%   0.000%   0.000%   0.000%
   36    6.1  2.0  0.0   0.000%   0.000%   0.000%   0.000%   0.000%   0.000%
   37    7.1  2.0  0.0   0.000%   0.000%   0.000%   0.000%   0.000%   0.000%
   38    8.1  2.0  0.0   0.000%   0.000%   0.000%   0.000%   0.000%   0.000%
   39    9.1  2.0  0.0   0.000%   0.000%   0.000%   0.000%   0.000%   0.000%
   40   10.1  2.0  0.0   0.000%   0.000%   0.000%   0.000%   0.000%   0.000%
   41   11.1  2.0  0.0   0.000%   0.000%   0.000%   0.000%   0.000%   0.000%
   42   12.1  2.0  0.0   0.000%   0.000%   0.000%   0.000%   0.000%   0.000%
   43   13.1  2.0  0.0  49.952%   0.000%   0.000%   0.000%  10.007%   0.000%
   44   14.1  2.0  0.0   0.000%   0.000%   0.000%  10.007%   0.000%   0.000%
   45   15.1  2.0  0.0   0.000%   0.000%   0.000%   0.000%   0.000%  40.033%
   46    1.1  2.0 -1.0   0.000%   0.000%   0.000%   0.000%   0.000%   0.000%
   47    2.1  2.0 -1.0   0.000%   0.000%   0.000%   0.000%   0.000%   0.000%
   48    3.1  2.0 -1.0   0.000%   0.000%   0.000%   0.000%   0.000%   0.000%
   49    4.1  2.0 -1.0   0.000%   0.000%   0.000%   0.000%   0.000%   0.000%
   50    5.1  2.0 -1.0   0.000%   0.000%   0.000%   0.000%   0.000%   0.000%
   51    6.1  2.0 -1.0   0.000%   0.000%   0.000%   0.000%   0.000%   0.000%
   52    7.1  2.0 -1.0   0.000%   0.000%   0.000%   0.000%   0.000%   0.000%
   53    8.1  2.0 -1.0   0.000%   0.000%   0.000%   0.000%   0.000%   0.000%
   54    9.1  2.0 -1.0   0.000%   0.000%   0.000%   0.000%   0.000%   0.000%
   55   10.1  2.0 -1.0   0.000%   0.000%   0.000%   0.000%   0.000%   0.000%
   56   11.1  2.0 -1.0   0.000%   0.000%   0.000%   0.000%   0.000%   0.000%
   57   12.1  2.0 -1.0   0.000%   0.000%   0.000%   0.000%   0.000%   0.000%
   58   13.1  2.0 -1.0   0.000%   8.321%   8.331%   0.000%   0.000%  14.992%
   59   14.1  2.0 -1.0   0.000%   8.321%   8.309%   0.000%   0.000%  14.992%
   60   15.1  2.0 -1.0   8.334%   0.000%   0.000%  15.020%  15.020%   0.000%
   61    1.1  2.0 -2.0   0.000%   0.000%   0.000%   0.000%   0.000%   0.000%
   62    2.1  2.0 -2.0   0.000%   0.000%   0.000%   0.000%   0.000%   0.000%
   63    3.1  2.0 -2.0   0.000%   0.000%   0.000%   0.000%   0.000%   0.000%
   64    4.1  2.0 -2.0   0.000%   0.000%   0.000%   0.000%   0.000%   0.000%
   65    5.1  2.0 -2.0   0.000%   0.000%   0.000%   0.000%   0.000%   0.000%
   66    6.1  2.0 -2.0   0.000%   0.000%   0.000%   0.000%   0.000%   0.000%
   67    7.1  2.0 -2.0   0.000%   0.000%   0.000%   0.000%   0.000%   0.000%
   68    8.1  2.0 -2.0   0.000%   0.000%   0.000%   0.000%   0.000%   0.000%
   69    9.1  2.0 -2.0   0.000%   0.000%   0.000%   0.000%   0.000%   0.000%
   70   10.1  2.0 -2.0   0.000%   0.000%   0.000%   0.000%   0.000%   0.000%
   71   11.1  2.0 -2.0   0.000%   0.000%   0.000%   0.000%   0.000%   0.000%
   72   12.1  2.0 -2.0   0.000%   0.000%   0.000%   0.000%   0.000%   0.000%
   73   13.1  2.0 -2.0   8.345%   0.000%   0.000%  14.988%  14.988%   0.000%
   74   14.1  2.0 -2.0   8.345%   0.000%   0.000%  14.988%  14.988%   0.000%
   75   15.1  2.0 -2.0   0.000%  33.361%  33.356%   0.000%   0.000%   0.000%
   76    1.1  1.0  1.0   0.000%   0.000%   0.000%   0.000%   0.000%   0.000%
   77    2.1  1.0  1.0   0.000%   0.000%   0.000%   0.000%   0.000%   0.000%
   78    3.1  1.0  1.0   0.000%   0.000%   0.000%   0.000%   0.000%   0.000%
   79    4.1  1.0  1.0   0.000%   0.000%   0.000%   0.000%   0.000%   0.000%
   80    5.1  1.0  1.0   0.000%   0.000%   0.000%   0.000%   0.000%   0.000%
   81    6.1  1.0  1.0   0.000%   0.000%   0.000%   0.000%   0.000%   0.000%
   82    7.1  1.0  1.0   0.000%   0.000%   0.000%   0.000%   0.000%   0.000%
   83    1.1  1.0  0.0   0.000%   0.000%   0.000%   0.000%   0.000%   0.000%
   84    2.1  1.0  0.0   0.000%   0.000%   0.000%   0.000%   0.000%   0.000%
   85    3.1  1.0  0.0   0.000%   0.000%   0.000%   0.000%   0.000%   0.000%
   86    4.1  1.0  0.0   0.000%   0.000%   0.000%   0.000%   0.000%   0.000%
   87    5.1  1.0  0.0   0.000%   0.000%   0.000%   0.000%   0.000%   0.000%
   88    6.1  1.0  0.0   0.000%   0.000%   0.000%   0.000%   0.000%   0.000%
   89    7.1  1.0  0.0   0.000%   0.000%   0.000%   0.000%   0.000%   0.000%
   90    1.1  1.0 -1.0   0.000%   0.000%   0.000%   0.000%   0.000%   0.000%
   91    2.1  1.0 -1.0   0.000%   0.000%   0.000%   0.000%   0.000%   0.000%
   92    3.1  1.0 -1.0   0.000%   0.000%   0.000%   0.000%   0.000%   0.000%
   93    4.1  1.0 -1.0   0.000%   0.000%   0.000%   0.000%   0.000%   0.000%
   94    5.1  1.0 -1.0   0.000%   0.000%   0.000%   0.000%   0.000%   0.000%
   95    6.1  1.0 -1.0   0.000%   0.000%   0.000%   0.000%   0.000%   0.000%
   96    7.1  1.0 -1.0   0.000%   0.000%   0.000%   0.000%   0.000%   0.000%


 Property matrices transformed in SO basis (not sym. adapted)
 ============================================================

 No matrix element <i|DMX|i> larger than 1E-10
 No matrix element <i|DMX|1> larger than 1E-10

 No matrix element <i|DMY|i> larger than 1E-10
 No matrix element <i|DMY|1> larger than 1E-10

 No matrix element <i|DMZ|i> larger than 1E-10
 No matrix element <i|DMZ|1> larger than 1E-10


 **********************************************************************************************************************************
 DATASETS  * FILE   NREC   LENGTH (MB)   RECORD NAMES
              1      24     2192.89       500      610      700      900      950      970     1000      129      960     1700   
                                          VAR    BASINP    GEOM    SYMINP    ZMAT    AOBASIS   BASIS     P2S    ABASIS    OPER   
                                         1101     1401     1411     1412     1650     1100     1400     1410     1200     1210   
                                          SR      EKINR    POTR     PVPR    MOLCAS      S      EKIN      POT      H0       H01  
                                         1080     1600     1380     1700(1)
                                         AOSYM     SMH     JKOP     OPER   

              2       7     1763.16       700     1000      520     2100     2140     5101     5102   
                                         GEOM     BASIS   MCVARS     RHF     MCSCF    MRCI     MRCI   

 PROGRAMS   *        TOTAL        CI        CI        CI     MULTI   RHF-SCF       INT
 CPU TIMES  *     15549.44   8596.69   1350.88   5586.53      3.16      3.29      8.71
 REAL TIME  *     16098.98 SEC
 DISK USED  *         1.77 GB (local),        9.61 GB (total)
 SF USED    *        12.64 GB
 GA USED    *         0.00 MB       (max)       0.00 MB       (current)
 **********************************************************************************************************************************

 CI/cc-pWCV5Z-DK energy=  -1271.930573255035

              CI              CI           MULTI         RHF-SCF
  -1271.90407204  -1271.87405976  -1271.23125270  -1271.27122543
 **********************************************************************************************************************************
 Molpro calculation terminated
