
 Working directory              : /scratch/irikura/molpro.TLoqRzCilQ/
 Global scratch directory       : /scratch/irikura/molpro.TLoqRzCilQ/
 Wavefunction directory         : /home/irikura/wfu/
 Main file repository           : /scratch/irikura/molpro.TLoqRzCilQ/

 id        : nistki

 Nodes     nprocs
 n1410.becn    2
 Distribution of processes:   nprocs(total)=    3   nprocs(compute)=    2   nprocs(helper)=    1
 GA implementation: MPI file
 GA implementation (serial work in mppx): MPI file

 Using customized tuning parameters: mindgm=1; mindgv=20; mindgc=4; mindgr=1; noblas=0; minvec=7
 default implementation of scratch files=sf  


 Variables initialized (1013), CPU time= 0.01 sec
 ***,Ru SO-CI; inversion symm; some valence states (15 quintets + 19 triplets)
                                                                                 ! Active space (8,6)
                                                               ! Replace MRCI energies with MRCI+Dav(rotated) energies in the SO-CI
                                                                                 ! non-diffuse CV basis set
 memory,2000,M;
 
 gprint,orbitals,civector;
 gthresh,energy=1.d-10,coeff=1.d-8;
 
 symmetry,xyz
 geometry={Ru};
 
 basis=cc-pwCVTZ-PP
 
                                                                                 ! ROHF quintet orbitals
 {rhf;wf,nelec=16,sym=1,spin=4}
 
                                                                                 ! state-averaged CASSCF
                                                                                 ! first with (8,6) active space
 {multi,wmk_old
     dynw,8
     occ,7,3;frozen,0,0;closed,1,3;
     wf,sym=1,spin=4;state,15;
     wf,sym=1,spin=2;state,19;
     expec2,lxx,lyy,lzz;
 }
 
 table, energy, ll
 title, Energies and &lt;L**2&gt; values
 
 {ci,maxit=150;wf,sym=1,spin=4;state,15;
  option,nstati=15;save,5101.3}
 hlsdiag = energd4
 
 {ci,maxit=150;wf,sym=1,spin=2;state,19;
  option,nstati=19;save,5101.1}
 hlsdiag(16) = energd4
 
 table,hlsdiag
 
 {ci;hlsmat,ecp,5101.3,5101.1;print,vls=0,hls=0}                                 !compute and diagonalize SO matrix
 
 Commands initialized (815), CPU time= 0.01 sec, 669 directives.
 Default parameters read. Elapsed time= 1.70 sec

 Checking input...
 Passed
1


                                         ***  PROGRAM SYSTEM MOLPRO  ***
                                       Copyright, TTI GmbH Stuttgart, 2015
                                    Version 2021.3 linked Nov 22 2021 23:03:20


 **********************************************************************************************************************************
 LABEL *   Ru SO-CI; inversion symm; some valence states (15 quintets + 19 triple        
  64 bit mpp version                                                                     DATE: 01-May-23          TIME: 15:40:31  
 **********************************************************************************************************************************

 SHA1:             8b8f1fffdd8ed686b3bdbdb000c23abeeca3c440
 **********************************************************************************************************************************

 Memory per process:      2000 MW
 Total memory per node:   4000 MW

 GA preallocation disabled
 GA check disabled

 Variable memory set to 2000.0 MW



 THRESHOLDS:

 ZERO    =  1.00D-12  ONEINT  =  1.00D-12  TWOINT  =  1.00D-11  PREFAC  =  1.00D-14  XXXXXX  =  1.00D-09  EORDER  =  1.00D-04
 ENERGY  =  1.00D-10  ETEST   =  0.00D+00  EDENS   =  0.00D+00  THRDEDEF=  1.00D-06  GRADIENT=  1.00D-05  STEP    =  1.00D-03
 ORBITAL =  1.00D-05  CIVEC   =  1.00D-05  COEFF   =  1.00D-08  PRINTCI =  5.00D-02  PUNCHCI =  9.90D+01  OPTGRAD =  3.00D-04
 OPTENERG=  1.00D-06  OPTSTEP =  3.00D-04  THRGRAD =  1.00D-10  COMPRESS=  1.00D-11  VARMIN  =  1.00D-07  VARMAX  =  1.00D-03
 THRDOUB =  0.00D+00  THRDIV  =  1.00D-05  THRRED  =  1.00D-07  THRPSP  =  1.00D+00  THRDC   =  1.00D-10  THRCS   =  1.00D-10
 THRNRM  =  1.00D-08  THREQ   =  0.00D+00  THRDE   =  1.00D+00  THRREF  =  1.00D-05  SPARFAC =  1.00D+00  THRDLP  =  1.00D-07
 THRDIA  =  1.00D-10  THRDLS  =  1.00D-07  THRGPS  =  0.00D+00  THRKEX  =  0.00D+00  THRDIS  =  2.00D-01  THRVAR  =  1.00D-10
 THRLOC  =  1.00D-06  THRGAP  =  1.00D-06  THRLOCT = -1.00D+00  THRGAPT = -1.00D+00  THRORB  =  1.00D-06  THRMLTP =  0.00D+00
 THRCPQCI=  1.00D-10  KEXTA   =  0.00D+00  THRCOARS=  0.00D+00  SYMTOL  =  1.00D-06  GRADTOL =  1.00D-06  THROVL  =  1.00D-08
 THRORTH =  1.00D-08  THRDLOVL= -1.00D+00  GRID    =  1.00D-06  GRIDMAX =  1.00D-03  DTMAX   =  0.00D+00  THROCCDE=  1.00D-01
 THROCCDE=  1.00D-01  THRPRINT=  2.50D-01

 ZSYMEL=XYZ

 SETTING BASIS          =    CC-PWCVTZ-PP


 Recomputing integrals since basis changed


 Using spherical harmonics

 Library entry Ru   ECP ECP28MDF                 selected for group  1
 Library entry RU     S cc-pwCVTZ-PP         selected for orbital group  1
 Library entry RU     P cc-pwCVTZ-PP         selected for orbital group  1
 Library entry RU     D cc-pwCVTZ-PP         selected for orbital group  1
 Library entry RU     F cc-pwCVTZ-PP         selected for orbital group  1
 Library entry RU     G cc-pwCVTZ-PP         selected for orbital group  1


 PROGRAM * SEWARD (Integral evaluation for generally contracted gaussian basis sets)     Author: Roland Lindh, 1990

 Geometry written to block  1 of record 700

 Orientation using atomic masses  
 Molecule type: Atom
 User-specified symmetry elements: XYZ
 Symmetry elements: XYZ
 Rotational constants:       0.0000000      0.0000000      0.0000000 GHz  (calculated with average atomic masses)

 Point group  Ci  



 ATOMIC COORDINATES

 NR  ATOM    CHARGE       X              Y              Z

   1  RU     16.00    0.000000000    0.000000000    0.000000000

 NUCLEAR CHARGE:                   16
 NUMBER OF PRIMITIVE AOS:         165
 NUMBER OF SYMMETRY AOS:          134
 NUMBER OF CONTRACTIONS:           97   (   55Ag  +   42Au  )
 NUMBER OF INNER CORE ORBITALS:     0   (    0Ag  +    0Au  )
 NUMBER OF OUTER CORE ORBITALS:     4   (    1Ag  +    3Au  )
 NUMBER OF VALENCE ORBITALS:        6   (    6Ag  +    0Au  )


 LX: Ag           LY: Ag           LZ: Ag 


 NUCLEAR REPULSION ENERGY    0.00000000

 EXTRA SYMMETRY OF AOS IN SYMMETRY 1:   1 1 1 1 1 1 1 2 3 4   5 6 2 3 4 5 6 2 3 4   5 6 2 3 4 5 6 2 3 4   5 6 2 3 4 5 6 7 8 9
                                       101112131415 7 8 910  1112131415
 EXTRA SYMMETRY OF AOS IN SYMMETRY 2:   1 2 3 1 2 3 1 2 3 1   2 3 1 2 3 1 2 3 1 2   3 4 5 6 7 8 910 4 5   6 7 8 910 4 5 6 7 8
                                        910


 Eigenvalues of metric

         1 0.783E-03 0.266E-02 0.266E-02 0.266E-02 0.266E-02 0.266E-02 0.712E-02 0.434E-01
         2 0.339E-04 0.339E-04 0.339E-04 0.465E-02 0.465E-02 0.465E-02 0.216E+00 0.216E+00


 Contracted 2-electron integrals neglected if value below      1.0D-14
 AO integral compression algorithm  1   Integral accuracy      1.0D-14

     20.185 MB (compressed) written to integral file ( 23.1%)

     Node minimum: 9.961 MB, node maximum: 10.224 MB


 NUMBER OF SORTED TWO-ELECTRON INTEGRALS:    2881142.     BUFFER LENGTH:  32768
 NUMBER OF SEGMENTS:   1  SEGMENT LENGTH:    2881142      RECORD LENGTH: 524288

 Memory used in sort:       3.44 MW

 SORT1 READ    10868272. AND WROTE      559070. INTEGRALS IN      2 RECORDS. CPU TIME:     0.04 SEC, REAL TIME:     0.05 SEC
 SORT2 READ     1120225. AND WROTE     5766586. INTEGRALS IN     78 RECORDS. CPU TIME:     0.08 SEC, REAL TIME:     0.09 SEC

 Node minimum:     2881142.  Node maximum:     2885444. integrals

 OPERATOR DM      FOR CENTER  0  COORDINATES:    0.000000    0.000000    0.000000


 **********************************************************************************************************************************
 DATASETS  * FILE   NREC   LENGTH (MB)   RECORD NAMES
              1      19       28.83       500      610      700      900      950      970     1000      129      960     1100   
                                          VAR    BASINP    GEOM    SYMINP    ZMAT    AOBASIS   BASIS     P2S    ABASIS      S 
                                         1400     1410     1420     1200     1210     1080     1700     1600     1650   
                                           T        V       ECP      H0       H01     AOSYM    OPER      SMH    MOLCAS    

 PROGRAMS   *        TOTAL       INT
 CPU TIMES  *         0.97      0.81
 REAL TIME  *         4.78 SEC
 DISK USED  *        29.10 MB (local),       85.68 MB (total)
 GA USED    *         0.00 MB       (max)       0.00 MB       (current)
 **********************************************************************************************************************************


 Program * Restricted Hartree-Fock

 Orbital guess generated from atomic densities. Full valence occupancy:    7   3

 Initial alpha occupancy:   7   3
 Initial beta  occupancy:   3   3

 NELEC=   16   SYM=1   MS2= 4   THRE=1.0D-12   THRD=1.0D-06   THRG=1.0D-06  HFMA2=F  DIIS_START=2   DIIS_MAX=10   DIIS_INCORE=F

 Level shifts:    0.00 (CLOSED)    0.00 (OPEN)    0.30 (GAP_MIN)

 ITER           ETOT              DE          GRAD        DDIFF     DIIS  NEXP   TIME(IT)  TIME(TOT)  DIAG
   1      -93.76603570     -93.76603570     0.00D+00     0.10D+00     0     0       0.01      0.02    start
   2      -93.79174529      -0.02570959     0.71D-02     0.11D-01     1     0       0.02      0.04    diag2
   3      -93.79958348      -0.00783819     0.54D-02     0.65D-02     2     0       0.01      0.05    diag2
   4      -93.80066488      -0.00108140     0.81D-03     0.22D-02     3     0       0.02      0.07    diag2
   5      -93.80162630      -0.00096142     0.36D-03     0.12D-02     4     0       0.01      0.08    diag2
   6      -93.80352177      -0.00189547     0.32D-03     0.18D-02     5     0       0.01      0.09    diag2
   7      -93.80578639      -0.00226462     0.28D-03     0.27D-02     6     0       0.02      0.11    diag2
   8      -93.80723553      -0.00144914     0.22D-03     0.25D-02     7     0       0.01      0.12    diag2
   9      -93.80795524      -0.00071971     0.17D-03     0.18D-02     8     0       0.02      0.14    diag2
  10      -93.80846118      -0.00050594     0.14D-03     0.17D-02     9     0       0.01      0.15    diag2/orth
  11      -93.80868931      -0.00022813     0.20D-03     0.15D-02     9     0       0.01      0.16    diag2
  12      -93.80871174      -0.00002243     0.16D-03     0.21D-03     9     0       0.02      0.18    diag2
  13      -93.80873555      -0.00002381     0.11D-03     0.42D-03     9     0       0.01      0.19    diag2
  14      -93.80874590      -0.00001035     0.87D-04     0.29D-03     9     0       0.02      0.21    diag2
  15      -93.80874662      -0.00000072     0.17D-04     0.91D-04     9     0       0.01      0.22    diag2
  16      -93.80874679      -0.00000017     0.66D-05     0.41D-04     9     0       0.01      0.23    diag2
  17      -93.80874719      -0.00000040     0.46D-05     0.57D-04     9     0       0.02      0.25    diag2
  18      -93.80874739      -0.00000020     0.52D-05     0.28D-04     9     0       0.02      0.27    diag2
  19      -93.80874746      -0.00000008     0.20D-05     0.21D-04     9     0       0.01      0.28    diag2
  20      -93.80874750      -0.00000004     0.14D-05     0.12D-04     9     0       0.01      0.29    diag2/orth
  21      -93.80874753      -0.00000003     0.10D-05     0.14D-04     9     0       0.02      0.31    diag2
  22      -93.80874753      -0.00000000     0.39D-06     0.57D-05     9     0       0.01      0.32    diag2
  23      -93.80874753      -0.00000000     0.11D-06     0.95D-06     9     0       0.02      0.34    diag2
  24      -93.80874753      -0.00000000     0.29D-07     0.50D-06     9     0       0.01      0.35    diag2
  25      -93.80874753      -0.00000000     0.68D-08     0.13D-06     9     0       0.01      0.36    diag2
  26      -93.80874753      -0.00000000     0.22D-08     0.34D-07     9     0       0.02      0.38    diag2
  27      -93.80874753       0.00000000     0.90D-09     0.25D-08     0     0       0.01      0.39    diag

 Final alpha occupancy:   7   3
 Final beta  occupancy:   3   3

 !RHF STATE 1.1 Energy                -93.808747533048
  RHF One-electron energy            -164.845828550790
  RHF Two-electron energy              71.037081017742
  RHF Kinetic energy                   34.544111206192
  RHF Nuclear energy                    0.000000000000
  RHF Virial quotient                  -2.715621976004

 !RHF STATE 1.1 Dipole moment           0.00000000     0.00000000     0.00000000
 Dipole moment /Debye                   0.00000000     0.00000000     0.00000000

 ELECTRON ORBITALS
 =================

  Orbital  Occupation    Energy    Cen Mu Typ  Coefficients
    1.1     2.00000    -3.44234     1  1  s    1.00195
    2.1     2.00000    -0.36471     1  1  d1+  0.86180    1  1  d1- -0.39991
    3.1     2.00000    -0.36471     1  1  d0  -0.42158    1  1  d2-  0.74473    1  1  d2+ -0.36950    1  1  d1-  0.35360
    4.1     1.00000    -0.43320     1  1  d0  -0.53749    1  1  d2+  0.82144
    5.1     1.00000    -0.43320     1  1  d0   0.70172    1  1  d2-  0.60212    1  1  d2+  0.33832
    6.1     1.00000    -0.43320     1  1  d1+  0.46145    1  1  d1-  0.83990
    7.1     1.00000    -0.23810     1  2  s    0.96859
    1.2     2.00000    -2.14841     1  1  px   0.90369    1  1  py  -0.29470    1  1  pz  -0.31112
    2.2     2.00000    -2.14841     1  1  px   0.40176    1  1  py   0.32996    1  1  pz   0.85442
    3.2     2.00000    -2.14841     1  1  py   0.89699    1  1  pz  -0.41652


 HOMO      7.1    -0.238099 =      -6.4790eV
 LUMO      4.2     0.031242 =       0.8501eV
 LUMO-HOMO         0.269341 =       7.3291eV

 Orbitals saved in record  2100.2


 **********************************************************************************************************************************
 DATASETS  * FILE   NREC   LENGTH (MB)   RECORD NAMES
              1      19       28.83       500      610      700      900      950      970     1000      129      960     1100   
                                          VAR    BASINP    GEOM    SYMINP    ZMAT    AOBASIS   BASIS     P2S    ABASIS      S 
                                         1400     1410     1420     1200     1210     1080     1700     1600     1650   
                                           T        V       ECP      H0       H01     AOSYM    OPER      SMH    MOLCAS    

              2       4        0.51       700     1000      520     2100   
                                         GEOM     BASIS   MCVARS     RHF  

 PROGRAMS   *        TOTAL   RHF-SCF       INT
 CPU TIMES  *         1.37      0.40      0.81
 REAL TIME  *         5.25 SEC
 DISK USED  *        30.06 MB (local),       87.59 MB (total)
 GA USED    *         0.00 MB       (max)       0.00 MB       (current)
 **********************************************************************************************************************************

 PROGRAM * MULTI (Direct Multiconfiguration SCF)       Authors: P.J. Knowles, H.-J. Werner (1984)

 Dynamical weighting enabled. DYNFAC=     8.000

 Number of closed-shell orbitals:   4 (   1   3 )
 Number of active  orbitals:        6 (   6   0 )
 Number of external orbitals:      87 (  48  39 )

 State symmetry 1

 Number of active electrons:   8    Spin symmetry=Quintet   Space symmetry=1
 Number of states:            15
 Number of CSFs:              15   (15 determinants, 15 intermediate states)

 State symmetry 2

 Number of active electrons:   8    Spin symmetry=Triplet   Space symmetry=1
 Number of states:            19
 Number of CSFs:             105   (120 determinants, 120 intermediate states)

 Molecular orbitals read from record     2100.2  Type=RHF/CANONICAL  
 *** IN SYMMETRY 1 ORBITAL  1 SYMMETRY CONTAMINATION OF 0.419D-02 HAS BEEN REMOVED
 *** IN SYMMETRY 1 ORBITAL  2 SYMMETRY CONTAMINATION OF 0.520D+00 HAS BEEN REMOVED
 *** IN SYMMETRY 1 ORBITAL  3 SYMMETRY CONTAMINATION OF 0.629D+00 HAS BEEN REMOVED
 *** IN SYMMETRY 1 ORBITAL  4 SYMMETRY CONTAMINATION OF 0.507D+00 HAS BEEN REMOVED
 *** IN SYMMETRY 1 ORBITAL  5 SYMMETRY CONTAMINATION OF 0.622D+00 HAS BEEN REMOVED
 *** IN SYMMETRY 1 ORBITAL  6 SYMMETRY CONTAMINATION OF 0.514D+00 HAS BEEN REMOVED
 *** IN SYMMETRY 1 ORBITAL  7 SYMMETRY CONTAMINATION OF 0.760D-02 HAS BEEN REMOVED

 EXTRA SYMMETRY OF MOS IN SYMMETRY 1:   1 4 3 5 2 6 1 1 2 3   6 4 5 1 2 3 6 4 5 5   3 6 4 3 11011 71315   91412 8 2 2 6 4 3 1
                                       1011 715131214 9 8 5   2 6 5 4 1
 *** IN SYMMETRY 2 ORBITAL  1 SYMMETRY CONTAMINATION OF 0.411D+00 HAS BEEN REMOVED
 *** IN SYMMETRY 2 ORBITAL  2 SYMMETRY CONTAMINATION OF 0.471D+00 HAS BEEN REMOVED
 *** IN SYMMETRY 2 ORBITAL  3 SYMMETRY CONTAMINATION OF 0.398D+00 HAS BEEN REMOVED
 EXTRA SYMMETRY OF MOS IN SYMMETRY 2:   1 3 2 1 3 2 1 3 2 1   3 2 7 910 6 8 4 5 1   3 2 7 910 6 8 4 5 1   2 3 7 910 6 8 4 5 1
                                        2 3

 Wavefunction dump at record             2140.2

 Convergence thresholds  0.10E-01 (gradient)  0.10E-09 (energy)  0.10E-02 (step length)

 Weight factors for state symmetry  1:    0.02941   0.02941   0.02941   0.02941   0.02941   0.02941   0.02941   0.02941
                                          0.02941   0.02941   0.02941   0.02941   0.02941   0.02941   0.02941
 Weight factors for state symmetry  2:    0.02941   0.02941   0.02941   0.02941   0.02941   0.02941   0.02941   0.02941
                                          0.02941   0.02941   0.02941   0.02941   0.02941   0.02941   0.02941   0.02941
                                          0.02941   0.02941   0.02941

 Number of orbital rotations:      459   (     6 Core/Active    165 Core/Virtual   0 Active/Active    288 Active/Virtual)
 Total number of variables:       2964


 ITER. MIC  NCI  NEG     ENERGY(VAR)     ENERGY(PROJ)   ENERGY CHANGE     GRAD(0)  GRAD(ORB)   GRAD(CI)     STEP       TIME

 New weights:        0.035264  0.035263  0.035263  0.035262  0.035262  0.035257  0.035257  0.029049  0.029049  0.028744
                     0.026820  0.026739  0.026739  0.026395  0.026395  0.031659  0.031487  0.031487  0.031457  0.031457
                     0.031189  0.031189  0.026598  0.026598  0.026518  0.026514  0.026514  0.026504  0.026504  0.026488
                     0.026488  0.024908  0.024843  0.024843
   1   68   10    0     -93.76069836     -93.76150212   -0.00080376    0.04602455 0.00000533 0.00000000  0.30D-01      0.15
 New weights:        0.034852  0.034852  0.034852  0.034852  0.034852  0.034852  0.034852  0.028735  0.028735  0.028735
                     0.027758  0.027758  0.027758  0.027758  0.027758  0.031334  0.031334  0.031334  0.031334  0.031334
                     0.031334  0.031334  0.026395  0.026395  0.026395  0.026395  0.026395  0.026395  0.026395  0.026395
                     0.026395  0.024715  0.024715  0.024715
 New weights:        0.034852  0.034852  0.034852  0.034852  0.034852  0.034852  0.034852  0.028735  0.028735  0.028735
                     0.027758  0.027758  0.027758  0.027758  0.027758  0.031334  0.031334  0.031334  0.031334  0.031334
                     0.031334  0.031334  0.026395  0.026395  0.026395  0.026395  0.026395  0.026395  0.026395  0.026395
                     0.026395  0.024715  0.024715  0.024715
   2  129   30    0     -93.76132652     -93.76132787   -0.00000136    0.00210743 0.00000000 0.00000000  0.10D-02      0.37
 New weights:        0.034836  0.034836  0.034836  0.034836  0.034836  0.034836  0.034836  0.028718  0.028718  0.028718
                     0.027849  0.027849  0.027849  0.027849  0.027849  0.031317  0.031317  0.031317  0.031317  0.031317
                     0.031317  0.031317  0.026379  0.026379  0.026379  0.026379  0.026379  0.026379  0.026379  0.026379
                     0.026379  0.024705  0.024705  0.024705
 New weights:        0.034836  0.034836  0.034836  0.034836  0.034836  0.034836  0.034836  0.028718  0.028718  0.028718
                     0.027849  0.027849  0.027849  0.027849  0.027849  0.031317  0.031317  0.031317  0.031317  0.031317
                     0.031317  0.031317  0.026379  0.026379  0.026379  0.026379  0.026379  0.026379  0.026379  0.026379
                     0.026379  0.024705  0.024705  0.024705
   3  108   24    0     -93.76132016     -93.76132017   -0.00000001    0.00018145 0.00000000 0.00000000  0.10D-03      0.55
 New weights:        0.034835  0.034835  0.034835  0.034835  0.034835  0.034835  0.034835  0.028717  0.028717  0.028717
                     0.027857  0.027857  0.027857  0.027857  0.027857  0.031316  0.031316  0.031316  0.031316  0.031316
                     0.031316  0.031316  0.026378  0.026378  0.026378  0.026378  0.026378  0.026378  0.026378  0.026378
                     0.026378  0.024704  0.024704  0.024704
 New weights:        0.034835  0.034835  0.034835  0.034835  0.034835  0.034835  0.034835  0.028717  0.028717  0.028717
                     0.027857  0.027857  0.027857  0.027857  0.027857  0.031316  0.031316  0.031316  0.031316  0.031316
                     0.031316  0.031316  0.026378  0.026378  0.026378  0.026378  0.026378  0.026378  0.026378  0.026378
                     0.026378  0.024704  0.024704  0.024704
   4  117   24    0     -93.76131949     -93.76131949   -0.00000000    0.00001599 0.00000000 0.00000000  0.90D-05      0.74
 New weights:        0.034835  0.034835  0.034835  0.034835  0.034835  0.034835  0.034835  0.028717  0.028717  0.028717
                     0.027857  0.027857  0.027857  0.027857  0.027857  0.031316  0.031316  0.031316  0.031316  0.031316
                     0.031316  0.031316  0.026378  0.026378  0.026378  0.026378  0.026378  0.026378  0.026378  0.026378
                     0.026378  0.024704  0.024704  0.024704
 New weights:        0.034835  0.034835  0.034835  0.034835  0.034835  0.034835  0.034835  0.028717  0.028717  0.028717
                     0.027857  0.027857  0.027857  0.027857  0.027857  0.031316  0.031316  0.031316  0.031316  0.031316
                     0.031316  0.031316  0.026378  0.026378  0.026378  0.026378  0.026378  0.026378  0.026378  0.026378
                     0.026378  0.024704  0.024704  0.024704
   5  115   24    0     -93.76131943     -93.76131943   -0.00000000    0.00000141 0.00000000 0.00000000  0.79D-06      0.91
 New weights:        0.034835  0.034835  0.034835  0.034835  0.034835  0.034835  0.034835  0.028717  0.028717  0.028717
                     0.027857  0.027857  0.027857  0.027857  0.027857  0.031316  0.031316  0.031316  0.031316  0.031316
                     0.031316  0.031316  0.026377  0.026377  0.026377  0.026377  0.026377  0.026377  0.026377  0.026377
                     0.026377  0.024704  0.024704  0.024704
 New weights:        0.034835  0.034835  0.034835  0.034835  0.034835  0.034835  0.034835  0.028717  0.028717  0.028717
                     0.027857  0.027857  0.027857  0.027857  0.027857  0.031316  0.031316  0.031316  0.031316  0.031316
                     0.031316  0.031316  0.026377  0.026377  0.026377  0.026377  0.026377  0.026377  0.026377  0.026377
                     0.026377  0.024704  0.024704  0.024704
   6  117   24    0     -93.76131943     -93.76131943   -0.00000000    0.00000012 0.00000000 0.00000000  0.70D-07      1.09
 New weights:        0.034835  0.034835  0.034835  0.034835  0.034835  0.034835  0.034835  0.028717  0.028717  0.028717
                     0.027857  0.027857  0.027857  0.027857  0.027857  0.031316  0.031316  0.031316  0.031316  0.031316
                     0.031316  0.031316  0.026377  0.026377  0.026377  0.026377  0.026377  0.026377  0.026377  0.026377
                     0.026377  0.024704  0.024704  0.024704
 New weights:        0.034835  0.034835  0.034835  0.034835  0.034835  0.034835  0.034835  0.028717  0.028717  0.028717
                     0.027857  0.027857  0.027857  0.027857  0.027857  0.031316  0.031316  0.031316  0.031316  0.031316
                     0.031316  0.031316  0.026377  0.026377  0.026377  0.026377  0.026377  0.026377  0.026377  0.026377
                     0.026377  0.024704  0.024704  0.024704
   7  120   24    0     -93.76131942     -93.76131942   -0.00000000    0.00000001 0.00000000 0.00000000  0.62D-08      1.27
 New weights:        0.034835  0.034835  0.034835  0.034835  0.034835  0.034835  0.034835  0.028717  0.028717  0.028717
                     0.027857  0.027857  0.027857  0.027857  0.027857  0.031316  0.031316  0.031316  0.031316  0.031316
                     0.031316  0.031316  0.026377  0.026377  0.026377  0.026377  0.026377  0.026377  0.026377  0.026377
                     0.026377  0.024704  0.024704  0.024704
 New weights:        0.034835  0.034835  0.034835  0.034835  0.034835  0.034835  0.034835  0.028717  0.028717  0.028717
                     0.027857  0.027857  0.027857  0.027857  0.027857  0.031316  0.031316  0.031316  0.031316  0.031316
                     0.031316  0.031316  0.026377  0.026377  0.026377  0.026377  0.026377  0.026377  0.026377  0.026377
                     0.026377  0.024704  0.024704  0.024704
   8  118   24    0     -93.76131942     -93.76131942    0.00000000    0.00000000 0.00000000 0.00000000  0.55D-09      1.46
 New weights:        0.034835  0.034835  0.034835  0.034835  0.034835  0.034835  0.034835  0.028717  0.028717  0.028717
                     0.027857  0.027857  0.027857  0.027857  0.027857  0.031316  0.031316  0.031316  0.031316  0.031316
                     0.031316  0.031316  0.026377  0.026377  0.026377  0.026377  0.026377  0.026377  0.026377  0.026377
                     0.026377  0.024704  0.024704  0.024704
 New weights:        0.034835  0.034835  0.034835  0.034835  0.034835  0.034835  0.034835  0.028717  0.028717  0.028717
                     0.027857  0.027857  0.027857  0.027857  0.027857  0.031316  0.031316  0.031316  0.031316  0.031316
                     0.031316  0.031316  0.026377  0.026377  0.026377  0.026377  0.026377  0.026377  0.026377  0.026377
                     0.026377  0.024704  0.024704  0.024704
   9  119   24    0     -93.76131942     -93.76131942   -0.00000000    0.00000000 0.00000000 0.00000000  0.49D-10      1.64
 New weights:        0.034835  0.034835  0.034835  0.034835  0.034835  0.034835  0.034835  0.028717  0.028717  0.028717
                     0.027857  0.027857  0.027857  0.027857  0.027857  0.031316  0.031316  0.031316  0.031316  0.031316
                     0.031316  0.031316  0.026377  0.026377  0.026377  0.026377  0.026377  0.026377  0.026377  0.026377
                     0.026377  0.024704  0.024704  0.024704
 New weights:        0.034835  0.034835  0.034835  0.034835  0.034835  0.034835  0.034835  0.028717  0.028717  0.028717
                     0.027857  0.027857  0.027857  0.027857  0.027857  0.031316  0.031316  0.031316  0.031316  0.031316
                     0.031316  0.031316  0.026377  0.026377  0.026377  0.026377  0.026377  0.026377  0.026377  0.026377
                     0.026377  0.024704  0.024704  0.024704

 ** WVFN ****  CONVERGENCE REACHED, FINAL GRADIENT:  0.76D-11



 Results for state 1.1
 =====================
 !MCSCF STATE 1.1 Energy              -93.805137407159
 Nuclear energy                         0.00000000
 Kinetic energy                        34.75038871
 One electron energy                 -165.10841717
 Two electron energy                   71.30327977
 Virial ratio                           3.69939822

 !MCSCF STATE 1.1 Dipole moment         0.00000000     0.00000000     0.00000000
 Dipole moment /Debye                   0.00000000     0.00000000     0.00000000

 Results for state 2.1
 =====================
 !MCSCF STATE 2.1 Energy              -93.805137407159
 Nuclear energy                         0.00000000
 Kinetic energy                        34.75038871
 One electron energy                 -165.10841717
 Two electron energy                   71.30327977
 Virial ratio                           3.69939822

 !MCSCF STATE 2.1 Dipole moment         0.00000000     0.00000000     0.00000000
 Dipole moment /Debye                   0.00000000     0.00000000     0.00000000

 Results for state 3.1
 =====================
 !MCSCF STATE 3.1 Energy              -93.805137407159
 Nuclear energy                         0.00000000
 Kinetic energy                        34.75038871
 One electron energy                 -165.10841717
 Two electron energy                   71.30327977
 Virial ratio                           3.69939822

 !MCSCF STATE 3.1 Dipole moment         0.00000000     0.00000000     0.00000000
 Dipole moment /Debye                   0.00000000     0.00000000     0.00000000

 Results for state 4.1
 =====================
 !MCSCF STATE 4.1 Energy              -93.805137407159
 Nuclear energy                         0.00000000
 Kinetic energy                        34.75038871
 One electron energy                 -165.10841717
 Two electron energy                   71.30327977
 Virial ratio                           3.69939822

 !MCSCF STATE 4.1 Dipole moment         0.00000000     0.00000000     0.00000000
 Dipole moment /Debye                   0.00000000     0.00000000     0.00000000

 Results for state 5.1
 =====================
 !MCSCF STATE 5.1 Energy              -93.805137407159
 Nuclear energy                         0.00000000
 Kinetic energy                        34.75038871
 One electron energy                 -165.10841717
 Two electron energy                   71.30327977
 Virial ratio                           3.69939822

 !MCSCF STATE 5.1 Dipole moment         0.00000000     0.00000000     0.00000000
 Dipole moment /Debye                   0.00000000     0.00000000     0.00000000

 Results for state 6.1
 =====================
 !MCSCF STATE 6.1 Energy              -93.805137407159
 Nuclear energy                         0.00000000
 Kinetic energy                        34.75038871
 One electron energy                 -165.10841717
 Two electron energy                   71.30327977
 Virial ratio                           3.69939822

 !MCSCF STATE 6.1 Dipole moment         0.00000000     0.00000000     0.00000000
 Dipole moment /Debye                   0.00000000     0.00000000     0.00000000

 Results for state 7.1
 =====================
 !MCSCF STATE 7.1 Energy              -93.805137407159
 Nuclear energy                         0.00000000
 Kinetic energy                        34.75038871
 One electron energy                 -165.10841717
 Two electron energy                   71.30327977
 Virial ratio                           3.69939822

 !MCSCF STATE 7.1 Dipole moment         0.00000000     0.00000000     0.00000000
 Dipole moment /Debye                   0.00000000     0.00000000     0.00000000

 Results for state 8.1
 =====================
 !MCSCF STATE 8.1 Energy              -93.749314265792
 Nuclear energy                         0.00000000
 Kinetic energy                        34.75038871
 One electron energy                 -165.10841717
 Two electron energy                   71.35910291
 Virial ratio                           3.69779182

 !MCSCF STATE 8.1 Dipole moment         0.00000000     0.00000000     0.00000000
 Dipole moment /Debye                   0.00000000     0.00000000     0.00000000

 Results for state 9.1
 =====================
 !MCSCF STATE 9.1 Energy              -93.749314265792
 Nuclear energy                         0.00000000
 Kinetic energy                        34.75038871
 One electron energy                 -165.10841717
 Two electron energy                   71.35910291
 Virial ratio                           3.69779182

 !MCSCF STATE 9.1 Dipole moment         0.00000000     0.00000000     0.00000000
 Dipole moment /Debye                   0.00000000     0.00000000     0.00000000

 Results for state 10.1
 ======================
 !MCSCF STATE 10.1 Energy             -93.749314265792
 Nuclear energy                         0.00000000
 Kinetic energy                        34.75038871
 One electron energy                 -165.10841717
 Two electron energy                   71.35910291
 Virial ratio                           3.69779182

 !MCSCF STATE 10.1 Dipole moment        0.00000000     0.00000000     0.00000000
 Dipole moment /Debye                   0.00000000     0.00000000     0.00000000

 Results for state 11.1
 ======================
 !MCSCF STATE 11.1 Energy             -93.744933741697
 Nuclear energy                         0.00000000
 Kinetic energy                        32.60539090
 One electron energy                 -161.24727316
 Two electron energy                   67.50233942
 Virial ratio                           3.87513602

 !MCSCF STATE 11.1 Dipole moment        0.00000000     0.00000000     0.00000000
 Dipole moment /Debye                   0.00000000     0.00000000     0.00000000

 Results for state 12.1
 ======================
 !MCSCF STATE 12.1 Energy             -93.744933741697
 Nuclear energy                         0.00000000
 Kinetic energy                        32.60539090
 One electron energy                 -161.24727316
 Two electron energy                   67.50233942
 Virial ratio                           3.87513602

 !MCSCF STATE 12.1 Dipole moment        0.00000000     0.00000000     0.00000000
 Dipole moment /Debye                   0.00000000     0.00000000     0.00000000

 Results for state 13.1
 ======================
 !MCSCF STATE 13.1 Energy             -93.744933741697
 Nuclear energy                         0.00000000
 Kinetic energy                        32.60539090
 One electron energy                 -161.24727316
 Two electron energy                   67.50233942
 Virial ratio                           3.87513602

 !MCSCF STATE 13.1 Dipole moment        0.00000000     0.00000000     0.00000000
 Dipole moment /Debye                   0.00000000     0.00000000     0.00000000

 Results for state 14.1
 ======================
 !MCSCF STATE 14.1 Energy             -93.744933741697
 Nuclear energy                         0.00000000
 Kinetic energy                        32.60539090
 One electron energy                 -161.24727316
 Two electron energy                   67.50233942
 Virial ratio                           3.87513602

 !MCSCF STATE 14.1 Dipole moment        0.00000000     0.00000000     0.00000000
 Dipole moment /Debye                   0.00000000     0.00000000     0.00000000

 Results for state 15.1
 ======================
 !MCSCF STATE 15.1 Energy             -93.744933741697
 Nuclear energy                         0.00000000
 Kinetic energy                        32.60539090
 One electron energy                 -161.24727316
 Two electron energy                   67.50233942
 Virial ratio                           3.87513602

 !MCSCF STATE 15.1 Dipole moment        0.00000000     0.00000000     0.00000000
 Dipole moment /Debye                   0.00000000     0.00000000     0.00000000



 Results for state 1.1
 =====================
 !MCSCF STATE 1.1 Energy              -93.763982387751
 Nuclear energy                         0.00000000
 Kinetic energy                        34.70725025
 One electron energy                 -165.03076498
 Two electron energy                   71.26678260
 Virial ratio                           3.70156759

 !MCSCF STATE 1.1 Dipole moment         0.00000000     0.00000000     0.00000000
 Dipole moment /Debye                   0.00000000     0.00000000     0.00000000

 Results for state 2.1
 =====================
 !MCSCF STATE 2.1 Energy              -93.763982387751
 Nuclear energy                         0.00000000
 Kinetic energy                        34.70725025
 One electron energy                 -165.03076498
 Two electron energy                   71.26678260
 Virial ratio                           3.70156759

 !MCSCF STATE 2.1 Dipole moment         0.00000000     0.00000000     0.00000000
 Dipole moment /Debye                   0.00000000     0.00000000     0.00000000

 Results for state 3.1
 =====================
 !MCSCF STATE 3.1 Energy              -93.763982387751
 Nuclear energy                         0.00000000
 Kinetic energy                        34.70725025
 One electron energy                 -165.03076498
 Two electron energy                   71.26678260
 Virial ratio                           3.70156759

 !MCSCF STATE 3.1 Dipole moment         0.00000000     0.00000000     0.00000000
 Dipole moment /Debye                   0.00000000     0.00000000     0.00000000

 Results for state 4.1
 =====================
 !MCSCF STATE 4.1 Energy              -93.763982387751
 Nuclear energy                         0.00000000
 Kinetic energy                        34.70725025
 One electron energy                 -165.03076498
 Two electron energy                   71.26678260
 Virial ratio                           3.70156759

 !MCSCF STATE 4.1 Dipole moment         0.00000000     0.00000000     0.00000000
 Dipole moment /Debye                   0.00000000     0.00000000     0.00000000

 Results for state 5.1
 =====================
 !MCSCF STATE 5.1 Energy              -93.763982387751
 Nuclear energy                         0.00000000
 Kinetic energy                        34.70725025
 One electron energy                 -165.03076498
 Two electron energy                   71.26678260
 Virial ratio                           3.70156759

 !MCSCF STATE 5.1 Dipole moment         0.00000000     0.00000000     0.00000000
 Dipole moment /Debye                   0.00000000     0.00000000     0.00000000

 Results for state 6.1
 =====================
 !MCSCF STATE 6.1 Energy              -93.763982387751
 Nuclear energy                         0.00000000
 Kinetic energy                        34.70725025
 One electron energy                 -165.03076498
 Two electron energy                   71.26678260
 Virial ratio                           3.70156759

 !MCSCF STATE 6.1 Dipole moment         0.00000000     0.00000000     0.00000000
 Dipole moment /Debye                   0.00000000     0.00000000     0.00000000

 Results for state 7.1
 =====================
 !MCSCF STATE 7.1 Energy              -93.763982387751
 Nuclear energy                         0.00000000
 Kinetic energy                        34.70725025
 One electron energy                 -165.03076498
 Two electron energy                   71.26678260
 Virial ratio                           3.70156759

 !MCSCF STATE 7.1 Dipole moment         0.00000000     0.00000000     0.00000000
 Dipole moment /Debye                   0.00000000     0.00000000     0.00000000

 Results for state 8.1
 =====================
 !MCSCF STATE 8.1 Energy              -93.737680117379
 Nuclear energy                         0.00000000
 Kinetic energy                        34.70912712
 One electron energy                 -165.03414348
 Two electron energy                   71.29646336
 Virial ratio                           3.70066371

 !MCSCF STATE 8.1 Dipole moment         0.00000000     0.00000000     0.00000000
 Dipole moment /Debye                   0.00000000     0.00000000     0.00000000

 Results for state 9.1
 =====================
 !MCSCF STATE 9.1 Energy              -93.737680117379
 Nuclear energy                         0.00000000
 Kinetic energy                        34.70912712
 One electron energy                 -165.03414348
 Two electron energy                   71.29646336
 Virial ratio                           3.70066371

 !MCSCF STATE 9.1 Dipole moment         0.00000000     0.00000000     0.00000000
 Dipole moment /Debye                   0.00000000     0.00000000     0.00000000

 Results for state 10.1
 ======================
 !MCSCF STATE 10.1 Energy             -93.737680117379
 Nuclear energy                         0.00000000
 Kinetic energy                        34.70912712
 One electron energy                 -165.03414348
 Two electron energy                   71.29646336
 Virial ratio                           3.70066371

 !MCSCF STATE 10.1 Dipole moment        0.00000000     0.00000000     0.00000000
 Dipole moment /Debye                   0.00000000     0.00000000     0.00000000

 Results for state 11.1
 ======================
 !MCSCF STATE 11.1 Energy             -93.737680117379
 Nuclear energy                         0.00000000
 Kinetic energy                        34.70912712
 One electron energy                 -165.03414348
 Two electron energy                   71.29646336
 Virial ratio                           3.70066371

 !MCSCF STATE 11.1 Dipole moment        0.00000000     0.00000000     0.00000000
 Dipole moment /Debye                   0.00000000     0.00000000     0.00000000

 Results for state 12.1
 ======================
 !MCSCF STATE 12.1 Energy             -93.737680117379
 Nuclear energy                         0.00000000
 Kinetic energy                        34.70912712
 One electron energy                 -165.03414348
 Two electron energy                   71.29646336
 Virial ratio                           3.70066371

 !MCSCF STATE 12.1 Dipole moment        0.00000000     0.00000000     0.00000000
 Dipole moment /Debye                   0.00000000     0.00000000     0.00000000

 Results for state 13.1
 ======================
 !MCSCF STATE 13.1 Energy             -93.737680117379
 Nuclear energy                         0.00000000
 Kinetic energy                        34.70912712
 One electron energy                 -165.03414348
 Two electron energy                   71.29646336
 Virial ratio                           3.70066371

 !MCSCF STATE 13.1 Dipole moment        0.00000000     0.00000000     0.00000000
 Dipole moment /Debye                   0.00000000     0.00000000     0.00000000

 Results for state 14.1
 ======================
 !MCSCF STATE 14.1 Energy             -93.737680117379
 Nuclear energy                         0.00000000
 Kinetic energy                        34.70912712
 One electron energy                 -165.03414348
 Two electron energy                   71.29646336
 Virial ratio                           3.70066371

 !MCSCF STATE 14.1 Dipole moment        0.00000000     0.00000000     0.00000000
 Dipole moment /Debye                   0.00000000     0.00000000     0.00000000

 Results for state 15.1
 ======================
 !MCSCF STATE 15.1 Energy             -93.737680117379
 Nuclear energy                         0.00000000
 Kinetic energy                        34.70912712
 One electron energy                 -165.03414348
 Two electron energy                   71.29646336
 Virial ratio                           3.70066371

 !MCSCF STATE 15.1 Dipole moment        0.00000000     0.00000000     0.00000000
 Dipole moment /Debye                   0.00000000     0.00000000     0.00000000

 Results for state 16.1
 ======================
 !MCSCF STATE 16.1 Energy             -93.737680117379
 Nuclear energy                         0.00000000
 Kinetic energy                        34.70912712
 One electron energy                 -165.03414348
 Two electron energy                   71.29646336
 Virial ratio                           3.70066371

 !MCSCF STATE 16.1 Dipole moment        0.00000000     0.00000000     0.00000000
 Dipole moment /Debye                   0.00000000     0.00000000     0.00000000

 Results for state 17.1
 ======================
 !MCSCF STATE 17.1 Energy             -93.729745781014
 Nuclear energy                         0.00000000
 Kinetic energy                        34.58430766
 One electron energy                 -164.80945984
 Two electron energy                   71.07971405
 Virial ratio                           3.71018135

 !MCSCF STATE 17.1 Dipole moment        0.00000000     0.00000000     0.00000000
 Dipole moment /Debye                   0.00000000     0.00000000     0.00000000

 Results for state 18.1
 ======================
 !MCSCF STATE 18.1 Energy             -93.729745781014
 Nuclear energy                         0.00000000
 Kinetic energy                        34.58430766
 One electron energy                 -164.80945984
 Two electron energy                   71.07971405
 Virial ratio                           3.71018135

 !MCSCF STATE 18.1 Dipole moment        0.00000000     0.00000000     0.00000000
 Dipole moment /Debye                   0.00000000     0.00000000     0.00000000

 Results for state 19.1
 ======================
 !MCSCF STATE 19.1 Energy             -93.729745781014
 Nuclear energy                         0.00000000
 Kinetic energy                        34.58430766
 One electron energy                 -164.80945984
 Two electron energy                   71.07971405
 Virial ratio                           3.71018135

 !MCSCF STATE 19.1 Dipole moment        0.00000000     0.00000000     0.00000000
 Dipole moment /Debye                   0.00000000     0.00000000     0.00000000

 State-averaged charge density matrix saved on record  2140.2 (density set 1)

 !MCSCF expec        <1.1|LXLX|1.1>     5.269661487035
 !MCSCF expec        <2.1|LXLX|2.1>     0.770362338647
 !MCSCF expec        <3.1|LXLX|3.1>     4.000000000000
 !MCSCF expec        <4.1|LXLX|4.1>     7.010118998152
 !MCSCF expec        <5.1|LXLX|5.1>     1.790160494103
 !MCSCF expec        <6.1|LXLX|6.1>     4.875865680594
 !MCSCF expec        <7.1|LXLX|7.1>     4.283831001469
 !MCSCF expec        <8.1|LXLX|8.1>     0.478034190763
 !MCSCF expec        <9.1|LXLX|9.1>     1.000000000000
 !MCSCF expec      <10.1|LXLX|10.1>     0.521965809237
 !MCSCF expec      <11.1|LXLX|11.1>     3.124314352571
 !MCSCF expec      <12.1|LXLX|12.1>     1.185131337325
 !MCSCF expec      <13.1|LXLX|13.1>     1.376053890029
 !MCSCF expec      <14.1|LXLX|14.1>     1.000000000000
 !MCSCF expec      <15.1|LXLX|15.1>     3.314500420075
 !MCSCF expec        <1.1|LXLX|1.1>     3.412679308864
 !MCSCF expec        <2.1|LXLX|2.1>     4.597835295566
 !MCSCF expec        <3.1|LXLX|3.1>     1.228479692421
 !MCSCF expec        <4.1|LXLX|4.1>     5.292046470674
 !MCSCF expec        <5.1|LXLX|5.1>     3.202375493390
 !MCSCF expec        <6.1|LXLX|6.1>     6.266583739072
 !MCSCF expec        <7.1|LXLX|7.1>     4.000000000014
 !MCSCF expec        <8.1|LXLX|8.1>    12.103078303891
 !MCSCF expec        <9.1|LXLX|9.1>     5.589883093400
 !MCSCF expec      <10.1|LXLX|10.1>     7.331960972371
 !MCSCF expec      <11.1|LXLX|11.1>     1.022247459725
 !MCSCF expec      <12.1|LXLX|12.1>    11.050966000559
 !MCSCF expec      <13.1|LXLX|13.1>     2.963884520008
 !MCSCF expec      <14.1|LXLX|14.1>     4.815415730042
 !MCSCF expec      <15.1|LXLX|15.1>     8.652836885200
 !MCSCF expec      <16.1|LXLX|16.1>     6.469727034804
 !MCSCF expec      <17.1|LXLX|17.1>     0.541481464493
 !MCSCF expec      <18.1|LXLX|18.1>     1.000000000000
 !MCSCF expec      <19.1|LXLX|19.1>     0.458518535507
 !MCSCF expec        <1.1|LYLY|1.1>     5.997866512445
 !MCSCF expec        <2.1|LYLY|2.1>     5.927009100834
 !MCSCF expec        <3.1|LYLY|3.1>     4.000000000000
 !MCSCF expec        <4.1|LYLY|4.1>     1.808612728144
 !MCSCF expec        <5.1|LYLY|5.1>     3.589343745971
 !MCSCF expec        <6.1|LYLY|6.1>     2.791628635553
 !MCSCF expec        <7.1|LYLY|7.1>     3.885539277053
 !MCSCF expec        <8.1|LYLY|8.1>     0.521965809237
 !MCSCF expec        <9.1|LYLY|9.1>     1.000000000000
 !MCSCF expec      <10.1|LYLY|10.1>     0.478034190763
 !MCSCF expec      <11.1|LYLY|11.1>     1.459699126729
 !MCSCF expec      <12.1|LYLY|12.1>     3.631898029536
 !MCSCF expec      <13.1|LYLY|13.1>     1.261484615616
 !MCSCF expec      <14.1|LYLY|14.1>     1.000000000000
 !MCSCF expec      <15.1|LYLY|15.1>     2.646918228119
 !MCSCF expec        <1.1|LYLY|1.1>     6.404065971008
 !MCSCF expec        <2.1|LYLY|2.1>     4.584030028549
 !MCSCF expec        <3.1|LYLY|3.1>     2.031517933873
 !MCSCF expec        <4.1|LYLY|4.1>     5.292046470701
 !MCSCF expec        <5.1|LYLY|5.1>     4.280761008962
 !MCSCF expec        <6.1|LYLY|6.1>     1.407578586920
 !MCSCF expec        <7.1|LYLY|7.1>     3.999999999986
 !MCSCF expec        <8.1|LYLY|8.1>     5.022011229375
 !MCSCF expec        <9.1|LYLY|9.1>     9.377569032162
 !MCSCF expec      <10.1|LYLY|10.1>     9.716282338913
 !MCSCF expec      <11.1|LYLY|11.1>     4.095731710496
 !MCSCF expec      <12.1|LYLY|12.1>     3.183961108405
 !MCSCF expec      <13.1|LYLY|13.1>     8.974495970413
 !MCSCF expec      <14.1|LYLY|14.1>     6.078954358192
 !MCSCF expec      <15.1|LYLY|15.1>     6.907694148066
 !MCSCF expec      <16.1|LYLY|16.1>     6.643300103979
 !MCSCF expec      <17.1|LYLY|17.1>     0.458518535507
 !MCSCF expec      <18.1|LYLY|18.1>     1.000000000000
 !MCSCF expec      <19.1|LYLY|19.1>     0.541481464493
 !MCSCF expec        <1.1|LZLZ|1.1>     0.732472000519
 !MCSCF expec        <2.1|LZLZ|2.1>     5.302628560519
 !MCSCF expec        <3.1|LZLZ|3.1>     4.000000000000
 !MCSCF expec        <4.1|LZLZ|4.1>     3.181268273704
 !MCSCF expec        <5.1|LZLZ|5.1>     6.620495759927
 !MCSCF expec        <6.1|LZLZ|6.1>     4.332505683853
 !MCSCF expec        <7.1|LZLZ|7.1>     3.830629721478
 !MCSCF expec        <8.1|LZLZ|8.1>     1.000000000000
 !MCSCF expec        <9.1|LZLZ|9.1>    -0.000000000000
 !MCSCF expec      <10.1|LZLZ|10.1>     1.000000000000
 !MCSCF expec      <11.1|LZLZ|11.1>     1.415986520700
 !MCSCF expec      <12.1|LZLZ|12.1>     1.182970633138
 !MCSCF expec      <13.1|LZLZ|13.1>     3.362461494356
 !MCSCF expec      <14.1|LZLZ|14.1>     4.000000000000
 !MCSCF expec      <15.1|LZLZ|15.1>     0.038581351806
 !MCSCF expec        <1.1|LZLZ|1.1>     2.183254720128
 !MCSCF expec        <2.1|LZLZ|2.1>     2.818134675885
 !MCSCF expec        <3.1|LZLZ|3.1>     8.740002373706
 !MCSCF expec        <4.1|LZLZ|4.1>     1.415907058624
 !MCSCF expec        <5.1|LZLZ|5.1>     4.516863497649
 !MCSCF expec        <6.1|LZLZ|6.1>     4.325837674008
 !MCSCF expec        <7.1|LZLZ|7.1>     4.000000000000
 !MCSCF expec        <8.1|LZLZ|8.1>     2.874910466734
 !MCSCF expec        <9.1|LZLZ|9.1>     5.032547874439
 !MCSCF expec      <10.1|LZLZ|10.1>     2.951756688716
 !MCSCF expec      <11.1|LZLZ|11.1>    14.882020829779
 !MCSCF expec      <12.1|LZLZ|12.1>     5.765072891036
 !MCSCF expec      <13.1|LZLZ|13.1>     8.061619509579
 !MCSCF expec      <14.1|LZLZ|14.1>     9.105629911765
 !MCSCF expec      <15.1|LZLZ|15.1>     4.439468966734
 !MCSCF expec      <16.1|LZLZ|16.1>     6.886972861218
 !MCSCF expec      <17.1|LZLZ|17.1>     1.000000000000
 !MCSCF expec      <18.1|LZLZ|18.1>    -0.000000000000
 !MCSCF expec      <19.1|LZLZ|19.1>     1.000000000000
 !MCSCF expec        <1.1|L**2|1.1>    12.000000000000
 !MCSCF expec        <2.1|L**2|2.1>    12.000000000000
 !MCSCF expec        <3.1|L**2|3.1>    12.000000000000
 !MCSCF expec        <4.1|L**2|4.1>    12.000000000000
 !MCSCF expec        <5.1|L**2|5.1>    12.000000000000
 !MCSCF expec        <6.1|L**2|6.1>    12.000000000000
 !MCSCF expec        <7.1|L**2|7.1>    12.000000000000
 !MCSCF expec        <8.1|L**2|8.1>     2.000000000000
 !MCSCF expec        <9.1|L**2|9.1>     2.000000000000
 !MCSCF expec      <10.1|L**2|10.1>     2.000000000000
 !MCSCF expec      <11.1|L**2|11.1>     6.000000000000
 !MCSCF expec      <12.1|L**2|12.1>     6.000000000000
 !MCSCF expec      <13.1|L**2|13.1>     6.000000000000
 !MCSCF expec      <14.1|L**2|14.1>     6.000000000000
 !MCSCF expec      <15.1|L**2|15.1>     6.000000000000
 !MCSCF expec        <1.1|L**2|1.1>    12.000000000000
 !MCSCF expec        <2.1|L**2|2.1>    12.000000000000
 !MCSCF expec        <3.1|L**2|3.1>    12.000000000000
 !MCSCF expec        <4.1|L**2|4.1>    12.000000000000
 !MCSCF expec        <5.1|L**2|5.1>    12.000000000000
 !MCSCF expec        <6.1|L**2|6.1>    12.000000000000
 !MCSCF expec        <7.1|L**2|7.1>    12.000000000000
 !MCSCF expec        <8.1|L**2|8.1>    20.000000000000
 !MCSCF expec        <9.1|L**2|9.1>    20.000000000000
 !MCSCF expec      <10.1|L**2|10.1>    20.000000000000
 !MCSCF expec      <11.1|L**2|11.1>    20.000000000000
 !MCSCF expec      <12.1|L**2|12.1>    20.000000000000
 !MCSCF expec      <13.1|L**2|13.1>    20.000000000000
 !MCSCF expec      <14.1|L**2|14.1>    20.000000000000
 !MCSCF expec      <15.1|L**2|15.1>    20.000000000000
 !MCSCF expec      <16.1|L**2|16.1>    20.000000000000
 !MCSCF expec      <17.1|L**2|17.1>     2.000000000000
 !MCSCF expec      <18.1|L**2|18.1>     2.000000000000
 !MCSCF expec      <19.1|L**2|19.1>     2.000000000000


 NATURAL ORBITALS (state averaged)
 =================================

  Orbital  Occupation    Energy    Cen Mu Typ  Coefficients
    1.1     2.00000    -3.46825     1  1  s    1.00140
    2.1     1.36920    -0.22179     1  1  d1+  1.00424
    3.1     1.36920    -0.22179     1  1  d1-  1.00424
    4.1     1.36920    -0.22179     1  1  d2-  1.00424
    5.1     1.36920    -0.22179     1  1  d2+  1.00424
    6.1     1.36920    -0.22179     1  1  d0   1.00424
    7.1     1.15400    -0.11958     1  2  s    0.96089
    1.2     2.00000    -2.17173     1  1  px   0.99998
    2.2     2.00000    -2.17173     1  1  py   0.99998
    3.2     2.00000    -2.17173     1  1  pz   0.99998


 EXTRA SYMMETRY OF MOS IN SYMMETRY 1:   1 4 6 3 5 2 1 1 3 4   2 6 5 1 3 2 4 6 5 2   6 4 5 3 113 911 814  151210 7 2 5 6 4 3 1
                                       121413101511 8 9 7 5   2 6 4 3 1
 EXTRA SYMMETRY OF MOS IN SYMMETRY 2:   1 2 3 2 1 3 2 1 3 2   1 3 8 6 7 510 9 4 2   1 3 6 8 9 7 510 4 2   1 3 9 6 7 8 510 4 1
                                        2 3

 Natural orbital dump (state averaged) at molpro section  2140.2    (Orbital set 2)


 CI vector for state symmetry 1
 ==============================

 State:            1           2           3           4           5           6           7           8           9
 aa2a2a      -0.0000000   0.0000000  -0.0000000   0.0000000   1.0000000  -0.0000000  -0.0000000  -0.0000000  -0.0000000
 aa2aa2       0.0000000   0.0000000  -0.0000000   0.0000000  -0.0000000  -0.0000000   0.0000000   0.0000000   0.0000000
 aaaa22      -0.0000000  -0.0000000  -0.0000000   0.0000000  -0.0000000   0.0000000   0.0000000  -0.0000000  -0.0000000
 aaa22a      -0.2678974   0.0293521  -0.0018015  -0.0780650  -0.0000000   0.9086500  -0.3092366   0.0000000   0.0000000
 aa22aa       0.0024625  -0.0080232   0.4471309   0.0000000  -0.0000000   0.0018717   0.0000000  -0.0000000   0.8944272
 22aaaa       0.0049251  -0.0160463   0.8942618   0.0000000  -0.0000000   0.0037433   0.0000000   0.0000000  -0.4472136
 2a2aaa      -0.1804532   0.8550520   0.0163966   0.0463431   0.0000000  -0.0143337   0.1835776   0.4315041   0.0000000
 a2aaa2       0.0000000   0.0000000   0.0000000  -0.0000000   0.0000000  -0.0000000  -0.0000000  -0.0000000  -0.0000000
 2aaaa2       0.0000000  -0.0000000  -0.0000000  -0.0000000  -0.0000000   0.0000000   0.0000000  -0.0000000   0.0000000
 2aaa2a      -0.2917730   0.0294202   0.0031295   0.1574717   0.0000000  -0.2376198  -0.4824238   0.2035008  -0.0000000
 a2aa2a      -0.1388765  -0.4831651  -0.0081291   0.3519732  -0.0000000   0.0535488   0.1429899   0.7473871   0.0000000
 a22aaa       0.7457780   0.1005364  -0.0036229   0.2969683  -0.0000000   0.3152331   0.2147846   0.1174913   0.0000000
 aaa2a2      -0.0000000  -0.0000000  -0.0000000   0.0000000   0.0000000   0.0000000  -0.0000000  -0.0000000  -0.0000000
 a2a2aa      -0.4209944   0.0181855   0.0023167   0.6559785   0.0000000   0.0784156   0.4312434  -0.4315041  -0.0000000
 2aa2aa      -0.2404123  -0.1514936  -0.0017976  -0.5697173  -0.0000000   0.0963364   0.6207978   0.1174913   0.0000000

 State:           10          11          12          13          14          15
 aa2a2a       0.0000000  -0.0000000   0.0000000  -0.0000000  -0.0000000   0.0000000
 aa2aa2      -0.0000000   1.0000000  -0.0000000   0.0000000   0.0000000   0.0000000
 aaaa22      -0.0000000  -0.0000000   0.0031964   0.0292568   0.9504396  -0.3095131
 aaa22a       0.0000000   0.0000000   0.0000000   0.0000000   0.0000000  -0.0000000
 aa22aa       0.0000000  -0.0000000  -0.0000000   0.0000000  -0.0000000  -0.0000000
 22aaaa      -0.0000000   0.0000000  -0.0000000  -0.0000000   0.0000000   0.0000000
 2a2aaa      -0.1174913  -0.0000000   0.0000000  -0.0000000   0.0000000   0.0000000
 a2aaa2       0.0000000   0.0000000   0.8164630  -0.2569066   0.1647772   0.4901383
 2aaaa2      -0.0000000  -0.0000000   0.4879527   0.7854225  -0.1410131  -0.3537356
 2aaa2a       0.7473871   0.0000000  -0.0000000   0.0000000   0.0000000  -0.0000000
 a2aa2a      -0.2035008  -0.0000000   0.0000000  -0.0000000  -0.0000000   0.0000000
 a22aaa       0.4315041   0.0000000  -0.0000000   0.0000000   0.0000000   0.0000000
 aaa2a2      -0.0000000  -0.0000000  -0.3086746   0.5623651   0.2227742   0.7340553
 a2a2aa       0.1174913   0.0000000   0.0000000  -0.0000000  -0.0000000  -0.0000000
 2aa2aa       0.4315041   0.0000000  -0.0000000   0.0000000   0.0000000   0.0000000

 TOTAL ENERGIES                       -93.80513741   -93.80513741   -93.80513741
                                      -93.80513741   -93.80513741   -93.80513741
                                      -93.80513741   -93.74931427   -93.74931427
                                      -93.74931427   -93.74493374   -93.74493374
                                      -93.74493374   -93.74493374   -93.74493374

 CI vector for state symmetry 2
 ==============================

 State:            1           2           3           4           5           6           7           8           9
 aa2a2b      -0.0000000   0.0000000   0.0000000   0.8570407   0.0000000  -0.0000000   0.0000000  -0.0000000  -0.0000000
 aaa22b       0.0173527  -0.0178843  -0.3645647   0.0000000  -0.0070118   0.7750764  -0.0140645  -0.0000000  -0.0000000
 2aa2ab       0.7016817   0.1539845   0.0000000  -0.0000000   0.1991685  -0.0071173   0.1784036   0.0000000  -0.0000000
 22aaab       0.0072951  -0.0075186   0.6937500  -0.0000000  -0.0029477   0.3258413  -0.0059127   0.0000000  -0.0000000
 a2a2ab      -0.0369417  -0.1745946  -0.0000000  -0.0000000  -0.3323675   0.0059001   0.6672812   0.0000000  -0.0000000
 222a0a       0.0000000  -0.0000000   0.0000000   0.0000000   0.0000000  -0.0000000   0.0000000   0.0703070  -0.0429859
 aab22a      -0.0057842   0.0059614   0.1215216  -0.0000000   0.0023373  -0.2583588   0.0046882  -0.0703070   0.0429859
 a22aab      -0.4455511   0.5404250  -0.0000000  -0.0000000   0.2150311   0.0284476   0.2235899   0.0000000   0.0000000
 2a2aab      -0.1308024  -0.4494062  -0.0000000  -0.0000000   0.4999691   0.0033298   0.3443251  -0.0000000   0.0000000
 22a20a      -0.0000000  -0.0000000   0.0000000  -0.0000000   0.0000000   0.0000000  -0.0000000   0.0996305   0.0045060
 aa2b2a      -0.0000000   0.0000000  -0.0000000  -0.2856802   0.0000000  -0.0000000   0.0000000   0.0996305   0.0045060
 a2aa2b       0.0541904   0.1586625  -0.0000000  -0.0000000  -0.4805497   0.0014839   0.1864588  -0.0000000   0.0000000
 2aa2ba      -0.2368359  -0.0477597  -0.0000000   0.0000000  -0.0649696   0.0025603  -0.0579915   0.0366267   0.4597288
 ba2a2a       0.0000417  -0.0000430   0.0039672  -0.2856802  -0.0000169   0.0018633  -0.0000338   0.0521345   0.0020587
 22aaba      -0.0023353   0.0024069  -0.2220882   0.0000000   0.0009437  -0.1043106   0.0018928  -0.0000000   0.0000000
 aba22a      -0.0057842   0.0059614   0.1215216  -0.0000000   0.0023373  -0.2583588   0.0046882  -0.2574675   0.1041383
 a2a2ba       0.0131776   0.0611657   0.0000000   0.0000000   0.1074878  -0.0019887  -0.2247007  -0.1881532  -0.1216289
 2aaa2b      -0.1478771  -0.4009176   0.0000000   0.0000000  -0.2391382  -0.0123150  -0.2320911   0.0000000  -0.0000000
 2a2aba       0.0438447   0.1509549   0.0000000   0.0000000  -0.1644617  -0.0011489  -0.1191812  -0.0770204  -0.0414215
 2202aa      -0.0000000   0.0000000  -0.0000000   0.0000000  -0.0000000   0.0000000  -0.0000000   0.3651096  -0.0788142
 a22aba       0.1531503  -0.1791249   0.0000000   0.0000000  -0.0703619  -0.0095295  -0.0733520  -0.1159829  -0.3642454
 022a2a       0.0001146  -0.0001181  -0.0024073   0.0000000  -0.0000463   0.0051179  -0.0000929  -0.3337710   0.0790015
 aa22ab       0.0036475  -0.0037593   0.3468750  -0.0000000  -0.0014739   0.1629207  -0.0029563  -0.0000000  -0.0000000
 a22baa       0.1409417  -0.1775900   0.0000000  -0.0000000  -0.0715723  -0.0092477  -0.0742316  -0.0020342   0.3383136
 baa22a      -0.0057842   0.0059614   0.1215216  -0.0000000   0.0023373  -0.2583588   0.0046882   0.3277745  -0.1471242
 2220aa       0.0000000  -0.0000000   0.0000000  -0.0000000  -0.0000000  -0.0000000   0.0000000  -0.3378896   0.1450665
 02a22a      -0.0000417   0.0000430  -0.0039672  -0.0056591   0.0000169  -0.0018633   0.0000338   0.0770422   0.0031852
 202a2a       0.0001146  -0.0001181  -0.0024073   0.0000000  -0.0000463   0.0051179  -0.0000929   0.2986175  -0.0575086
 b22aaa       0.1514591  -0.1837102   0.0000000   0.0000000  -0.0730969  -0.0096704  -0.0760064   0.1180171   0.0259317
 a2202a       0.0060722  -0.0035335   0.0000000   0.0000000  -0.0008802  -0.0002440  -0.0010247  -0.0246698   0.3205519
 20a22a       0.0000417  -0.0000430   0.0039672  -0.0056591  -0.0000169   0.0018633  -0.0000338  -0.1268574  -0.0054382
 ab2a2a      -0.0000417   0.0000430  -0.0039672  -0.2856802   0.0000169  -0.0018633   0.0000338  -0.1517650  -0.0065648
 a2022a      -0.0070486   0.0008862  -0.0000000   0.0000000  -0.0006988   0.0001627  -0.0005079  -0.1127790  -0.1551698
 2a202a      -0.0011382  -0.0040922  -0.0000000   0.0000000   0.0025450   0.0000479   0.0051692  -0.1727929  -0.1165303
 2a220a       0.0010735   0.0031430  -0.0000000   0.0000000  -0.0095194   0.0000294   0.0036936   0.0641626   0.0463078
 a2220a       0.0029294   0.0079419  -0.0000000   0.0000000   0.0047372   0.0002440   0.0045976   0.0458163  -0.0551274
 a0222a      -0.0019529  -0.0052946   0.0000000   0.0000000  -0.0031581  -0.0001626  -0.0030651   0.0916326  -0.1102547
 2a022a       0.0007803   0.0030445   0.0000000   0.0000000   0.0006281  -0.0000577  -0.0064004  -0.0196949  -0.0223931
 0a222a      -0.0007157  -0.0020953  -0.0000000   0.0000000   0.0063463  -0.0000196  -0.0024624   0.1283252   0.0926156
 22baaa      -0.0024799   0.0025558  -0.2358309   0.0000000   0.0010020  -0.1107653   0.0020099   0.1177215   0.0049788
 22abaa      -0.0024799   0.0025558  -0.2358309   0.0000000   0.0010020  -0.1107653   0.0020099  -0.1177215  -0.0049788
 2ab2aa      -0.2263186  -0.0538799  -0.0000000  -0.0000000  -0.0664942   0.0021376  -0.0597662  -0.1037739  -0.2110024
 2ba2aa      -0.2385272  -0.0523450  -0.0000000   0.0000000  -0.0677046   0.0024194  -0.0606459   0.0671472  -0.2487263
 2b2aaa       0.0444645   0.1527695   0.0000000   0.0000000  -0.1699577  -0.0011319  -0.1170486  -0.0854594  -0.0664003
 b2a2aa       0.0125578   0.0593511   0.0000000   0.0000000   0.1129838  -0.0020057  -0.2268332   0.1738506   0.1207504
 220a2a      -0.0002292   0.0002362   0.0048145  -0.0000000   0.0000926  -0.0102358   0.0001857  -0.0351535   0.0214929
 2a2baa       0.0424931   0.1456817   0.0000000   0.0000000  -0.1655497  -0.0010490  -0.1080953   0.1624798   0.1078218
 2aab2a       0.0441966   0.1398200  -0.0000000  -0.0000000   0.0821720   0.0044304   0.0799209  -0.0211465  -0.2654245
 a2b2aa       0.0112063   0.0540778   0.0000000  -0.0000000   0.1118959  -0.0019057  -0.2157473   0.0143026   0.0008785
 0222aa      -0.0001985   0.0002045   0.0041695  -0.0000000   0.0000802  -0.0088645   0.0001609  -0.0034621  -0.0393306
 22a02a       0.0000000  -0.0000000   0.0000000   0.0113183  -0.0000000   0.0000000  -0.0000000  -0.0498152  -0.0022530
 a2ab2a      -0.0195595  -0.0580273   0.0000000   0.0000000   0.1659014  -0.0004566  -0.0582149  -0.1086303  -0.0702225
 2022aa       0.0001985  -0.0002045  -0.0041695   0.0000000  -0.0000802   0.0088645  -0.0001609  -0.0237579  -0.0269217
 a2ba2a      -0.0176410  -0.0508907   0.0000000   0.0000000   0.1639845  -0.0005621  -0.0697846   0.0444677   0.0239147
 2aba2a       0.0573175   0.1354003  -0.0000000   0.0000000   0.0819906   0.0040236   0.0794041   0.0669627   0.2102972
 aa22ba      -0.0013122   0.0013524  -0.1247868   0.0000000   0.0005302  -0.0586100   0.0010635   0.0000000   0.0000000
 22aa20       0.0000364  -0.0000375   0.0034587  -0.0000000  -0.0000147   0.0016245  -0.0000295  -0.0000000  -0.0000000
 2a22a0       0.0005403   0.0015820  -0.0000000  -0.0000000  -0.0047916   0.0000148   0.0018592   0.0000000  -0.0000000
 a222a0       0.0014745   0.0039976  -0.0000000   0.0000000   0.0023845   0.0001228   0.0023142   0.0000000  -0.0000000
 22aa02      -0.0007613   0.0007847  -0.0724011   0.0000000   0.0003076  -0.0340055   0.0006171  -0.0000000  -0.0000000
 b2aa2a      -0.0169900  -0.0497445   0.0000000   0.0000000   0.1506639  -0.0004653  -0.0584593   0.0641626   0.0463078
 aa0222      -0.0005056   0.0005211  -0.0480850   0.0000000   0.0002043  -0.0225846   0.0004098   0.0164867   0.0006973
 aa2022      -0.0005056   0.0005211  -0.0480850   0.0000000   0.0002043  -0.0225846   0.0004098  -0.0164867  -0.0006973
 2baa2a       0.0463630   0.1256973  -0.0000000  -0.0000000   0.0749756   0.0038611   0.0727661  -0.0458163   0.0551274
 2a20a2      -0.0117660  -0.0397966  -0.0000000   0.0000000   0.0512186   0.0002341   0.0234557  -0.0152135  -0.0098345
 a220a2       0.0324846  -0.0526560   0.0000000  -0.0000000  -0.0227699  -0.0025710  -0.0232979   0.0029615   0.0371722
 a202a2      -0.0598558  -0.0215515  -0.0000000  -0.0000000  -0.0214932   0.0002916  -0.0196608  -0.0093780  -0.0294517
 2a02a2       0.0017357   0.0104291   0.0000000   0.0000000   0.0377284  -0.0005088  -0.0579682   0.0062276   0.0033492
 a02a22      -0.0486348  -0.0106729  -0.0000000   0.0000000  -0.0138047   0.0004933  -0.0123655   0.0094038  -0.0348337
 0a2a22      -0.0025605  -0.0121015  -0.0000000  -0.0000000  -0.0230370   0.0004089   0.0462504  -0.0243474  -0.0169109
 a0a222      -0.0090661  -0.0311491  -0.0000000  -0.0000000   0.0346537   0.0002308   0.0238658   0.0119684   0.0092992
 0aa222       0.0308819  -0.0374578   0.0000000  -0.0000000  -0.0149042  -0.0019718  -0.0154974   0.0165281   0.0036317
 ab22aa      -0.0011677   0.0012034  -0.1110441  -0.0098019   0.0004718  -0.0521553   0.0009464  -0.0143804  -0.0006504
 ba22aa      -0.0011677   0.0012034  -0.1110441   0.0098019   0.0004718  -0.0521553   0.0009464   0.0143804   0.0006504
 20aa22       0.0002557  -0.0002635   0.0243161  -0.0689830  -0.0001033   0.0114208  -0.0002072  -0.0020140  -0.0000911
 02aa22       0.0002557  -0.0002635   0.0243161   0.0689830  -0.0001033   0.0114208  -0.0002072   0.0020140   0.0000911
 ab2aa2      -0.0002936   0.0003026  -0.0279199   0.0398273   0.0001186  -0.0131134   0.0002380   0.0177661   0.0007616
 ba2aa2       0.0002936  -0.0003026   0.0279199   0.0398273  -0.0001186   0.0131134  -0.0002380  -0.0107896  -0.0004461
 02a2a2      -0.0002936   0.0003026  -0.0279199   0.0195757   0.0001186  -0.0131134   0.0002380  -0.0073013  -0.0002883
 20a2a2       0.0002936  -0.0003026   0.0279199   0.0195757  -0.0001186   0.0131134  -0.0002380   0.0212544   0.0009194
 2aaba2      -0.0427342   0.0248677  -0.0000000   0.0000000   0.0061949   0.0017175   0.0072112   0.0034550  -0.0448927
 2aaab2      -0.0206159  -0.0558928   0.0000000  -0.0000000  -0.0333388  -0.0017169  -0.0323563  -0.0064165   0.0077205
 a2aab2       0.0075548   0.0221195  -0.0000000  -0.0000000  -0.0669945   0.0002069   0.0259946   0.0089858   0.0064853
 a2aba2      -0.0080100  -0.0287994  -0.0000000  -0.0000000   0.0179109   0.0003370   0.0363795  -0.0241993  -0.0163198
 2baaa2       0.0137439   0.0372619  -0.0000000   0.0000000   0.0222259   0.0011446   0.0215709  -0.0128330   0.0154410
 a2baa2       0.0054917   0.0214262   0.0000000   0.0000000   0.0044207  -0.0004059  -0.0450444  -0.0027582  -0.0031361
 b2aaa2      -0.0050365  -0.0147463   0.0000000   0.0000000   0.0446630  -0.0001379  -0.0173298   0.0179717   0.0129706
 2abaa2       0.0496062  -0.0062368   0.0000000  -0.0000000   0.0049181  -0.0011452   0.0035742   0.0157945   0.0217312
 aa2220       0.0000727  -0.0000750   0.0069174  -0.0000000  -0.0000294   0.0032490  -0.0000590   0.0000000  -0.0000000
 a22a20       0.0069965   0.0015354   0.0000000  -0.0000000   0.0019859  -0.0000710   0.0017789  -0.0000000   0.0000000
 2a2a20       0.0003683   0.0017409   0.0000000   0.0000000   0.0033141  -0.0000588  -0.0066535   0.0000000   0.0000000
 2aa220      -0.0044426   0.0053886  -0.0000000  -0.0000000   0.0021441   0.0002837   0.0022294  -0.0000000   0.0000000
 a2a220       0.0013042   0.0044811   0.0000000   0.0000000  -0.0049852  -0.0000332  -0.0034333   0.0000000  -0.0000000
 aa2202       0.0005114  -0.0005271   0.0486322  -0.0000000  -0.0002066   0.0228417  -0.0004145   0.0000000  -0.0000000
 aa2ba2      -0.0000000   0.0000000  -0.0000000  -0.0796547   0.0000000   0.0000000   0.0000000   0.0069765   0.0003155
 220aa2      -0.0003964   0.0004085   0.0083270  -0.0000000   0.0001602  -0.0177035   0.0003212  -0.0098464   0.0060201
 aaa2b2       0.0000000  -0.0000000   0.0000000   0.0000000   0.0000000  -0.0000000  -0.0000000   0.0098464  -0.0060201
 2aa202       0.0427845  -0.0051881   0.0000000  -0.0000000   0.0043440  -0.0009805   0.0031835  -0.0162432  -0.0510119
 a2a202      -0.0047044  -0.0183784  -0.0000000  -0.0000000  -0.0040256   0.0003502   0.0388738   0.0107866   0.0058010
 2a2a02      -0.0069223  -0.0248722  -0.0000000  -0.0000000   0.0156423   0.0002895   0.0312424   0.0263505   0.0170339
 a22a02      -0.0367322   0.0215968  -0.0000000  -0.0000000   0.0054435   0.0014845   0.0063155   0.0051295   0.0643842
 aab2a2      -0.0016128   0.0016622   0.0338832  -0.0000000   0.0006517  -0.0720368   0.0013072  -0.0049232   0.0030100
 22a0a2      -0.0000000  -0.0000000   0.0000000   0.0195757   0.0000000   0.0000000   0.0000000  -0.0139531  -0.0006311
 aa2ab2       0.0000000  -0.0000000   0.0000000   0.0000000  -0.0000000   0.0000000  -0.0000000  -0.0139531  -0.0006311
 baaa22       0.0013967  -0.0014395  -0.0293437   0.0000000  -0.0005644   0.0623857  -0.0011320   0.0004849   0.0055082
 abaa22      -0.0013967   0.0014395   0.0293437  -0.0000000   0.0005644  -0.0623857   0.0011320   0.0033273   0.0037703
 202aa2      -0.0003964   0.0004085   0.0083270  -0.0000000   0.0001602  -0.0177035   0.0003212  -0.0360578   0.0145844
 0a22a2       0.0063171   0.0184955  -0.0000000  -0.0000000  -0.0560183   0.0001730   0.0217357   0.0089858   0.0064853
 aaba22      -0.0000000  -0.0000000   0.0000000  -0.0000000   0.0000000  -0.0000000  -0.0000000  -0.0511329   0.0110378

 State:           10          11          12          13          14          15          16          17          18
 aa2a2b      -0.0000000   0.0000000   0.0000000   0.0000000  -0.0000000   0.0000000   0.0000000   0.0000000   0.0000000
 aaa22b      -0.0000000  -0.0000000  -0.0000000  -0.0000000   0.0000000  -0.0000000  -0.0000000   0.0000000   0.0000000
 2aa2ab      -0.0000000  -0.0000000   0.0000000   0.0000000  -0.0000000  -0.0000000   0.0000000   0.0241492  -0.1231367
 22aaab      -0.0000000  -0.0000000  -0.0000000   0.0000000   0.0000000  -0.0000000  -0.0000000  -0.0000000   0.0000000
 a2a2ab      -0.0000000   0.0000000   0.0000000  -0.0000000   0.0000000   0.0000000   0.0000000  -0.1231367  -0.0241492
 222a0a       0.0919108   0.0403850   0.0004642  -0.5437530  -0.0156904   0.1463736  -0.0453161  -0.0000000  -0.0000000
 aab22a      -0.0919108  -0.0403850  -0.0004642   0.5437530   0.0156904  -0.1463736   0.0453161  -0.0000000  -0.0000000
 a22aab      -0.0000000  -0.0000000  -0.0000000  -0.0000000  -0.0000000   0.0000000   0.0000000   0.0241492  -0.1231367
 2a2aab      -0.0000000   0.0000000  -0.0000000   0.0000000   0.0000000  -0.0000000  -0.0000000   0.1231367   0.0241492
 22a20a       0.0300790  -0.1687774   0.4861425  -0.0455859   0.1394699  -0.1907731  -0.0516330   0.0000000   0.0000000
 aa2b2a       0.0300790  -0.1687774   0.4861425  -0.0455859   0.1394699  -0.1907731  -0.0516330  -0.0000000  -0.0000000
 a2aa2b      -0.0000000  -0.0000000   0.0000000  -0.0000000   0.0000000   0.0000000   0.0000000   0.2132791   0.0418276
 2aa2ba       0.1315763   0.0748730  -0.0000000  -0.0032916   0.0974378   0.0359168   0.0760993  -0.0194278   0.0990623
 ba2a2a       0.0161811  -0.0873339  -0.4521595  -0.0238423   0.0721513  -0.0981593  -0.0266659   0.0000000   0.0000000
 22aaba       0.0000000  -0.0000000   0.0000000  -0.0000000   0.0000000  -0.0000000  -0.0000000  -0.0000000   0.0000000
 aba22a      -0.2459971   0.0635657  -0.0004243  -0.4157380  -0.0246760  -0.1283390  -0.0682228  -0.0000000  -0.0000000
 a2a2ba       0.0261552   0.0564722   0.0000000  -0.0031272   0.4017598   0.1039304   0.1609527   0.0990623   0.0194278
 2aaa2b      -0.0000000  -0.0000000   0.0000000   0.0000000  -0.0000000  -0.0000000   0.0000000   0.0418276  -0.2132791
 2a2aba      -0.1462755  -0.0235840  -0.0000000   0.0283949   0.3930560   0.2528571  -0.0579641  -0.0990623  -0.0194278
 2202aa      -0.1242674   0.3927049   0.0001266   0.0257973   0.1145374  -0.1098333   0.0351841  -0.0000000   0.0000000
 a22aba       0.0525182   0.0664593  -0.0000000   0.0340494  -0.0372651  -0.0734472  -0.3015827  -0.0194278   0.0990623
 022a2a       0.0846410  -0.3501887  -0.0002257   0.1135972  -0.0952697   0.0585250  -0.0191413  -0.0000000  -0.0000000
 aa22ab      -0.0000000   0.0000000  -0.0000000   0.0000000   0.0000000   0.0000000   0.0000000   0.0000000   0.0000000
 a22baa       0.1490823   0.0970261  -0.0000000   0.0080582   0.0850161   0.0114343  -0.0244283   0.0488405  -0.2490380
 baa22a       0.3379079  -0.0231807   0.0008885  -0.1280150   0.0089856   0.2747126   0.0229067   0.0000000   0.0000000
 2220aa      -0.3371177   0.0500830  -0.0007580  -0.1661170  -0.0194346  -0.2327020  -0.0526136  -0.0000000  -0.0000000
 02a22a       0.0237008  -0.1295283  -0.3306238  -0.0352388   0.1070188  -0.1458525  -0.0395741  -0.0000000   0.0000000
 202a2a      -0.1305964   0.3299962  -0.0000064   0.1582793   0.1031149  -0.1317119   0.0417993   0.0000000   0.0000000
 b22aaa      -0.2016005  -0.1634854   0.0000000  -0.0421076  -0.0477510   0.0620129   0.3260111  -0.0535619   0.2731124
 a2202a       0.1822526   0.1248262  -0.0000000   0.0158576   0.0909965  -0.0009317  -0.0862470  -0.0591220   0.3014637
 20a22a      -0.0387403   0.2139170   0.0875526   0.0580318  -0.1767538   0.2412391   0.0653906   0.0000000   0.0000000
 ab2a2a      -0.0462601   0.2561113  -0.0339830   0.0694283  -0.2116212   0.2889324   0.0782989  -0.0000000   0.0000000
 a2022a       0.1366084   0.1199685  -0.0000000   0.0374165   0.0132257  -0.0640730  -0.3043018  -0.0591220   0.3014637
 2a202a       0.1146536   0.0788247   0.0000000  -0.0200049   0.2369813  -0.0259787   0.2193177   0.3014637   0.0591220
 2a220a      -0.0995529  -0.0462205  -0.0000000   0.0181993  -0.0050251   0.0859829  -0.1263917  -0.3014637  -0.0591220
 a2220a      -0.1062870  -0.0815983   0.0000000  -0.0177580  -0.0347407   0.0216682   0.1301829   0.0591220  -0.3014637
 a0222a      -0.2125740  -0.1631965   0.0000000  -0.0355161  -0.0694815   0.0433365   0.2603659   0.0591220  -0.3014637
 2a022a       0.1840051   0.0598367   0.0000000  -0.0345932  -0.2219058  -0.2319700   0.1598573   0.3014637   0.0591220
 0a222a      -0.1991058  -0.0924409  -0.0000000   0.0363987  -0.0100503   0.1719658  -0.2527833  -0.3014637  -0.0591220
 22baaa       0.0360504  -0.1982882  -0.2414343  -0.0538498   0.1638362  -0.2234875  -0.0606014   0.0000000   0.0000000
 22abaa      -0.0360504   0.1982882   0.2414343   0.0538498  -0.1638362   0.2234875   0.0606014   0.0000000  -0.0000000
 2ab2aa       0.0963770   0.0914170  -0.0000000   0.0329522  -0.0047858  -0.0614750  -0.2762163   0.0488405  -0.2490380
 2ba2aa      -0.2279532  -0.1662900   0.0000000  -0.0296606  -0.0926520   0.0255582   0.2001171  -0.0535619   0.2731124
 2b2aaa       0.2211891   0.0879175   0.0000000  -0.0409872  -0.1223148  -0.2332124   0.2382381  -0.2731124  -0.0535619
 b2a2aa      -0.1811491  -0.0988802  -0.0000000   0.0325646  -0.1426237   0.1142833  -0.2725677   0.2731124   0.0535619
 220a2a      -0.0459554  -0.0201925  -0.0002321   0.2718765   0.0078452  -0.0731868   0.0226580  -0.0000000   0.0000000
 2a2baa      -0.0749137  -0.0643335  -0.0000000   0.0125922  -0.2707411  -0.0196447  -0.1802740   0.2490380   0.0488405
 2aab2a      -0.0759656  -0.0432280  -0.0000000   0.0019004  -0.0562558  -0.0207365  -0.0439359  -0.0336499   0.1715809
 a2b2aa       0.1549939   0.0424081   0.0000000  -0.0294374  -0.2591360  -0.2182137   0.1116150  -0.2490380  -0.0488405
 0222aa       0.2439587  -0.2155649   0.0003827  -0.0083241  -0.0498162   0.1923949   0.0021740   0.0000000  -0.0000000
 22a02a      -0.0150395   0.0843887  -0.2430712   0.0227930  -0.0697350   0.0953866   0.0258165   0.0000000  -0.0000000
 a2ab2a       0.0151007   0.0326042  -0.0000000  -0.0018055   0.2319561   0.0600042   0.0929261  -0.1715809  -0.0336499
 2022aa       0.2174263  -0.2272231   0.0002487   0.1486438  -0.0452867   0.1501404   0.0152556   0.0000000   0.0000000
 a2ba2a       0.0844522   0.0136162   0.0000000  -0.0163938  -0.2269310  -0.1459871   0.0334656  -0.1715809  -0.0336499
 2aba2a      -0.0303214  -0.0383703  -0.0000000  -0.0196584   0.0215150   0.0424048   0.1741189  -0.0336499   0.1715809
 aa22ba       0.0000000  -0.0000000  -0.0000000  -0.0000000   0.0000000  -0.0000000   0.0000000  -0.0000000   0.0000000
 22aa20      -0.0000000  -0.0000000   0.0000000  -0.0000000   0.0000000  -0.0000000  -0.0000000  -0.0000000   0.0000000
 2a22a0      -0.0000000  -0.0000000   0.0000000   0.0000000   0.0000000   0.0000000  -0.0000000  -0.1553753  -0.0304717
 a222a0      -0.0000000  -0.0000000  -0.0000000  -0.0000000  -0.0000000   0.0000000   0.0000000   0.0304717  -0.1553753
 22aa02      -0.0000000  -0.0000000   0.0000000   0.0000000   0.0000000   0.0000000   0.0000000   0.0000000   0.0000000
 b2aa2a      -0.0995529  -0.0462205  -0.0000000   0.0181993  -0.0050251   0.0859829  -0.1263917   0.1298828   0.0254722
 aa0222       0.0050488  -0.0277699  -0.0338124  -0.0075416   0.0229449  -0.0312990  -0.0084871  -0.0000000   0.0000000
 aa2022      -0.0050488   0.0277699   0.0338124   0.0075416  -0.0229449   0.0312990   0.0084871  -0.0000000  -0.0000000
 2baa2a       0.1062870   0.0815983  -0.0000000   0.0177580   0.0347407  -0.0216682  -0.1301829   0.0254722  -0.1298828
 2a20a2       0.0021148   0.0045662  -0.0000000  -0.0002529   0.0324850   0.0084035   0.0130141   0.1293213   0.0253621
 a220a2       0.0106388   0.0060540   0.0000000  -0.0002661   0.0078785   0.0029041   0.0061531  -0.0253621   0.1293213
 a202a2       0.0042465   0.0053737  -0.0000000   0.0027531  -0.0030131  -0.0059387  -0.0243850  -0.0253621   0.1293213
 2a02a2       0.0118274   0.0019069  -0.0000000  -0.0022959  -0.0317813  -0.0204452   0.0046868   0.1293213   0.0253621
 a02a22      -0.0319244  -0.0232886   0.0000000  -0.0041539  -0.0129757   0.0035794   0.0280260   0.0250906  -0.1279370
 0a2a22       0.0253696   0.0138480  -0.0000000  -0.0045606   0.0199742  -0.0160052   0.0381726   0.1279370   0.0250906
 a0a222      -0.0309771  -0.0123127  -0.0000000   0.0057402   0.0171300   0.0326610  -0.0333648  -0.1279370  -0.0250906
 0aa222      -0.0282338  -0.0228958   0.0000000  -0.0058971  -0.0066874   0.0086848   0.0456572   0.0250906  -0.1279370
 ab22aa      -0.0043415   0.0243609  -0.0701686   0.0065798  -0.0201307   0.0275357   0.0074526  -0.0000000  -0.0000000
 ba22aa       0.0043415  -0.0243609   0.0701686  -0.0065798   0.0201307  -0.0275357  -0.0074526  -0.0000000   0.0000000
 20aa22      -0.0006080   0.0034117  -0.0098270   0.0009215  -0.0028193   0.0038563   0.0010437   0.0000000   0.0000000
 02aa22       0.0006080  -0.0034117   0.0098270  -0.0009215   0.0028193  -0.0038563  -0.0010437   0.0000000   0.0000000
 ab2aa2       0.0054255  -0.0299587  -0.0122616  -0.0081272   0.0247540  -0.0337851  -0.0091578   0.0000000   0.0000000
[...]
   26   11.1  2.0  1.0   0.000%   0.000%   0.000%   0.000%   0.000%   0.000%   0.000%   0.000%   0.000%   0.000%
   27   12.1  2.0  1.0   0.000%   0.000%   0.000%   0.000%   0.000%   0.000%   0.000%   0.000%   0.000%   0.000%
   28   13.1  2.0  1.0   0.000%   0.000%   0.000%   0.000%   0.000%   0.000%   0.000%   0.000%   0.000%   0.000%
   29   14.1  2.0  1.0   0.000%   0.000%   0.000%   0.000%   0.000%   0.000%   0.000%   0.000%   0.000%   0.000%
   30   15.1  2.0  1.0   0.000%   0.000%   0.000%   0.000%   0.000%   0.000%   0.000%   0.000%   0.000%   0.000%
   31    1.1  2.0  0.0   0.000%   0.000%   0.000%   0.000%   0.000%   0.000%   0.000%   0.000%   0.000%   0.000%
   32    2.1  2.0  0.0   0.000%   0.028%   0.000%   0.000%   0.000%   0.000%   0.009%   0.000%   0.000%   0.000%
   33    3.1  2.0  0.0   0.000%   0.000%   0.000%   0.018%   0.000%   0.000%   0.000%   0.009%   0.000%   0.000%
   34    4.1  2.0  0.0   0.000%   0.000%   0.000%   0.000%   0.007%   0.000%   0.000%   0.000%   0.000%   0.000%
   35    5.1  2.0  0.0   0.000%   0.015%   0.000%   0.000%   0.000%   0.000%   0.003%   0.000%   0.000%   0.000%
   36    6.1  2.0  0.0   0.000%   0.000%   0.000%   0.000%   0.000%   0.018%   0.000%   0.000%   0.000%   0.000%
   37    7.1  2.0  0.0   0.000%   0.000%   0.000%   0.057%   0.000%   0.000%   0.000%   0.002%   0.000%   0.000%
   38    8.1  2.0  0.0   0.000%   0.000%   0.000%   0.000%   0.000%   0.000%   0.000%   0.000%   0.000%   0.000%
   39    9.1  2.0  0.0   0.000%   0.000%   0.000%   0.000%   0.000%   0.000%   0.000%   0.000%   0.000%   0.000%
   40   10.1  2.0  0.0   0.000%   0.000%   0.000%   0.000%   0.000%   0.000%   0.000%   0.000%   0.000%   0.000%
   41   11.1  2.0  0.0   0.000%   0.000%   0.000%   0.000%   0.000%   0.000%   0.000%   0.000%   0.000%   0.000%
   42   12.1  2.0  0.0   0.000%   0.000%   0.000%   0.000%   0.000%   0.000%   0.000%   0.000%   0.000%   0.000%
   43   13.1  2.0  0.0   0.000%   0.000%   0.000%   0.000%   0.000%   0.000%   0.000%   0.000%   0.000%   0.000%
   44   14.1  2.0  0.0   0.000%   0.000%   0.000%   0.000%   0.000%   0.000%   0.000%   0.000%   0.000%   0.000%
   45   15.1  2.0  0.0   0.000%   0.000%   0.000%   0.000%   0.000%   0.000%   0.000%   0.000%   0.000%   0.000%
   46    1.1  2.0 -1.0   0.000%   0.029%   0.000%   0.026%   0.000%   0.000%   0.008%   0.001%   0.000%   0.000%
   47    2.1  2.0 -1.0   0.053%   0.000%   0.000%   0.000%   0.000%   0.002%   0.000%   0.000%   0.004%   0.004%
   48    3.1  2.0 -1.0   0.051%   0.000%   0.001%   0.000%   0.000%   0.001%   0.000%   0.000%   0.004%   0.005%
   49    4.1  2.0 -1.0   0.000%   0.017%   0.000%   0.006%   0.000%   0.000%   0.001%   0.007%   0.000%   0.000%
   50    5.1  2.0 -1.0   0.000%   0.000%   0.041%   0.000%   0.029%   0.000%   0.000%   0.000%   0.007%   0.007%
   51    6.1  2.0 -1.0   0.000%   0.028%   0.000%   0.018%   0.000%   0.000%   0.001%   0.001%   0.000%   0.000%
   52    7.1  2.0 -1.0   0.001%   0.000%   0.046%   0.000%   0.055%   0.000%   0.000%   0.000%   0.007%   0.007%
   53    8.1  2.0 -1.0   0.000%   0.000%   0.000%   0.000%   0.000%   0.000%   0.000%   0.000%   0.000%   0.000%
   54    9.1  2.0 -1.0   0.000%   0.000%   0.000%   0.000%   0.000%   0.000%   0.000%   0.000%   0.000%   0.000%
   55   10.1  2.0 -1.0   0.000%   0.000%   0.000%   0.000%   0.000%   0.000%   0.000%   0.000%   0.000%   0.000%
   56   11.1  2.0 -1.0   0.000%   0.000%   0.000%   0.000%   0.000%   0.000%   0.000%   0.000%   0.000%   0.000%
   57   12.1  2.0 -1.0   0.000%   0.000%   0.000%   0.000%   0.000%   0.000%   0.000%   0.000%   0.000%   0.000%
   58   13.1  2.0 -1.0   0.000%   0.000%   0.000%   0.000%   0.000%   0.000%   0.000%   0.000%   0.000%   0.000%
   59   14.1  2.0 -1.0   0.000%   0.000%   0.000%   0.000%   0.000%   0.000%   0.000%   0.000%   0.000%   0.000%
   60   15.1  2.0 -1.0   0.000%   0.000%   0.000%   0.000%   0.000%   0.000%   0.000%   0.000%   0.000%   0.000%
   61    1.1  2.0 -2.0   0.016%   0.000%   0.034%   0.000%   0.027%   0.011%   0.000%   0.000%   0.000%   0.000%
   62    2.1  2.0 -2.0   0.000%   0.005%   0.000%   0.055%   0.000%   0.000%   0.009%   0.009%   0.000%   0.000%
   63    3.1  2.0 -2.0   0.000%   0.040%   0.000%   0.000%   0.000%   0.000%   0.004%   0.004%   0.000%   0.000%
   64    4.1  2.0 -2.0   0.025%   0.000%   0.024%   0.000%   0.027%   0.011%   0.000%   0.000%   0.000%   0.000%
   65    5.1  2.0 -2.0   0.000%   0.003%   0.000%   0.002%   0.000%   0.000%   0.003%   0.003%   0.000%   0.000%
   66    6.1  2.0 -2.0   0.000%   0.000%   0.000%   0.000%   0.005%   0.000%   0.000%   0.000%   0.011%   0.011%
   67    7.1  2.0 -2.0   0.000%   0.003%   0.000%   0.002%   0.000%   0.000%   0.002%   0.003%   0.000%   0.000%
   68    8.1  2.0 -2.0   0.000%   0.000%   0.000%   0.000%   0.000%   0.000%   0.000%   0.000%   0.000%   0.000%
   69    9.1  2.0 -2.0   0.000%   0.000%   0.000%   0.000%   0.000%   0.000%   0.000%   0.000%   0.000%   0.000%
   70   10.1  2.0 -2.0   0.000%   0.000%   0.000%   0.000%   0.000%   0.000%   0.000%   0.000%   0.000%   0.000%
   71   11.1  2.0 -2.0   0.000%   0.000%   0.000%   0.000%   0.000%   0.000%   0.000%   0.000%   0.000%   0.000%
   72   12.1  2.0 -2.0   0.000%   0.000%   0.000%   0.000%   0.000%   0.000%   0.000%   0.000%   0.000%   0.000%
   73   13.1  2.0 -2.0   0.000%   0.000%   0.000%   0.000%   0.000%   0.000%   0.000%   0.000%   0.000%   0.000%
   74   14.1  2.0 -2.0   0.000%   0.000%   0.000%   0.000%   0.000%   0.000%   0.000%   0.000%   0.000%   0.000%
   75   15.1  2.0 -2.0   0.000%   0.000%   0.000%   0.000%   0.000%   0.000%   0.000%   0.000%   0.000%   0.000%
   76    1.1  1.0  1.0   0.000%   0.003%   0.000%   0.140%   0.000%   0.000%   0.195%   0.015%   0.000%   0.000%
   77    2.1  1.0  1.0   0.051%   0.000%   0.001%   0.000%   0.005%   0.148%   0.000%   0.000%   0.055%   0.039%
   78    3.1  1.0  1.0   0.001%   0.000%   0.129%   0.000%   0.110%   0.000%   0.000%   0.000%   0.033%   0.033%
   79    4.1  1.0  1.0   0.000%   0.000%   0.000%   0.014%   0.000%   0.000%   0.027%   0.077%   0.000%   0.000%
   80    5.1  1.0  1.0   0.033%   0.000%   0.049%   0.000%   0.076%   0.081%   0.000%   0.000%   0.088%   0.013%
   81    6.1  1.0  1.0   0.031%   0.000%   0.085%   0.000%   0.066%   0.034%   0.000%   0.000%   0.000%   0.093%
   82    7.1  1.0  1.0   0.000%   0.129%   0.000%   0.002%   0.000%   0.000%   0.002%   0.135%   0.000%   0.000%
   83    8.1  1.0  1.0   0.000%   0.000%   0.000%   0.000%   0.000%   0.000%   0.000%   0.000%   0.000%   0.000%
   84    9.1  1.0  1.0   0.000%   0.000%   0.000%   0.000%   0.000%   0.000%   0.000%   0.000%   0.000%   0.000%
   85   10.1  1.0  1.0   0.000%   0.000%   0.000%   0.000%   0.000%   0.000%   0.000%   0.000%   0.000%   0.000%
   86   11.1  1.0  1.0   0.000%  12.807%   0.000%  23.829%   0.000%   0.000%  13.156%   3.114%   0.000%   0.000%
   87   12.1  1.0  1.0  20.930%   0.000%   0.852%   0.000%   0.509%   8.257%   0.000%   0.000%   0.481%  12.058%
   88   13.1  1.0  1.0   0.000%   0.169%   0.000%   2.417%   0.000%   0.000%   6.796%   7.559%   0.000%   0.000%
   89   14.1  1.0  1.0   0.000%   9.452%   0.000%   1.431%   0.000%   0.000%   0.391%   0.384%   0.000%   0.000%
   90   15.1  1.0  1.0   0.443%   0.000%   3.901%   0.000%   2.089%   0.715%   0.000%   0.000%  12.965%  15.145%
   91   16.1  1.0  1.0  22.576%   0.000%   0.800%   0.000%   0.539%  14.164%   0.000%   0.000%   3.603%   0.349%
   92   17.1  1.0  1.0   0.000%  17.401%   0.000%  10.667%   0.000%   0.000%   6.870%  13.772%   0.000%   0.000%
   93   18.1  1.0  1.0   5.266%   0.000%   4.806%   0.000%   8.974%   4.530%   0.000%   0.000%  16.086%   5.529%
   94   19.1  1.0  1.0   0.000%   5.026%   0.000%   0.062%   0.000%   0.000%   2.933%   5.092%   0.000%   0.000%
   95    1.1  1.0  0.0   0.162%   0.000%   0.000%   0.000%   0.000%   0.000%   0.000%   0.000%   0.088%   0.000%
   96    2.1  1.0  0.0   0.000%   0.252%   0.000%   0.000%   0.000%   0.000%   0.039%   0.000%   0.000%   0.000%
   97    3.1  1.0  0.0   0.000%   0.015%   0.000%   0.000%   0.000%   0.000%   0.041%   0.000%   0.000%   0.000%
   98    4.1  1.0  0.0   0.000%   0.000%   0.000%   0.000%   0.017%   0.002%   0.000%   0.000%   0.000%   0.174%
   99    5.1  1.0  0.0   0.000%   0.000%   0.000%   0.034%   0.000%   0.000%   0.000%   0.003%   0.000%   0.000%
  100    6.1  1.0  0.0   0.000%   0.000%   0.000%   0.185%   0.000%   0.000%   0.000%   0.071%   0.000%   0.000%
  101    7.1  1.0  0.0   0.139%   0.000%   0.003%   0.000%   0.000%   0.000%   0.000%   0.000%   0.088%   0.000%
  102    8.1  1.0  0.0   0.000%   0.000%   0.000%   0.000%   0.000%   0.000%   0.000%   0.000%   0.000%   0.000%
  103    9.1  1.0  0.0   0.000%   0.000%   0.000%   0.000%   0.000%   0.000%   0.000%   0.000%   0.000%   0.000%
  104   10.1  1.0  0.0   0.000%   0.000%   0.000%   0.000%   0.000%   0.000%   0.000%   0.000%   0.000%   0.000%
  105   11.1  1.0  0.0   0.000%   0.000%   0.000%   0.000%   0.787%  38.495%   0.000%   0.000%   0.000%   4.166%
  106   12.1  1.0  0.0   0.000%   0.440%   0.000%   0.000%   0.000%   0.000%  35.618%   0.000%   0.000%   0.000%
  107   13.1  1.0  0.0   0.693%   0.000%  60.925%   0.000%   0.000%   0.000%   0.000%   0.000%   8.092%   0.000%
  108   14.1  1.0  0.0   0.000%   0.000%   0.000%   0.000%  60.194%   0.242%   0.000%   0.000%   0.000%  10.321%
  109   15.1  1.0  0.0   0.000%   0.000%   0.000%  17.517%   0.000%   0.000%   0.000%   0.255%   0.000%   0.000%
  110   16.1  1.0  0.0   0.000%   0.000%   0.000%   4.847%   0.000%   0.000%   0.000%  39.305%   0.000%   0.000%
  111   17.1  1.0  0.0   0.000%   0.000%   0.000%   0.000%  13.975%   5.336%   0.000%   0.000%   0.000%  18.754%
  112   18.1  1.0  0.0   0.000%   9.023%   0.000%   0.000%   0.000%   0.000%   3.496%   0.000%   0.000%   0.000%
  113   19.1  1.0  0.0   0.056%   0.000%  17.535%   0.000%   0.000%   0.000%   0.000%   0.000%  25.042%   0.000%
  114    1.1  1.0 -1.0   0.000%   0.003%   0.000%   0.140%   0.000%   0.000%   0.195%   0.015%   0.000%   0.000%
  115    2.1  1.0 -1.0   0.051%   0.000%   0.001%   0.000%   0.005%   0.148%   0.000%   0.000%   0.055%   0.039%
  116    3.1  1.0 -1.0   0.001%   0.000%   0.129%   0.000%   0.110%   0.000%   0.000%   0.000%   0.033%   0.033%
  117    4.1  1.0 -1.0   0.000%   0.000%   0.000%   0.014%   0.000%   0.000%   0.027%   0.077%   0.000%   0.000%
  118    5.1  1.0 -1.0   0.033%   0.000%   0.049%   0.000%   0.076%   0.081%   0.000%   0.000%   0.088%   0.013%
  119    6.1  1.0 -1.0   0.031%   0.000%   0.085%   0.000%   0.066%   0.034%   0.000%   0.000%   0.000%   0.093%
  120    7.1  1.0 -1.0   0.000%   0.129%   0.000%   0.002%   0.000%   0.000%   0.002%   0.135%   0.000%   0.000%
  121    8.1  1.0 -1.0   0.000%   0.000%   0.000%   0.000%   0.000%   0.000%   0.000%   0.000%   0.000%   0.000%
  122    9.1  1.0 -1.0   0.000%   0.000%   0.000%   0.000%   0.000%   0.000%   0.000%   0.000%   0.000%   0.000%
  123   10.1  1.0 -1.0   0.000%   0.000%   0.000%   0.000%   0.000%   0.000%   0.000%   0.000%   0.000%   0.000%
  124   11.1  1.0 -1.0   0.000%  12.807%   0.000%  23.829%   0.000%   0.000%  13.156%   3.114%   0.000%   0.000%
  125   12.1  1.0 -1.0  20.930%   0.000%   0.852%   0.000%   0.509%   8.257%   0.000%   0.000%   0.481%  12.058%
  126   13.1  1.0 -1.0   0.000%   0.169%   0.000%   2.417%   0.000%   0.000%   6.796%   7.559%   0.000%   0.000%
  127   14.1  1.0 -1.0   0.000%   9.452%   0.000%   1.431%   0.000%   0.000%   0.391%   0.384%   0.000%   0.000%
  128   15.1  1.0 -1.0   0.443%   0.000%   3.901%   0.000%   2.089%   0.715%   0.000%   0.000%  12.965%  15.145%
  129   16.1  1.0 -1.0  22.576%   0.000%   0.800%   0.000%   0.539%  14.164%   0.000%   0.000%   3.603%   0.349%
  130   17.1  1.0 -1.0   0.000%  17.401%   0.000%  10.667%   0.000%   0.000%   6.870%  13.772%   0.000%   0.000%
  131   18.1  1.0 -1.0   5.266%   0.000%   4.806%   0.000%   8.974%   4.530%   0.000%   0.000%  16.086%   5.529%
  132   19.1  1.0 -1.0   0.000%   5.026%   0.000%   0.062%   0.000%   0.000%   2.933%   5.092%   0.000%   0.000%

   Nr   State  S   Sz     131      132

    1    1.1  2.0  2.0   0.000%   0.000%
    2    2.1  2.0  2.0   0.001%   0.001%
    3    3.1  2.0  2.0   0.006%   0.006%
    4    4.1  2.0  2.0   0.000%   0.000%
    5    5.1  2.0  2.0   0.000%   0.000%
    6    6.1  2.0  2.0   0.000%   0.000%
    7    7.1  2.0  2.0   0.000%   0.000%
    8    8.1  2.0  2.0   0.000%   0.000%
    9    9.1  2.0  2.0   0.000%   0.000%
   10   10.1  2.0  2.0   0.000%   0.000%
   11   11.1  2.0  2.0   0.000%   0.000%
   12   12.1  2.0  2.0   0.000%   0.000%
   13   13.1  2.0  2.0   0.000%   0.000%
   14   14.1  2.0  2.0   0.000%   0.000%
   15   15.1  2.0  2.0   0.000%   0.000%
   16    1.1  2.0  1.0   0.003%   0.010%
   17    2.1  2.0  1.0   0.000%   0.000%
   18    3.1  2.0  1.0   0.000%   0.000%
   19    4.1  2.0  1.0   0.010%   0.004%
   20    5.1  2.0  1.0   0.000%   0.000%
   21    6.1  2.0  1.0   0.000%   0.000%
   22    7.1  2.0  1.0   0.000%   0.000%
   23    8.1  2.0  1.0   0.000%   0.000%
   24    9.1  2.0  1.0   0.000%   0.000%
   25   10.1  2.0  1.0   0.000%   0.000%
   26   11.1  2.0  1.0   0.000%   0.000%
   27   12.1  2.0  1.0   0.000%   0.000%
   28   13.1  2.0  1.0   0.000%   0.000%
   29   14.1  2.0  1.0   0.000%   0.000%
   30   15.1  2.0  1.0   0.000%   0.000%
   31    1.1  2.0  0.0   0.000%   0.000%
   32    2.1  2.0  0.0   0.001%   0.000%
   33    3.1  2.0  0.0   0.000%   0.001%
   34    4.1  2.0  0.0   0.000%   0.000%
   35    5.1  2.0  0.0   0.025%   0.000%
   36    6.1  2.0  0.0   0.000%   0.000%
   37    7.1  2.0  0.0   0.000%   0.026%
   38    8.1  2.0  0.0   0.000%   0.000%
   39    9.1  2.0  0.0   0.000%   0.000%
   40   10.1  2.0  0.0   0.000%   0.000%
   41   11.1  2.0  0.0   0.000%   0.000%
   42   12.1  2.0  0.0   0.000%   0.000%
   43   13.1  2.0  0.0   0.000%   0.000%
   44   14.1  2.0  0.0   0.000%   0.000%
   45   15.1  2.0  0.0   0.000%   0.000%
   46    1.1  2.0 -1.0   0.003%   0.010%
   47    2.1  2.0 -1.0   0.000%   0.000%
   48    3.1  2.0 -1.0   0.000%   0.000%
   49    4.1  2.0 -1.0   0.010%   0.004%
   50    5.1  2.0 -1.0   0.000%   0.000%
   51    6.1  2.0 -1.0   0.000%   0.000%
   52    7.1  2.0 -1.0   0.000%   0.000%
   53    8.1  2.0 -1.0   0.000%   0.000%
   54    9.1  2.0 -1.0   0.000%   0.000%
   55   10.1  2.0 -1.0   0.000%   0.000%
   56   11.1  2.0 -1.0   0.000%   0.000%
   57   12.1  2.0 -1.0   0.000%   0.000%
   58   13.1  2.0 -1.0   0.000%   0.000%
   59   14.1  2.0 -1.0   0.000%   0.000%
   60   15.1  2.0 -1.0   0.000%   0.000%
   61    1.1  2.0 -2.0   0.000%   0.000%
   62    2.1  2.0 -2.0   0.001%   0.001%
   63    3.1  2.0 -2.0   0.006%   0.006%
   64    4.1  2.0 -2.0   0.000%   0.000%
   65    5.1  2.0 -2.0   0.000%   0.000%
   66    6.1  2.0 -2.0   0.000%   0.000%
   67    7.1  2.0 -2.0   0.000%   0.000%
   68    8.1  2.0 -2.0   0.000%   0.000%
   69    9.1  2.0 -2.0   0.000%   0.000%
   70   10.1  2.0 -2.0   0.000%   0.000%
   71   11.1  2.0 -2.0   0.000%   0.000%
   72   12.1  2.0 -2.0   0.000%   0.000%
   73   13.1  2.0 -2.0   0.000%   0.000%
   74   14.1  2.0 -2.0   0.000%   0.000%
   75   15.1  2.0 -2.0   0.000%   0.000%
   76    1.1  1.0  1.0   0.000%   0.009%
   77    2.1  1.0  1.0   0.000%   0.000%
   78    3.1  1.0  1.0   0.000%   0.000%
   79    4.1  1.0  1.0   0.061%   0.011%
   80    5.1  1.0  1.0   0.000%   0.000%
   81    6.1  1.0  1.0   0.000%   0.000%
   82    7.1  1.0  1.0   0.023%   0.060%
   83    8.1  1.0  1.0   0.000%   0.000%
   84    9.1  1.0  1.0   0.000%   0.000%
   85   10.1  1.0  1.0   0.000%   0.000%
   86   11.1  1.0  1.0   0.143%   0.914%
   87   12.1  1.0  1.0   0.000%   0.000%
   88   13.1  1.0  1.0   7.371%  12.885%
   89   14.1  1.0  1.0  12.625%  19.976%
   90   15.1  1.0  1.0   0.000%   0.000%
   91   16.1  1.0  1.0   0.000%   0.000%
   92   17.1  1.0  1.0   5.472%   0.497%
   93   18.1  1.0  1.0   0.000%   0.000%
   94   19.1  1.0  1.0  13.274%   4.837%
   95    1.1  1.0  0.0   0.000%   0.000%
   96    2.1  1.0  0.0   0.005%   0.000%
   97    3.1  1.0  0.0   0.355%   0.000%
   98    4.1  1.0  0.0   0.000%   0.000%
   99    5.1  1.0  0.0   0.000%   0.161%
  100    6.1  1.0  0.0   0.000%   0.205%
  101    7.1  1.0  0.0   0.000%   0.000%
  102    8.1  1.0  0.0   0.000%   0.000%
  103    9.1  1.0  0.0   0.000%   0.000%
  104   10.1  1.0  0.0   0.000%   0.000%
  105   11.1  1.0  0.0   0.000%   0.000%
  106   12.1  1.0  0.0   0.104%   0.000%
  107   13.1  1.0  0.0   0.000%   0.000%
  108   14.1  1.0  0.0   0.000%   0.000%
  109   15.1  1.0  0.0   0.000%  19.410%
  110   16.1  1.0  0.0   0.000%   1.777%
  111   17.1  1.0  0.0   0.000%   0.000%
  112   18.1  1.0  0.0  21.529%   0.000%
  113   19.1  1.0  0.0   0.000%   0.000%
  114    1.1  1.0 -1.0   0.000%   0.009%
  115    2.1  1.0 -1.0   0.000%   0.000%
  116    3.1  1.0 -1.0   0.000%   0.000%
  117    4.1  1.0 -1.0   0.061%   0.011%
  118    5.1  1.0 -1.0   0.000%   0.000%
  119    6.1  1.0 -1.0   0.000%   0.000%
  120    7.1  1.0 -1.0   0.023%   0.060%
  121    8.1  1.0 -1.0   0.000%   0.000%
  122    9.1  1.0 -1.0   0.000%   0.000%
  123   10.1  1.0 -1.0   0.000%   0.000%
  124   11.1  1.0 -1.0   0.143%   0.914%
  125   12.1  1.0 -1.0   0.000%   0.000%
  126   13.1  1.0 -1.0   7.371%  12.885%
  127   14.1  1.0 -1.0  12.625%  19.976%
  128   15.1  1.0 -1.0   0.000%   0.000%
  129   16.1  1.0 -1.0   0.000%   0.000%
  130   17.1  1.0 -1.0   5.472%   0.497%
  131   18.1  1.0 -1.0   0.000%   0.000%
  132   19.1  1.0 -1.0  13.274%   4.837%


 Property matrices transformed in SO basis (not sym. adapted)
 ============================================================

 No matrix element <i|DMX|i> larger than 1E-10
 No matrix element <i|DMX|1> larger than 1E-10

 No matrix element <i|DMY|i> larger than 1E-10
 No matrix element <i|DMY|1> larger than 1E-10

 No matrix element <i|DMZ|i> larger than 1E-10
 No matrix element <i|DMZ|1> larger than 1E-10


 **********************************************************************************************************************************
 DATASETS  * FILE   NREC   LENGTH (MB)   RECORD NAMES
              1      22      161.49       500      610      700      900      950      970     1000      129      960     1100   
                                          VAR    BASINP    GEOM    SYMINP    ZMAT    AOBASIS   BASIS     P2S    ABASIS      S 
                                         1400     1410     1420     1200     1210     1080     1700     1600     1650     1380   
                                           T        V       ECP      H0       H01     AOSYM    OPER      SMH    MOLCAS    JKOP   
                                         1700(1)  5101   
                                         OPER     MRCI   

              2       5        0.77       700     1000      520     2100     2140   
                                         GEOM     BASIS   MCVARS     RHF     MCSCF   

              3       2       58.85      1000     5101   
                                         BASIS    MRCI   

 PROGRAMS   *        TOTAL        CI        CI        CI     MULTI   RHF-SCF       INT
 CPU TIMES  *      5084.65   1780.98   3001.18    299.00      2.11      0.40      0.81
 REAL TIME  *      5324.94 SEC
 DISK USED  *       221.10 MB (local),      469.68 MB (total)
 SF USED    *         1.21 GB
 GA USED    *         0.00 MB       (max)       0.00 MB       (current)
 **********************************************************************************************************************************

 CI/cc-pWCVTZ-PP energy=    -93.965669642459

              CI              CI           MULTI         RHF-SCF
    -93.93732785    -93.95688922    -93.73768012    -93.80874753
 **********************************************************************************************************************************
 Molpro calculation terminated
