
 Working directory              : /wrk/irikura/molpro.tkCKiMgccN/
 Global scratch directory       : /wrk/irikura/molpro.tkCKiMgccN/
 Wavefunction directory         : /home/irikura/wfu/
 Main file repository           : /wrk/irikura/molpro.tkCKiMgccN/

 id        : nistki

 Nodes            nprocs
 pn112695.nist.gov   16
 GA implementation: MPI file
 GA implementation (serial work in mppx): MPI file

 Using customized tuning parameters: mindgm=1; mindgv=20; mindgc=4; mindgr=1; noblas=0; minvec=7
 default implementation of scratch files=sf  


 Variables initialized (1040), CPU time= 0.01 sec
 ***,Se SO-CI
 memory,1500,M;
 
 gprint,orbitals,civector,basis;
 
 symmetry,xyz
 geometry={Se};
 
                                                                                 !basis=AWCVQZ-X2C
 basis={
 spdfgh,se,AWCVQZ-X2C;C; spdf,1,even,nprim=1,ratio=3.0;
 }
 
 set,dkho=101
 
 NT=6
 NS=6
 NQ=3
 PAR=1                                                                           ! parity even (1) or odd (2)
 
 {rhf;wf,charge=1,sym=2,spin=3}
 
 {multi
     closed,8,6
     occ,9,12
     wf,charge=0,sym=PAR,spin=2;state,NT;
     wf,charge=0,sym=PAR,spin=0;state,NS;
     wf,charge=0,sym=PAR,spin=4;state,NQ;
     expec2,lxx,lyy,lzz;
 }
 table, energy, ll
 title, Energies and &lt;L**2&gt; values
 
 core,2,3
 
 {ci;wf,sym=PAR,spin=2;state,NT; save,5302.2}
 hlsdiag = energd4
 {ci;wf,sym=PAR,spin=0;state,NS; save,5102.2}
 hlsdiag(NT+1) = energd4
 {ci;wf,sym=PAR,spin=4;state,NQ; save,5502.2}
 hlsdiag(NT+NS+1) = energd4
 
 table,hlsdiag
 
 lsint
 {ci;hlsmat,ls,5302.2,5102.2,5502.2;print,vls=0,hls=0}                           !compute and diagonalize SO matrix
 Commands initialized (846), CPU time= 0.01 sec, 717 directives.
 Default parameters read. Elapsed time= 0.12 sec

 Checking input...
 Passed
1


                                         ***  PROGRAM SYSTEM MOLPRO  ***
                                       Copyright, TTI GmbH Stuttgart, 2015
                                    Version 2023.2 linked Fri Sep 22 03:27:09 2023


 **********************************************************************************************************************************
 LABEL *   Se SO-CI                                                                                                                                                      
  (32 PROC) 64 bit mpp version                                                           DATE: 09-Sep-24          TIME: 09:21:42  
 **********************************************************************************************************************************

 SHA1:             3c61bfe44d37c8635c785372c339f5cbdd4e4b59
 **********************************************************************************************************************************

 Memory per process:      1500 MW
 Total memory per node:  24000 MW

 GA preallocation disabled
 GA check disabled

 Variable memory set to 1500.0 MW


 ZSYMEL=XYZ

 SETTING BASIS          =    USERDEF
 SETTING DKHO           =       101.00000000                                  
 SETTING NT             =         6.00000000                                  
 SETTING NS             =         6.00000000                                  
 SETTING NQ             =         3.00000000                                  
 SETTING PAR            =         1.00000000                                  


 Recomputing integrals since basis changed


 Using spherical harmonics

 Library entry SE     S AWCVQZ-X2C           selected for orbital group  1
 Even tempered Se S diffuse               selected for group 1    nprim= 1    centre=  0.013    ratio= 3.000    dratio= 1.000
 Library entry SE     P AWCVQZ-X2C           selected for orbital group  1
 Even tempered Se P diffuse               selected for group 1    nprim= 1    centre=  0.009    ratio= 3.000    dratio= 1.000
 Library entry SE     D AWCVQZ-X2C           selected for orbital group  1
 Even tempered Se D diffuse               selected for group 1    nprim= 1    centre=  0.021    ratio= 3.000    dratio= 1.000
 Library entry SE     F AWCVQZ-X2C           selected for orbital group  1
 Even tempered Se F diffuse               selected for group 1    nprim= 1    centre=  0.041    ratio= 3.000    dratio= 1.000
 Library entry SE     G AWCVQZ-X2C           selected for orbital group  1
 Library entry SE     H AWCVQZ-X2C           selected for orbital group  1


 PROGRAM * SEWARD (Integral evaluation for generally contracted gaussian basis sets)     Author: Roland Lindh, 1990

 Geometry written to block  1 of record 700

 Orientation using atomic masses  
 Molecule type: Atom
 User-specified symmetry elements: XYZ
 Symmetry elements: XYZ
 Rotational constants:       0.0000000      0.0000000      0.0000000 GHz  (calculated with average atomic masses)

 Point group  Ci  



 ATOMIC COORDINATES

 NR  ATOM    CHARGE       X              Y              Z

   1  SE     34.00    0.000000000    0.000000000    0.000000000


 BASIS DATA

   Nr Sym  Nuc  Type         Exponents   Contraction coefficients

    1.1 Ag    1  1s    15011000.000000     0.000115   -0.000037    0.000015   -0.000004    0.000000    0.000000
                                           0.000000
    2.1 Ag              2247500.000000     0.000306   -0.000099    0.000039   -0.000011    0.000000    0.000000
                                           0.000000
    3.1 Ag               511450.000000     0.000800   -0.000259    0.000102   -0.000030    0.000000    0.000000
                                           0.000000
    4.1 Ag               144870.000000     0.001961   -0.000636    0.000251   -0.000074    0.000000    0.000000
                                           0.000000
    5.1 Ag                47261.000000     0.004805   -0.001565    0.000619   -0.000182    0.000000    0.000000
                                           0.000000
    6.1 Ag                17062.000000     0.011709   -0.003840    0.001520   -0.000446    0.000000    0.000000
                                           0.000000
    7.1 Ag                 6654.500000     0.028255   -0.009397    0.003728   -0.001096    0.000000    0.000000
                                           0.000000
                           2759.800000     0.065757   -0.022495    0.008949   -0.002624    0.000000    0.000000
                                           0.000000
                           1203.200000     0.141013   -0.051143    0.020527   -0.006054    0.000000    0.000000
                                           0.000000
                            546.530000     0.256114   -0.104492    0.042541   -0.012494    0.000000    0.000000
                                           0.000000
                            256.630000     0.339055   -0.173973    0.073333   -0.021853    0.000000    0.000000
                                           0.000000
                            123.140000     0.250611   -0.176407    0.078159   -0.023035    0.000000    0.000000
                                           0.000000
                             58.263000     0.062545    0.067702   -0.035026    0.009895    0.000000    0.000000
                                           0.000000
                             29.023000    -0.000317    0.504344   -0.332601    0.107516    0.000000    0.000000
                                           0.000000
                             14.465000     0.001593    0.484871   -0.464956    0.152329    0.000000    0.000000
                                           0.000000
                              6.934800    -0.000767    0.106203    0.097740   -0.034626    0.000000    0.000000
                                           0.000000
                              3.329900     0.000327    0.001862    0.724890   -0.346226    0.000000    0.000000
                                           0.000000
                              1.560000    -0.000153    0.001641    0.434586   -0.362941    0.000000    0.000000
                                           0.000000
                              0.492910     0.000062   -0.000354    0.023939    0.374756    1.000000    0.000000
                                           0.000000
                              0.235250    -0.000037    0.000180   -0.005200    0.641522    0.000000    1.000000
                                           0.000000
                              0.100370     0.000010   -0.000055    0.001242    0.233559    0.000000    0.000000
                                           1.000000
    8.1 Ag    1  1s           2.690900     1.000000
    9.1 Ag    1  1s           5.615500     1.000000
   10.1 Ag    1  1s          11.718700     1.000000
   11.1 Ag    1  1s           0.038152     1.000000
   12.1 Ag    1  1s           0.012717     1.000000
   13.1 Ag    1  3d0       1143.400000     0.000162
                            345.330000     0.001359
                            134.460000     0.007518
                             59.567000     0.029081
                             28.283000     0.083778
                             14.061000     0.181165
                              7.139000     0.281213
                              3.614800     0.321416
                              1.807200     0.258899
                              0.869440     0.120857
                              0.370360     0.020341
                              0.153000     0.000299
   14.1 Ag    1  3d2-      1143.400000     0.000162
                            345.330000     0.001359
                            134.460000     0.007518
                             59.567000     0.029081
                             28.283000     0.083778
                             14.061000     0.181165
                              7.139000     0.281213
                              3.614800     0.321416
                              1.807200     0.258899
                              0.869440     0.120857
                              0.370360     0.020341
                              0.153000     0.000299
   15.1 Ag    1  3d1+      1143.400000     0.000162
                            345.330000     0.001359
                            134.460000     0.007518
                             59.567000     0.029081
                             28.283000     0.083778
                             14.061000     0.181165
                              7.139000     0.281213
                              3.614800     0.321416
                              1.807200     0.258899
                              0.869440     0.120857
                              0.370360     0.020341
                              0.153000     0.000299
   16.1 Ag    1  3d2+      1143.400000     0.000162
                            345.330000     0.001359
                            134.460000     0.007518
                             59.567000     0.029081
                             28.283000     0.083778
                             14.061000     0.181165
                              7.139000     0.281213
                              3.614800     0.321416
                              1.807200     0.258899
                              0.869440     0.120857
                              0.370360     0.020341
                              0.153000     0.000299
   17.1 Ag    1  3d1-      1143.400000     0.000162
                            345.330000     0.001359
                            134.460000     0.007518
                             59.567000     0.029081
                             28.283000     0.083778
                             14.061000     0.181165
                              7.139000     0.281213
                              3.614800     0.321416
                              1.807200     0.258899
                              0.869440     0.120857
                              0.370360     0.020341
                              0.153000     0.000299
   18.1 Ag    1  3d0       1143.400000     0.000000
                            345.330000     0.000000
                            134.460000     0.000000
                             59.567000     0.000000
                             28.283000     0.000000
                             14.061000     0.000000
                              7.139000     0.000000
                              3.614800     0.000000
                              1.807200     0.000000
                              0.869440     1.000000
                              0.370360     0.000000
                              0.153000     0.000000
   19.1 Ag    1  3d2-      1143.400000     0.000000
                            345.330000     0.000000
                            134.460000     0.000000
                             59.567000     0.000000
                             28.283000     0.000000
                             14.061000     0.000000
                              7.139000     0.000000
                              3.614800     0.000000
                              1.807200     0.000000
                              0.869440     1.000000
                              0.370360     0.000000
                              0.153000     0.000000
   20.1 Ag    1  3d1+      1143.400000     0.000000
                            345.330000     0.000000
                            134.460000     0.000000
                             59.567000     0.000000
                             28.283000     0.000000
                             14.061000     0.000000
                              7.139000     0.000000
                              3.614800     0.000000
                              1.807200     0.000000
                              0.869440     1.000000
                              0.370360     0.000000
                              0.153000     0.000000
   21.1 Ag    1  3d2+      1143.400000     0.000000
                            345.330000     0.000000
                            134.460000     0.000000
                             59.567000     0.000000
                             28.283000     0.000000
                             14.061000     0.000000
                              7.139000     0.000000
                              3.614800     0.000000
                              1.807200     0.000000
                              0.869440     1.000000
                              0.370360     0.000000
                              0.153000     0.000000
   22.1 Ag    1  3d1-      1143.400000     0.000000
                            345.330000     0.000000
                            134.460000     0.000000
                             59.567000     0.000000
                             28.283000     0.000000
                             14.061000     0.000000
                              7.139000     0.000000
                              3.614800     0.000000
                              1.807200     0.000000
                              0.869440     1.000000
                              0.370360     0.000000
                              0.153000     0.000000
   23.1 Ag    1  3d0       1143.400000     0.000000
                            345.330000     0.000000
                            134.460000     0.000000
                             59.567000     0.000000
                             28.283000     0.000000
                             14.061000     0.000000
                              7.139000     0.000000
                              3.614800     0.000000
                              1.807200     0.000000
                              0.869440     0.000000
                              0.370360     1.000000
                              0.153000     0.000000
   24.1 Ag    1  3d2-      1143.400000     0.000000
                            345.330000     0.000000
                            134.460000     0.000000
                             59.567000     0.000000
                             28.283000     0.000000
                             14.061000     0.000000
                              7.139000     0.000000
                              3.614800     0.000000
                              1.807200     0.000000
                              0.869440     0.000000
                              0.370360     1.000000
                              0.153000     0.000000
   25.1 Ag    1  3d1+      1143.400000     0.000000
                            345.330000     0.000000
                            134.460000     0.000000
                             59.567000     0.000000
                             28.283000     0.000000
                             14.061000     0.000000
                              7.139000     0.000000
                              3.614800     0.000000
                              1.807200     0.000000
                              0.869440     0.000000
                              0.370360     1.000000
                              0.153000     0.000000
   26.1 Ag    1  3d2+      1143.400000     0.000000
                            345.330000     0.000000
                            134.460000     0.000000
                             59.567000     0.000000
                             28.283000     0.000000
                             14.061000     0.000000
                              7.139000     0.000000
                              3.614800     0.000000
                              1.807200     0.000000
                              0.869440     0.000000
                              0.370360     1.000000
                              0.153000     0.000000
   27.1 Ag    1  3d1-      1143.400000     0.000000
                            345.330000     0.000000
                            134.460000     0.000000
                             59.567000     0.000000
                             28.283000     0.000000
                             14.061000     0.000000
                              7.139000     0.000000
                              3.614800     0.000000
                              1.807200     0.000000
                              0.869440     0.000000
                              0.370360     1.000000
                              0.153000     0.000000
   28.1 Ag    1  3d0       1143.400000     0.000000
                            345.330000     0.000000
                            134.460000     0.000000
                             59.567000     0.000000
                             28.283000     0.000000
                             14.061000     0.000000
                              7.139000     0.000000
                              3.614800     0.000000
                              1.807200     0.000000
                              0.869440     0.000000
                              0.370360     0.000000
                              0.153000     1.000000
   29.1 Ag    1  3d2-      1143.400000     0.000000
                            345.330000     0.000000
                            134.460000     0.000000
                             59.567000     0.000000
                             28.283000     0.000000
                             14.061000     0.000000
                              7.139000     0.000000
                              3.614800     0.000000
                              1.807200     0.000000
                              0.869440     0.000000
                              0.370360     0.000000
                              0.153000     1.000000
   30.1 Ag    1  3d1+      1143.400000     0.000000
                            345.330000     0.000000
                            134.460000     0.000000
                             59.567000     0.000000
                             28.283000     0.000000
                             14.061000     0.000000
                              7.139000     0.000000
                              3.614800     0.000000
                              1.807200     0.000000
                              0.869440     0.000000
                              0.370360     0.000000
                              0.153000     1.000000
   31.1 Ag    1  3d2+      1143.400000     0.000000
                            345.330000     0.000000
                            134.460000     0.000000
                             59.567000     0.000000
                             28.283000     0.000000
                             14.061000     0.000000
                              7.139000     0.000000
                              3.614800     0.000000
                              1.807200     0.000000
                              0.869440     0.000000
                              0.370360     0.000000
                              0.153000     1.000000
   32.1 Ag    1  3d1-      1143.400000     0.000000
                            345.330000     0.000000
                            134.460000     0.000000
                             59.567000     0.000000
                             28.283000     0.000000
                             14.061000     0.000000
                              7.139000     0.000000
                              3.614800     0.000000
                              1.807200     0.000000
                              0.869440     0.000000
                              0.370360     0.000000
                              0.153000     1.000000
   33.1 Ag    1  3d0          2.016000     1.000000
   34.1 Ag    1  3d2-         2.016000     1.000000
   35.1 Ag    1  3d1+         2.016000     1.000000
   36.1 Ag    1  3d2+         2.016000     1.000000
   37.1 Ag    1  3d1-         2.016000     1.000000
   38.1 Ag    1  3d0          4.261000     1.000000
   39.1 Ag    1  3d2-         4.261000     1.000000
   40.1 Ag    1  3d1+         4.261000     1.000000
   41.1 Ag    1  3d2+         4.261000     1.000000
   42.1 Ag    1  3d1-         4.261000     1.000000
   43.1 Ag    1  3d0          9.006000     1.000000
   44.1 Ag    1  3d2-         9.006000     1.000000
   45.1 Ag    1  3d1+         9.006000     1.000000
   46.1 Ag    1  3d2+         9.006000     1.000000
   47.1 Ag    1  3d1-         9.006000     1.000000
   48.1 Ag    1  3d0          0.061900     1.000000
   49.1 Ag    1  3d2-         0.061900     1.000000
   50.1 Ag    1  3d1+         0.061900     1.000000
   51.1 Ag    1  3d2+         0.061900     1.000000
   52.1 Ag    1  3d1-         0.061900     1.000000
   53.1 Ag    1  3d0          0.020633     1.000000
   54.1 Ag    1  3d2-         0.020633     1.000000
   55.1 Ag    1  3d1+         0.020633     1.000000
   56.1 Ag    1  3d2+         0.020633     1.000000
   57.1 Ag    1  3d1-         0.020633     1.000000
   58.1 Ag    1  5g0          0.573000     1.000000
   59.1 Ag    1  5g2-         0.573000     1.000000
   60.1 Ag    1  5g1+         0.573000     1.000000
   61.1 Ag    1  5g4+         0.573000     1.000000
   62.1 Ag    1  5g1-         0.573000     1.000000
   63.1 Ag    1  5g2+         0.573000     1.000000
   64.1 Ag    1  5g4-         0.573000     1.000000
   65.1 Ag    1  5g3+         0.573000     1.000000
   66.1 Ag    1  5g3-         0.573000     1.000000
   67.1 Ag    1  5g0          2.068300     1.000000
   68.1 Ag    1  5g2-         2.068300     1.000000
   69.1 Ag    1  5g1+         2.068300     1.000000
   70.1 Ag    1  5g4+         2.068300     1.000000
   71.1 Ag    1  5g1-         2.068300     1.000000
   72.1 Ag    1  5g2+         2.068300     1.000000
   73.1 Ag    1  5g4-         2.068300     1.000000
   74.1 Ag    1  5g3+         2.068300     1.000000
   75.1 Ag    1  5g3-         2.068300     1.000000
   76.1 Ag    1  5g0          8.376900     1.000000
   77.1 Ag    1  5g2-         8.376900     1.000000
   78.1 Ag    1  5g1+         8.376900     1.000000
   79.1 Ag    1  5g4+         8.376900     1.000000
   80.1 Ag    1  5g1-         8.376900     1.000000
   81.1 Ag    1  5g2+         8.376900     1.000000
   82.1 Ag    1  5g4-         8.376900     1.000000
   83.1 Ag    1  5g3+         8.376900     1.000000
   84.1 Ag    1  5g3-         8.376900     1.000000
   85.1 Ag    1  5g0          0.263000     1.000000
   86.1 Ag    1  5g2-         0.263000     1.000000
   87.1 Ag    1  5g1+         0.263000     1.000000
   88.1 Ag    1  5g4+         0.263000     1.000000
   89.1 Ag    1  5g1-         0.263000     1.000000
   90.1 Ag    1  5g2+         0.263000     1.000000
   91.1 Ag    1  5g4-         0.263000     1.000000
   92.1 Ag    1  5g3+         0.263000     1.000000
   93.1 Ag    1  5g3-         0.263000     1.000000
    1.2 Au    1  2px      25217.000000     0.000214
                           5969.900000     0.000943
                           1938.900000     0.004145
                            741.660000     0.015625
                            314.500000     0.050845
                            143.310000     0.134238
                             68.650000     0.268704
                             33.995000     0.365472
                             17.185000     0.269538
                              8.574000     0.076675
                              4.220600     0.004939
                              2.052100     0.001285
                              0.961560    -0.000190
                              0.421510     0.000121
                              0.176260    -0.000058
                              0.070663     0.000013
    2.2 Au    1  2py      25217.000000     0.000214
                           5969.900000     0.000943
                           1938.900000     0.004145
                            741.660000     0.015625
                            314.500000     0.050845
                            143.310000     0.134238
                             68.650000     0.268704
                             33.995000     0.365472
                             17.185000     0.269538
                              8.574000     0.076675
                              4.220600     0.004939
                              2.052100     0.001285
                              0.961560    -0.000190
                              0.421510     0.000121
                              0.176260    -0.000058
                              0.070663     0.000013
    3.2 Au    1  2pz      25217.000000     0.000214
                           5969.900000     0.000943
                           1938.900000     0.004145
                            741.660000     0.015625
                            314.500000     0.050845
                            143.310000     0.134238
                             68.650000     0.268704
                             33.995000     0.365472
                             17.185000     0.269538
                              8.574000     0.076675
                              4.220600     0.004939
                              2.052100     0.001285
                              0.961560    -0.000190
                              0.421510     0.000121
                              0.176260    -0.000058
                              0.070663     0.000013
    4.2 Au    1  2px      25217.000000    -0.000085
                           5969.900000    -0.000377
                           1938.900000    -0.001659
                            741.660000    -0.006320
                            314.500000    -0.020897
                            143.310000    -0.057186
                             68.650000    -0.119538
                             33.995000    -0.173098
                             17.185000    -0.089481
                              8.574000     0.213114
                              4.220600     0.474463
                              2.052100     0.376848
                              0.961560     0.088995
                              0.421510     0.002456
                              0.176260     0.001133
                              0.070663    -0.000073
    5.2 Au    1  2py      25217.000000    -0.000085
                           5969.900000    -0.000377
                           1938.900000    -0.001659
                            741.660000    -0.006320
                            314.500000    -0.020897
                            143.310000    -0.057186
                             68.650000    -0.119538
                             33.995000    -0.173098
                             17.185000    -0.089481
                              8.574000     0.213114
                              4.220600     0.474463
                              2.052100     0.376848
                              0.961560     0.088995
                              0.421510     0.002456
                              0.176260     0.001133
                              0.070663    -0.000073
    6.2 Au    1  2pz      25217.000000    -0.000085
                           5969.900000    -0.000377
                           1938.900000    -0.001659
                            741.660000    -0.006320
                            314.500000    -0.020897
                            143.310000    -0.057186
                             68.650000    -0.119538
                             33.995000    -0.173098
                             17.185000    -0.089481
                              8.574000     0.213114
                              4.220600     0.474463
                              2.052100     0.376848
                              0.961560     0.088995
                              0.421510     0.002456
                              0.176260     0.001133
                              0.070663    -0.000073
    7.2 Au    1  2px      25217.000000     0.000021
                           5969.900000     0.000091
                           1938.900000     0.000401
                            741.660000     0.001526
                            314.500000     0.005068
                            143.310000     0.013896
                             68.650000     0.029302
                             33.995000     0.042621
                             17.185000     0.020571
                              8.574000    -0.065505
                              4.220600    -0.144048
                              2.052100    -0.141686
                              0.961560     0.068051
                              0.421510     0.412146
                              0.176260     0.494219
                              0.070663     0.194165
    8.2 Au    1  2py      25217.000000     0.000021
                           5969.900000     0.000091
                           1938.900000     0.000401
                            741.660000     0.001526
                            314.500000     0.005068
                            143.310000     0.013896
                             68.650000     0.029302
                             33.995000     0.042621
                             17.185000     0.020571
                              8.574000    -0.065505
                              4.220600    -0.144048
                              2.052100    -0.141686
                              0.961560     0.068051
                              0.421510     0.412146
                              0.176260     0.494219
                              0.070663     0.194165
    9.2 Au    1  2pz      25217.000000     0.000021
                           5969.900000     0.000091
                           1938.900000     0.000401
                            741.660000     0.001526
                            314.500000     0.005068
                            143.310000     0.013896
                             68.650000     0.029302
                             33.995000     0.042621
                             17.185000     0.020571
                              8.574000    -0.065505
                              4.220600    -0.144048
                              2.052100    -0.141686
                              0.961560     0.068051
                              0.421510     0.412146
                              0.176260     0.494219
                              0.070663     0.194165
   10.2 Au    1  2px      25217.000000     0.000000
                           5969.900000     0.000000
                           1938.900000     0.000000
                            741.660000     0.000000
                            314.500000     0.000000
                            143.310000     0.000000
                             68.650000     0.000000
                             33.995000     0.000000
                             17.185000     0.000000
                              8.574000     0.000000
                              4.220600     0.000000
                              2.052100     0.000000
                              0.961560     0.000000
                              0.421510     1.000000
                              0.176260     0.000000
                              0.070663     0.000000
   11.2 Au    1  2py      25217.000000     0.000000
                           5969.900000     0.000000
                           1938.900000     0.000000
                            741.660000     0.000000
                            314.500000     0.000000
                            143.310000     0.000000
                             68.650000     0.000000
                             33.995000     0.000000
                             17.185000     0.000000
                              8.574000     0.000000
                              4.220600     0.000000
                              2.052100     0.000000
                              0.961560     0.000000
                              0.421510     1.000000
                              0.176260     0.000000
                              0.070663     0.000000
   12.2 Au    1  2pz      25217.000000     0.000000
                           5969.900000     0.000000
                           1938.900000     0.000000
                            741.660000     0.000000
                            314.500000     0.000000
                            143.310000     0.000000
                             68.650000     0.000000
                             33.995000     0.000000
                             17.185000     0.000000
                              8.574000     0.000000
                              4.220600     0.000000
                              2.052100     0.000000
                              0.961560     0.000000
                              0.421510     1.000000
                              0.176260     0.000000
                              0.070663     0.000000
   13.2 Au    1  2px      25217.000000     0.000000
                           5969.900000     0.000000
                           1938.900000     0.000000
                            741.660000     0.000000
                            314.500000     0.000000
                            143.310000     0.000000
                             68.650000     0.000000
                             33.995000     0.000000
                             17.185000     0.000000
                              8.574000     0.000000
                              4.220600     0.000000
                              2.052100     0.000000
                              0.961560     0.000000
                              0.421510     0.000000
                              0.176260     1.000000
                              0.070663     0.000000
   14.2 Au    1  2py      25217.000000     0.000000
                           5969.900000     0.000000
                           1938.900000     0.000000
                            741.660000     0.000000
                            314.500000     0.000000
                            143.310000     0.000000
                             68.650000     0.000000
                             33.995000     0.000000
                             17.185000     0.000000
                              8.574000     0.000000
                              4.220600     0.000000
                              2.052100     0.000000
                              0.961560     0.000000
                              0.421510     0.000000
                              0.176260     1.000000
                              0.070663     0.000000
   15.2 Au    1  2pz      25217.000000     0.000000
                           5969.900000     0.000000
                           1938.900000     0.000000
                            741.660000     0.000000
                            314.500000     0.000000
                            143.310000     0.000000
                             68.650000     0.000000
                             33.995000     0.000000
                             17.185000     0.000000
                              8.574000     0.000000
                              4.220600     0.000000
                              2.052100     0.000000
                              0.961560     0.000000
                              0.421510     0.000000
                              0.176260     1.000000
                              0.070663     0.000000
   16.2 Au    1  2px      25217.000000     0.000000
                           5969.900000     0.000000
                           1938.900000     0.000000
                            741.660000     0.000000
                            314.500000     0.000000
                            143.310000     0.000000
                             68.650000     0.000000
                             33.995000     0.000000
                             17.185000     0.000000
                              8.574000     0.000000
                              4.220600     0.000000
                              2.052100     0.000000
                              0.961560     0.000000
                              0.421510     0.000000
                              0.176260     0.000000
                              0.070663     1.000000
   17.2 Au    1  2py      25217.000000     0.000000
                           5969.900000     0.000000
                           1938.900000     0.000000
                            741.660000     0.000000
                            314.500000     0.000000
                            143.310000     0.000000
                             68.650000     0.000000
                             33.995000     0.000000
                             17.185000     0.000000
                              8.574000     0.000000
                              4.220600     0.000000
                              2.052100     0.000000
                              0.961560     0.000000
                              0.421510     0.000000
                              0.176260     0.000000
                              0.070663     1.000000
   18.2 Au    1  2pz      25217.000000     0.000000
                           5969.900000     0.000000
                           1938.900000     0.000000
                            741.660000     0.000000
                            314.500000     0.000000
                            143.310000     0.000000
                             68.650000     0.000000
                             33.995000     0.000000
                             17.185000     0.000000
                              8.574000     0.000000
                              4.220600     0.000000
                              2.052100     0.000000
                              0.961560     0.000000
                              0.421510     0.000000
                              0.176260     0.000000
                              0.070663     1.000000
   19.2 Au    1  2px          2.280400     1.000000
   20.2 Au    1  2py          2.280400     1.000000
   21.2 Au    1  2pz          2.280400     1.000000
   22.2 Au    1  2px          5.148500     1.000000
   23.2 Au    1  2py          5.148500     1.000000
   24.2 Au    1  2pz          5.148500     1.000000
   25.2 Au    1  2px         11.623700     1.000000
   26.2 Au    1  2py         11.623700     1.000000
   27.2 Au    1  2pz         11.623700     1.000000
   28.2 Au    1  2px          0.026569     1.000000
   29.2 Au    1  2py          0.026569     1.000000
   30.2 Au    1  2pz          0.026569     1.000000
   31.2 Au    1  2px          0.008856     1.000000
   32.2 Au    1  2py          0.008856     1.000000
   33.2 Au    1  2pz          0.008856     1.000000
   34.2 Au    1  4f1+         0.284000     1.000000
   35.2 Au    1  4f1-         0.284000     1.000000
   36.2 Au    1  4f0          0.284000     1.000000
   37.2 Au    1  4f3+         0.284000     1.000000
   38.2 Au    1  4f2-         0.284000     1.000000
   39.2 Au    1  4f3-         0.284000     1.000000
   40.2 Au    1  4f2+         0.284000     1.000000
   41.2 Au    1  4f1+         0.709700     1.000000
   42.2 Au    1  4f1-         0.709700     1.000000
   43.2 Au    1  4f0          0.709700     1.000000
   44.2 Au    1  4f3+         0.709700     1.000000
   45.2 Au    1  4f2-         0.709700     1.000000
   46.2 Au    1  4f3-         0.709700     1.000000
   47.2 Au    1  4f2+         0.709700     1.000000
   48.2 Au    1  4f1+         1.832400     1.000000
   49.2 Au    1  4f1-         1.832400     1.000000
   50.2 Au    1  4f0          1.832400     1.000000
   51.2 Au    1  4f3+         1.832400     1.000000
   52.2 Au    1  4f2-         1.832400     1.000000
   53.2 Au    1  4f3-         1.832400     1.000000
   54.2 Au    1  4f2+         1.832400     1.000000
   55.2 Au    1  4f1+         4.683600     1.000000
   56.2 Au    1  4f1-         4.683600     1.000000
   57.2 Au    1  4f0          4.683600     1.000000
   58.2 Au    1  4f3+         4.683600     1.000000
   59.2 Au    1  4f2-         4.683600     1.000000
   60.2 Au    1  4f3-         4.683600     1.000000
   61.2 Au    1  4f2+         4.683600     1.000000
   62.2 Au    1  4f1+        11.970900     1.000000
   63.2 Au    1  4f1-        11.970900     1.000000
   64.2 Au    1  4f0         11.970900     1.000000
   65.2 Au    1  4f3+        11.970900     1.000000
   66.2 Au    1  4f2-        11.970900     1.000000
   67.2 Au    1  4f3-        11.970900     1.000000
   68.2 Au    1  4f2+        11.970900     1.000000
   69.2 Au    1  4f1+         0.124000     1.000000
   70.2 Au    1  4f1-         0.124000     1.000000
   71.2 Au    1  4f0          0.124000     1.000000
   72.2 Au    1  4f3+         0.124000     1.000000
   73.2 Au    1  4f2-         0.124000     1.000000
   74.2 Au    1  4f3-         0.124000     1.000000
   75.2 Au    1  4f2+         0.124000     1.000000
   76.2 Au    1  4f1+         0.041333     1.000000
   77.2 Au    1  4f1-         0.041333     1.000000
   78.2 Au    1  4f0          0.041333     1.000000
   79.2 Au    1  4f3+         0.041333     1.000000
   80.2 Au    1  4f2-         0.041333     1.000000
   81.2 Au    1  4f3-         0.041333     1.000000
   82.2 Au    1  4f2+         0.041333     1.000000
   83.2 Au    1  6h1+         2.266900     1.000000
   84.2 Au    1  6h1-         2.266900     1.000000
   85.2 Au    1  6h2+         2.266900     1.000000
   86.2 Au    1  6h3+         2.266900     1.000000
   87.2 Au    1  6h4-         2.266900     1.000000
   88.2 Au    1  6h3-         2.266900     1.000000
   89.2 Au    1  6h4+         2.266900     1.000000
   90.2 Au    1  6h5-         2.266900     1.000000
   91.2 Au    1  6h0          2.266900     1.000000
   92.2 Au    1  6h5+         2.266900     1.000000
   93.2 Au    1  6h2-         2.266900     1.000000

 NUCLEAR CHARGE:                   34
 NUMBER OF PRIMITIVE AOS:         342
 NUMBER OF SYMMETRY AOS:          270
 NUMBER OF CONTRACTIONS:          186   (   93Ag  +   93Au  )
 NUMBER OF INNER CORE ORBITALS:     5   (    2Ag  +    3Au  )
 NUMBER OF OUTER CORE ORBITALS:     9   (    6Ag  +    3Au  )
 NUMBER OF VALENCE ORBITALS:        4   (    1Ag  +    3Au  )


 NUCLEAR REPULSION ENERGY    0.00000000

 One-electron integrals computed with SEWARD

 eXact-2-Component (X2C) method activated

 Computing Douglas-Kroll / X2C integrals

 AO integral compression algorithm  1   Integral accuracy      1.0D-11

     140.247 MB (compressed) written to integral file ( 12.9%)

     Node minimum: 4.194 MB, node maximum: 16.253 MB


 NUMBER OF SORTED TWO-ELECTRON INTEGRALS:    4776681.     BUFFER LENGTH:  32768
 NUMBER OF SEGMENTS:   1  SEGMENT LENGTH:    4776681      RECORD LENGTH: 524288

 Memory used in sort:       5.33 MW

 SORT1 READ   136462603. AND WROTE      877615. INTEGRALS IN      3 RECORDS. CPU TIME:     0.65 SEC, REAL TIME:     0.66 SEC
 SORT2 READ    14105300. AND WROTE    76426935. INTEGRALS IN    768 RECORDS. CPU TIME:     0.11 SEC, REAL TIME:     0.12 SEC

 Node minimum:     4770129.  Node maximum:     4791438. integrals

 OPERATOR DM      FOR CENTER  0  COORDINATES:    0.000000    0.000000    0.000000

 EXTRA SYMMETRY OF AOS IN SYMMETRY 1:   1 1 1 1 1 1 1 1 1 1   1 1 2 3 4 5 6 2 3 4   5 6 2 3 4 5 6 2 3 4   5 6 2 3 4 5 6 2 3 4
                                        5 6 2 3 4 5 6 2 3 4   5 6 2 3 4 5 6 7 8 9  101112131415 7 8 910  1112131415 7 8 91011
                                       12131415 7 8 9101112  131415
 EXTRA SYMMETRY OF AOS IN SYMMETRY 2:   1 2 3 1 2 3 1 2 3 1   2 3 1 2 3 1 2 3 1 2   3 1 2 3 1 2 3 1 2 3   1 2 3 4 5 6 7 8 910
                                        4 5 6 7 8 910 4 5 6   7 8 910 4 5 6 7 8 9  10 4 5 6 7 8 910 4 5   6 7 8 910 4 5 6 7 8
                                        9101112131415161718  192021

 Eigenvalues of metric

         1 0.284E-05 0.190E-03 0.307E-02 0.701E-02 0.840E-02 0.840E-02 0.840E-02 0.840E-02
         2 0.758E-05 0.758E-05 0.758E-05 0.294E-03 0.294E-03 0.294E-03 0.242E-01 0.242E-01


 **********************************************************************************************************************************
 DATASETS  * FILE   NREC   LENGTH (MB)   RECORD NAMES
              1      22       30.04       500      610      700      900      950      970     1000      129      960     1700   
                                          VAR    BASINP    GEOM    SYMINP    ZMAT    AOBASIS   BASIS     P2S    ABASIS    OPER   
                                         1101     1401     1411     1412     1650     1100     1400     1410     1200     1210   
                                          SR      EKINR    POTR     PVPR    MOLCAS      S      EKIN      POT      H0       H01  
                                         1080     1600   
                                         AOSYM     SMH  

 PROGRAMS   *        TOTAL       INT
 CPU TIMES  *         3.43      3.22
 REAL TIME  *         4.46 SEC
 DISK USED  *        30.42 MB (local),      772.91 MB (total)
 GA USED    *         0.00 MB       (max)       0.00 MB       (current)
 **********************************************************************************************************************************


 Program * Restricted Hartree-Fock


   Atom=SE basis=MINAO             lmin=0  lmax=2

 Orbital guess generated from atomic densities.

 Initial alpha occupancy:   9   9
 Initial beta  occupancy:   9   6

 NELEC=   33   SYM=2   MS2= 3   THRE=1.0D-08   THRD=3.2D-06   THRG=3.2D-06  HFMA2=F  DIIS_START=2   DIIS_MAX=10   DIIS_INCORE=F

 Level shifts:    0.00 (CLOSED)    0.00 (OPEN)    0.30 (GAP_MIN)

 ITER           ETOT              DE          GRAD        DDIFF     DIIS  NEXP   TIME(IT)  TIME(TOT)  DIAG
   1    -2427.78860164   -2427.78860164     0.00D+00     0.86D-01     0     0       0.03      0.06    start
   2    -2427.84608846      -0.05748682     0.13D-01     0.10D-01     1     0       0.03      0.09    diag2
   3    -2427.84867615      -0.00258769     0.32D-02     0.22D-02     2     0       0.04      0.13    diag2
   4    -2427.84908384      -0.00040769     0.92D-03     0.87D-03     3     0       0.03      0.16    diag2
   5    -2427.84912560      -0.00004177     0.19D-03     0.44D-03     4     0       0.03      0.19    diag2
   6    -2427.84912633      -0.00000073     0.15D-04     0.76D-04     5     0       0.02      0.21    diag2
   7    -2427.84912635      -0.00000002     0.30D-05     0.73D-05     6     0       0.03      0.24    diag2
   8    -2427.84912635      -0.00000000     0.27D-06     0.70D-06     7     0       0.03      0.27    fixocc
   9    -2427.84912635      -0.00000000     0.31D-07     0.78D-07     0     0       0.04      0.31    diag

 Final alpha occupancy:   9   9
 Final beta  occupancy:   9   6

 !RHF STATE 1.2 Energy              -2427.849126346312
  RHF One-electron energy           -3366.809652346311
  RHF Two-electron energy             938.960525999999
  RHF Kinetic energy                 2588.318000625539
  RHF Nuclear energy                    0.000000000000
  RHF Virial quotient                  -0.938002643323

 !RHF STATE 1.2 Dipole moment           0.00000000     0.00000000     0.00000000
 Dipole moment /Debye                   0.00000000     0.00000000     0.00000000

 ELECTRON ORBITALS
 =================

  Orbital  Occupation    Energy    Cen Mu Typ  Coefficients
    1.1     2.00000  -468.48499     1  1  s    0.99998
    2.1     2.00000   -62.72191     1  2  s    0.99966
    3.1     2.00000    -9.59426     1  3  s    1.00141
    4.1     2.00000    -2.97365     1  1  d1-  1.00045
    5.1     2.00000    -2.97365     1  1  d2+  0.99952
    6.1     2.00000    -2.97365     1  1  d2-  0.99027
    7.1     2.00000    -2.97365     1  1  d1+  0.98835
    8.1     2.00000    -2.97365     1  1  d0   0.99245
    9.1     2.00000    -1.19169     1  4  s    1.05671
    1.2     2.00000   -55.03382     1  1  py   0.99924
    2.2     2.00000   -55.03382     1  1  px   0.99924
    3.2     2.00000   -55.03382     1  1  pz   1.00024
    4.2     2.00000    -7.10063     1  2  px   1.00056
    5.2     2.00000    -7.10063     1  2  py   1.00056
    6.2     2.00000    -7.10063     1  2  pz   1.00069
    7.2     1.00000    -0.78655     1  3  pz   1.00575
    8.2     1.00000    -0.78655     1  3  px   1.00547
    9.2     1.00000    -0.78655     1  3  py   1.00547


 HOMO      9.2    -0.786555 =     -21.4033eV
 LUMO     10.1    -0.126440 =      -3.4406eV
 LUMO-HOMO         0.660115 =      17.9626eV

 Orbitals saved in record  2100.2


 **********************************************************************************************************************************
 DATASETS  * FILE   NREC   LENGTH (MB)   RECORD NAMES
              1      22       30.04       500      610      700      900      950      970     1000      129      960     1700   
                                          VAR    BASINP    GEOM    SYMINP    ZMAT    AOBASIS   BASIS     P2S    ABASIS    OPER   
                                         1101     1401     1411     1412     1650     1100     1400     1410     1200     1210   
                                          SR      EKINR    POTR     PVPR    MOLCAS      S      EKIN      POT      H0       H01  
                                         1080     1600   
                                         AOSYM     SMH  

              2       4        0.94       700     1000      520     2100   
                                         GEOM     BASIS   MCVARS     RHF  

 PROGRAMS   *        TOTAL   RHF-SCF       INT
 CPU TIMES  *         3.74      0.31      3.22
 REAL TIME  *         6.05 SEC
 DISK USED  *        33.22 MB (local),      817.77 MB (total)
 GA USED    *         0.00 MB       (max)       0.00 MB       (current)
 **********************************************************************************************************************************

 PROGRAM * MULTI (Direct Multiconfiguration SCF)       Authors: P.J. Knowles, H.-J. Werner (1984)
                                                                D.A. Kreplin, P.J. Knowles, H.-J. Werner (2019)

 Number of closed-shell orbitals:  14 (    8    6)
 Number of active  orbitals:        7 (    1    6)
 Number of external orbitals:     165 (   84   81)

 State symmetry 1

 Number of active electrons:   6    Spin symmetry=Triplet   Space symmetry=1
 Number of states:             6
 Number of CSFs:             294   (345 determinants, 735 intermediate states)

 State symmetry 2

 Number of active electrons:   6    Spin symmetry=Singlet   Space symmetry=1
 Number of states:             6
 Number of CSFs:             280   (625 determinants, 1225 intermediate states)

 State symmetry 3

 Number of active electrons:   6    Spin symmetry=Quintet   Space symmetry=1
 Number of states:             3
 Number of CSFs:              50   (51 determinants, 147 intermediate states)

 Molecular orbitals read from record     2100.2  Type=RHF/CANONICAL  
 *** IN SYMMETRY 1 ORBITAL  4 SYMMETRY CONTAMINATION OF 0.215D-01 HAS BEEN REMOVED
 *** IN SYMMETRY 1 ORBITAL  5 SYMMETRY CONTAMINATION OF 0.558D-01 HAS BEEN REMOVED
 *** IN SYMMETRY 1 ORBITAL  6 SYMMETRY CONTAMINATION OF 0.194D+00 HAS BEEN REMOVED
 *** IN SYMMETRY 1 ORBITAL  7 SYMMETRY CONTAMINATION OF 0.186D+00 HAS BEEN REMOVED
 *** IN SYMMETRY 1 ORBITAL  8 SYMMETRY CONTAMINATION OF 0.160D+00 HAS BEEN REMOVED

 EXTRA SYMMETRY OF MOS IN SYMMETRY 1:   1 1 1 6 5 3 4 2 1 1   3 5 2 6 4 1 3 5 2 6   4 2 3 5 4 6 1 2 6 4   3 512 8 7 911131014
                                       15 11415 7 812 91110  13 5 3 6 4 2 1 2 5 3   6 4141512 8 71013 9  11 1 2 6 3 5 4151412
                                        8 711 91013 2 6 4 3   5 1 1
 *** IN SYMMETRY 2 ORBITAL  1 SYMMETRY CONTAMINATION OF 0.453D-01 HAS BEEN REMOVED
 *** IN SYMMETRY 2 ORBITAL  2 SYMMETRY CONTAMINATION OF 0.448D-01 HAS BEEN REMOVED
 *** IN SYMMETRY 2 ORBITAL  3 SYMMETRY CONTAMINATION OF 0.501D-02 HAS BEEN REMOVED
 *** IN SYMMETRY 2 ORBITAL  4 SYMMETRY CONTAMINATION OF 0.162D-01 HAS BEEN REMOVED
 *** IN SYMMETRY 2 ORBITAL  5 SYMMETRY CONTAMINATION OF 0.161D-01 HAS BEEN REMOVED
 *** IN SYMMETRY 2 ORBITAL  6 SYMMETRY CONTAMINATION OF 0.228D-03 HAS BEEN REMOVED
 *** IN SYMMETRY 2 ORBITAL  7 SYMMETRY CONTAMINATION OF 0.508D-03 HAS BEEN REMOVED
 *** IN SYMMETRY 2 ORBITAL  8 SYMMETRY CONTAMINATION OF 0.232D-01 HAS BEEN REMOVED
 *** IN SYMMETRY 2 ORBITAL  9 SYMMETRY CONTAMINATION OF 0.231D-01 HAS BEEN REMOVED
 *** IN SYMMETRY 2 ORBITAL 10 SYMMETRY CONTAMINATION OF 0.356D-02 HAS BEEN REMOVED
 *** IN SYMMETRY 2 ORBITAL 11 SYMMETRY CONTAMINATION OF 0.405D-02 HAS BEEN REMOVED
 *** IN SYMMETRY 2 ORBITAL 12 SYMMETRY CONTAMINATION OF 0.142D-02 HAS BEEN REMOVED
 EXTRA SYMMETRY OF MOS IN SYMMETRY 2:   2 1 3 1 2 3 3 1 2 3   1 2 3 1 2 6 810 4 5   9 7 3 1 2 4 5 810 6   9 7 3 1 2 4 5 6 810
                                        9 7 6 810 4 5 9 7 3   1 210 8 6 5 4 9 7 3   2 11321111219171516  142018 810 6 5 4 9 7
                                        3 1 2 810 7 9 6 5 4   3 2 1

 Wavefunction dump at record             2140.2

 Convergence thresholds  0.10E-04 (gradient)  0.10E-05 (energy)

 Weight factors for state symmetry  1:    0.06667   0.06667   0.06667   0.06667   0.06667   0.06667
 Weight factors for state symmetry  2:    0.06667   0.06667   0.06667   0.06667   0.06667   0.06667
 Weight factors for state symmetry  3:    0.06667   0.06667   0.06667
 
 Number of orbital rotations:  1772  ( 44 closed/active, 1158 closed/virtual, 0 active/active, 570 active/virtual )
 Total number of variables:    7745
 
 Second-order MCSCF: L-BFGS accelerated
 
 ITER  MIC  NCI  NEG     ENERGY(VAR)    ENERGY(PROJ) ENERGY CHANGE       GRAD(0)  GRAD(ORB)   GRAD(CI)      STEP      TIME
   1    5   19    0  -2428.02483013   -2428.03693031   -0.01210018    0.13988189 0.00012790 0.00009274  0.19E+00      2.28
   2    7   25    0  -2428.03709076   -2428.03709716   -0.00000640    0.00348291 0.00000211 0.00000138  0.39E-02      5.19
   3    5   18    0  -2428.03709716   -2428.03709716   -0.00000000    0.00000287 0.00000000 0.00000006  0.15E-04      7.42

 CONVERGENCE REACHED!  Final gradient:    0.00000002 ( 0.15E-07)
                       Final energy:  -2428.03709716
 
 Results for state 1.1 Triplet
 =============================
 !MCSCF STATE 1.1 Triplet Energy             -2428.155536450080
 Nuclear energy                                  0.00000000
 Kinetic energy                               2589.16112939
 One electron energy                         -3380.59376385
 Two electron energy                           952.43822740
 Virial ratio                                    1.93781554
 
 !MCSCF STATE 1.1 Triplet Dipole moment          0.00000000     0.00000000     0.00000000
 Dipole moment /Debye                            0.00000000     0.00000000     0.00000000
 
 Results for state 2.1 Triplet
 =============================
 !MCSCF STATE 2.1 Triplet Energy             -2428.155536450056
 Nuclear energy                                  0.00000000
 Kinetic energy                               2589.16112938
 One electron energy                         -3380.59376385
 Two electron energy                           952.43822740
 Virial ratio                                    1.93781554
 
 !MCSCF STATE 2.1 Triplet Dipole moment          0.00000000     0.00000000     0.00000000
 Dipole moment /Debye                            0.00000000     0.00000000     0.00000000
 
 Results for state 3.1 Triplet
 =============================
 !MCSCF STATE 3.1 Triplet Energy             -2428.155536450047
 Nuclear energy                                  0.00000000
 Kinetic energy                               2589.16112939
 One electron energy                         -3380.59376385
 Two electron energy                           952.43822740
 Virial ratio                                    1.93781554
 
 !MCSCF STATE 3.1 Triplet Dipole moment          0.00000000     0.00000000     0.00000000
 Dipole moment /Debye                            0.00000000     0.00000000     0.00000000
 
 Results for state 4.1 Triplet
 =============================
 !MCSCF STATE 4.1 Triplet Energy             -2427.910829465579
 Nuclear energy                                  0.00000000
 Kinetic energy                               2587.66596457
 One electron energy                         -3370.17165297
 Two electron energy                           942.26082350
 Virial ratio                                    1.93826284
 
 !MCSCF STATE 4.1 Triplet Dipole moment          0.00000000     0.00000000     0.00000000
 Dipole moment /Debye                            0.00000000     0.00000000     0.00000000
 
 Results for state 5.1 Triplet
 =============================
 !MCSCF STATE 5.1 Triplet Energy             -2427.910829465548
 Nuclear energy                                  0.00000000
 Kinetic energy                               2587.66596457
 One electron energy                         -3370.17165297
 Two electron energy                           942.26082351
 Virial ratio                                    1.93826284
 
 !MCSCF STATE 5.1 Triplet Dipole moment          0.00000000     0.00000000     0.00000000
 Dipole moment /Debye                            0.00000000     0.00000000     0.00000000
 
 Results for state 6.1 Triplet
 =============================
 !MCSCF STATE 6.1 Triplet Energy             -2427.910829465515
 Nuclear energy                                  0.00000000
 Kinetic energy                               2587.66596457
 One electron energy                         -3370.17165298
 Two electron energy                           942.26082351
 Virial ratio                                    1.93826284
 
 !MCSCF STATE 6.1 Triplet Dipole moment          0.00000000     0.00000000     0.00000000
 Dipole moment /Debye                            0.00000000     0.00000000     0.00000000
 
 Results for state 1.1 Singlet
 =============================
 !MCSCF STATE 1.1 Singlet Energy             -2428.105555960318
 Nuclear energy                                  0.00000000
 Kinetic energy                               2589.10322954
 One electron energy                         -3380.38236932
 Two electron energy                           952.27681336
 Virial ratio                                    1.93781721
 
 !MCSCF STATE 1.1 Singlet Dipole moment          0.00000000     0.00000000     0.00000000
 Dipole moment /Debye                            0.00000000     0.00000000     0.00000000
 
 Results for state 2.1 Singlet
 =============================
 !MCSCF STATE 2.1 Singlet Energy             -2428.105555960308
 Nuclear energy                                  0.00000000
 Kinetic energy                               2589.10322954
 One electron energy                         -3380.38236932
 Two electron energy                           952.27681336
 Virial ratio                                    1.93781721
 
 !MCSCF STATE 2.1 Singlet Dipole moment          0.00000000     0.00000000     0.00000000
 Dipole moment /Debye                            0.00000000     0.00000000     0.00000000
 
 Results for state 3.1 Singlet
 =============================
 !MCSCF STATE 3.1 Singlet Energy             -2428.105555960300
 Nuclear energy                                  0.00000000
 Kinetic energy                               2589.10322954
 One electron energy                         -3380.38236932
 Two electron energy                           952.27681336
 Virial ratio                                    1.93781721
 
 !MCSCF STATE 3.1 Singlet Dipole moment          0.00000000     0.00000000     0.00000000
 Dipole moment /Debye                            0.00000000     0.00000000     0.00000000
 
 Results for state 4.1 Singlet
 =============================
 !MCSCF STATE 4.1 Singlet Energy             -2428.105555960292
 Nuclear energy                                  0.00000000
 Kinetic energy                               2589.10322954
 One electron energy                         -3380.38236932
 Two electron energy                           952.27681336
 Virial ratio                                    1.93781721
 
 !MCSCF STATE 4.1 Singlet Dipole moment          0.00000000     0.00000000     0.00000000
 Dipole moment /Debye                            0.00000000     0.00000000     0.00000000
 
 Results for state 5.1 Singlet
 =============================
 !MCSCF STATE 5.1 Singlet Energy             -2428.105555960277
 Nuclear energy                                  0.00000000
 Kinetic energy                               2589.10322954
 One electron energy                         -3380.38236932
 Two electron energy                           952.27681336
 Virial ratio                                    1.93781721
 
 !MCSCF STATE 5.1 Singlet Dipole moment          0.00000000     0.00000000     0.00000000
 Dipole moment /Debye                            0.00000000     0.00000000     0.00000000
 
 Results for state 6.1 Singlet
 =============================
 !MCSCF STATE 6.1 Singlet Energy             -2428.061005936156
 Nuclear energy                                  0.00000000
 Kinetic energy                               2588.97633618
 One electron energy                         -3379.92864212
 Two electron energy                           951.86763619
 Virial ratio                                    1.93784596
 
 !MCSCF STATE 6.1 Singlet Dipole moment          0.00000000     0.00000000     0.00000000
 Dipole moment /Debye                            0.00000000     0.00000000     0.00000000
 
 Results for state 1.1 Quintet
 =============================
 !MCSCF STATE 1.1 Quintet Energy             -2427.922857995194
 Nuclear energy                                  0.00000000
 Kinetic energy                               2587.50810477
 One electron energy                         -3369.59557657
 Two electron energy                           941.67271857
 Virial ratio                                    1.93832474
 
 !MCSCF STATE 1.1 Quintet Dipole moment          0.00000000     0.00000000     0.00000000
 Dipole moment /Debye                            0.00000000     0.00000000     0.00000000
 
 Results for state 2.1 Quintet
 =============================
 !MCSCF STATE 2.1 Quintet Energy             -2427.922857995183
 Nuclear energy                                  0.00000000
 Kinetic energy                               2587.50810477
 One electron energy                         -3369.59557657
 Two electron energy                           941.67271857
 Virial ratio                                    1.93832474
 
 !MCSCF STATE 2.1 Quintet Dipole moment          0.00000000     0.00000000     0.00000000
 Dipole moment /Debye                            0.00000000     0.00000000     0.00000000
 
 Results for state 3.1 Quintet
 =============================
 !MCSCF STATE 3.1 Quintet Energy             -2427.922857995177
 Nuclear energy                                  0.00000000
 Kinetic energy                               2587.50810477
 One electron energy                         -3369.59557657
 Two electron energy                           941.67271858
 Virial ratio                                    1.93832474
 
 !MCSCF STATE 3.1 Quintet Dipole moment          0.00000000     0.00000000     0.00000000
 Dipole moment /Debye                            0.00000000     0.00000000     0.00000000
 
 State-averaged charge density matrix saved on record 2140.2 (density set 1)
 
 No non-zero expectation values
 
 Expectation values for two-electron operators:
 
 ? Warning
 ? Transition properties are only calculated between states of the same symmetry
 ? The problem occurs in mu_properties_expec2

 !MCSCF expec      <1.1 Triplet|LXLX|1.1 Triplet>     0.999999972170
 !MCSCF expec      <2.1 Triplet|LXLX|2.1 Triplet>     0.000005715383
 !MCSCF expec      <3.1 Triplet|LXLX|3.1 Triplet>     0.999991564362
 !MCSCF expec      <4.1 Triplet|LXLX|4.1 Triplet>     0.999999991067
 !MCSCF expec      <5.1 Triplet|LXLX|5.1 Triplet>     0.999999987788
 !MCSCF expec      <6.1 Triplet|LXLX|6.1 Triplet>     0.000000023673
 !MCSCF expec      <1.1 Singlet|LXLX|1.1 Singlet>     1.000000076631
 !MCSCF expec      <2.1 Singlet|LXLX|2.1 Singlet>     1.533983821303
 !MCSCF expec      <3.1 Singlet|LXLX|3.1 Singlet>     3.999996193810
 !MCSCF expec      <4.1 Singlet|LXLX|4.1 Singlet>     1.000002039293
 !MCSCF expec      <5.1 Singlet|LXLX|5.1 Singlet>     2.466017868963
 !MCSCF expec      <6.1 Singlet|LXLX|6.1 Singlet>    -0.000000000000
 !MCSCF expec      <1.1 Quintet|LXLX|1.1 Quintet>     0.999999992567
 !MCSCF expec      <2.1 Quintet|LXLX|2.1 Quintet>     1.000000000000
 !MCSCF expec      <3.1 Quintet|LXLX|3.1 Quintet>     0.000000029846
 
 !MCSCF expec      <1.1 Triplet|LYLY|1.1 Triplet>     0.999999770147
 !MCSCF expec      <2.1 Triplet|LYLY|2.1 Triplet>     0.999994303116
 !MCSCF expec      <3.1 Triplet|LYLY|3.1 Triplet>     0.000008533350
 !MCSCF expec      <4.1 Triplet|LYLY|4.1 Triplet>     0.000000155977
 !MCSCF expec      <5.1 Triplet|LYLY|5.1 Triplet>     0.999999804797
 !MCSCF expec      <6.1 Triplet|LYLY|6.1 Triplet>     0.999999984157
 !MCSCF expec      <1.1 Singlet|LYLY|1.1 Singlet>     1.000000321626
 !MCSCF expec      <2.1 Singlet|LYLY|2.1 Singlet>     0.548634709402
 !MCSCF expec      <3.1 Singlet|LYLY|3.1 Singlet>     1.000001038655
 !MCSCF expec      <4.1 Singlet|LYLY|4.1 Singlet>     3.999997557124
 !MCSCF expec      <5.1 Singlet|LYLY|5.1 Singlet>     3.451366373193
 !MCSCF expec      <6.1 Singlet|LYLY|6.1 Singlet>    -0.000000000000
 !MCSCF expec      <1.1 Quintet|LYLY|1.1 Quintet>     0.000000007597
 !MCSCF expec      <2.1 Quintet|LYLY|2.1 Quintet>     1.000000000000
 !MCSCF expec      <3.1 Quintet|LYLY|3.1 Quintet>     0.999999971265
 
 !MCSCF expec      <1.1 Triplet|LZLZ|1.1 Triplet>     0.000000257683
 !MCSCF expec      <2.1 Triplet|LZLZ|2.1 Triplet>     0.999999981501
 !MCSCF expec      <3.1 Triplet|LZLZ|3.1 Triplet>     0.999999902288
 !MCSCF expec      <4.1 Triplet|LZLZ|4.1 Triplet>     0.999999852956
 !MCSCF expec      <5.1 Triplet|LZLZ|5.1 Triplet>     0.000000207415
 !MCSCF expec      <6.1 Triplet|LZLZ|6.1 Triplet>     0.999999992170
 !MCSCF expec      <1.1 Singlet|LZLZ|1.1 Singlet>     3.999999601743
 !MCSCF expec      <2.1 Singlet|LZLZ|2.1 Singlet>     3.917381469294
 !MCSCF expec      <3.1 Singlet|LZLZ|3.1 Singlet>     1.000002767535
 !MCSCF expec      <4.1 Singlet|LZLZ|4.1 Singlet>     1.000000403582
 !MCSCF expec      <5.1 Singlet|LZLZ|5.1 Singlet>     0.082615757845
 !MCSCF expec      <6.1 Singlet|LZLZ|6.1 Singlet>    -0.000000000000
 !MCSCF expec      <1.1 Quintet|LZLZ|1.1 Quintet>     0.999999999836
 !MCSCF expec      <2.1 Quintet|LZLZ|2.1 Quintet>    -0.000000000000
 !MCSCF expec      <3.1 Quintet|LZLZ|3.1 Quintet>     0.999999998889
 
 !MCSCF expec      <1.1 Triplet|L**2|1.1 Triplet>     2.000000000000
 !MCSCF expec      <2.1 Triplet|L**2|2.1 Triplet>     2.000000000000
 !MCSCF expec      <3.1 Triplet|L**2|3.1 Triplet>     2.000000000000
 !MCSCF expec      <4.1 Triplet|L**2|4.1 Triplet>     2.000000000000
 !MCSCF expec      <5.1 Triplet|L**2|5.1 Triplet>     2.000000000000
 !MCSCF expec      <6.1 Triplet|L**2|6.1 Triplet>     2.000000000000
 !MCSCF expec      <1.1 Singlet|L**2|1.1 Singlet>     6.000000000000
 !MCSCF expec      <2.1 Singlet|L**2|2.1 Singlet>     6.000000000000
 !MCSCF expec      <3.1 Singlet|L**2|3.1 Singlet>     6.000000000000
 !MCSCF expec      <4.1 Singlet|L**2|4.1 Singlet>     6.000000000000
 !MCSCF expec      <5.1 Singlet|L**2|5.1 Singlet>     6.000000000000
 !MCSCF expec      <6.1 Singlet|L**2|6.1 Singlet>    -0.000000000000
 !MCSCF expec      <1.1 Quintet|L**2|1.1 Quintet>     2.000000000000
 !MCSCF expec      <2.1 Quintet|L**2|2.1 Quintet>     2.000000000000
 !MCSCF expec      <3.1 Quintet|L**2|3.1 Quintet>     2.000000000000
 
 EXTRA SYMMETRY OF MOS IN SYMMETRY 1:   1 1 1 6 2 5 3 4 1 1   6 2 3 5 4 1 6 2 3 5   4 1 6 2 3 5 4 6 2 3   5 411 7 81215141310
                                        9 111 7 81214151310   9 6 2 5 3 4 1 6 2 5   3 411 7 81215141013   9 1 6 2 3 5 411 712
                                        815141310 9 2 6 4 5   3 1 1
 EXTRA SYMMETRY OF MOS IN SYMMETRY 2:   2 3 1 2 3 1 1 3 2 2   1 3 2 3 1 5 6 810 9   7 4 2 3 1 5 6 810 9   7 4 3 2 1 5 610 8 9
                                        7 4 5 610 8 9 7 4 3   2 1 5 610 8 9 7 4 3   2 11219211316141715  201811 5 810 6 9 7 4
                                        3 2 1 5 810 6 9 7 4   3 1 2
 
  NATURAL ORBITALS (STATE AVERAGED)
  =================================

  Orbital  Occupation    Energy    Cen Mu Typ  Coefficients
    1.1     2.00000  -468.20239     1  1  s    0.99998
    2.1     2.00000   -62.44041     1  2  s    0.99973
    3.1     2.00000    -9.31323     1  3  s    1.00107
    4.1     2.00000    -2.69333     1  1  d1-  1.00023
    5.1     2.00000    -2.69333     1  1  d0   1.00023
    6.1     2.00000    -2.69333     1  1  d2+  1.00023
    7.1     2.00000    -2.69333     1  1  d2-  1.00023
    8.1     2.00000    -2.69333     1  1  d1+  1.00023
    9.1     1.99524    -0.93707     1  4  s    1.01603
    1.2     2.00000   -54.75258     1  1  py   1.00020
    2.2     2.00000   -54.75258     1  1  pz   1.00020
    3.2     2.00000   -54.75258     1  1  px   1.00020
    4.2     2.00000    -6.82057     1  2  py   1.00025
    5.2     2.00000    -6.82057     1  2  pz   1.00025
    6.2     2.00000    -6.82057     1  2  px   1.00025
    7.2     1.19897    -0.31424     1  3  px   1.02184
    8.2     1.19897    -0.31424     1  3  pz   1.02184
    9.2     1.19897    -0.31424     1  3  py   1.02184
   10.2     0.13595     0.04540     1  3  py  -0.33650    1 10  py   0.72636    1 11  py   0.37457
   11.2     0.13595     0.04540     1  3  px  -0.33650    1 10  px   0.72636    1 11  px   0.37457
   12.2     0.13595     0.04540     1  3  pz  -0.33650    1 10  pz   0.72636    1 11  pz   0.37457
 
 Natural orbital dump (state averaged) at molpro section 2140.2 (Orbital set 2)
 
 Transform the CI vectors
 
 CI Coefficients of symmetry 1 (Triplet)
 =======================================
 
 2 a2a000       0.99680871     -0.00016743      0.00047750     -0.00002682      0.06993796      0.00000773
 2 2aa000       0.00016629      0.99680599      0.00237926      0.00000661      0.00000773     -0.06993795
 2 aa2000      -0.00047790     -0.00237918      0.99680588     -0.06993798     -0.00002682     -0.00000661
 2 aaa0b0       0.00001018      0.06103787      0.00014569     -0.00008012     -0.00009368      0.84772930
 2 aaab00      -0.00002926     -0.00014569      0.06103789      0.84772925      0.00032506      0.00008016
 2 aaa00b      -0.06103805      0.00001025     -0.00002924     -0.00032507      0.84772924      0.00009365
 2 aba0a0      -0.00000283     -0.01693598     -0.00004042      0.00003019      0.00003529     -0.31936853
 2 aab0a0      -0.00000283     -0.01693598     -0.00004042      0.00003019      0.00003529     -0.31936853
 2 abaa00       0.00000812      0.00004042     -0.01693598     -0.31936851     -0.00012246     -0.00003020
 2 baaa00       0.00000812      0.00004042     -0.01693598     -0.31936851     -0.00012246     -0.00003020
 2 baa00a       0.01693603     -0.00000284      0.00000811      0.00012247     -0.31936851     -0.00003528
 2 aab00a       0.01693603     -0.00000284      0.00000811      0.00012247     -0.31936851     -0.00003528
 2 baa0a0      -0.00000453     -0.02716590     -0.00006484      0.00001975      0.00002309     -0.20899225
 2 aaba00       0.00001302      0.00006484     -0.02716593     -0.20899223     -0.00008014     -0.00001976
 2 aba00a       0.02716599     -0.00000456      0.00001301      0.00008014     -0.20899223     -0.00002309
 2 2a0a00       0.00000057      0.00344341      0.00000822      0.00000830      0.00000971     -0.08786169
 2 20a00a      -0.00000057     -0.00344339     -0.00000822     -0.00000830     -0.00000971      0.08786169
 2 a20a00       0.00344342     -0.00000058      0.00000165     -0.00003369      0.08786168      0.00000971
 2 02a0a0      -0.00344339      0.00000058     -0.00000165      0.00003369     -0.08786168     -0.00000971
 2 a0200a      -0.00000165     -0.00000822      0.00344339     -0.08786168     -0.00003369     -0.00000831
 2 0a20a0       0.00000165      0.00000822     -0.00344338      0.08786168      0.00003369      0.00000831
 2 0aa020      -0.00000268     -0.01609420     -0.00003842      0.00000668      0.00000781     -0.07065222
 2 a0a002      -0.01609425      0.00000270     -0.00000771     -0.00002709      0.07065220      0.00000780
 2 aa0200       0.00000772      0.00003841     -0.01609420     -0.07065219     -0.00002709     -0.00000668
 2 0aaba0      -0.00000591     -0.00002944      0.01233275      0.05001182      0.00001918      0.00000473
 2 0aa0ab       0.01233279     -0.00000207      0.00000591      0.00001918     -0.05001182     -0.00000552
 2 a0a0ba      -0.00000206     -0.01233275     -0.00002944      0.00000473      0.00000553     -0.05001181
 2 a0ab0a       0.00000591      0.00002944     -0.01233275     -0.05001181     -0.00001918     -0.00000473
 2 aa0ab0      -0.00000206     -0.01233275     -0.00002944      0.00000473      0.00000553     -0.05001180
 2 aa0a0b       0.01233278     -0.00000207      0.00000591      0.00001918     -0.05001179     -0.00000552
 
 Energy:    -2428.15553645  -2428.15553645  -2428.15553645  -2427.91082947  -2427.91082947  -2427.91082947
 
 
 CI Coefficients of symmetry 1 (Singlet)
 =======================================
 
 2 202000       0.00003115     -0.11695395     -0.00032561     -0.00005568      0.80534632      0.56560368
 2 220000      -0.00001523      0.75592703      0.00085022     -0.00009381     -0.30138785      0.56560368
 2 b2a000      -0.70476642     -0.00000361      0.00011031      0.00022977      0.00002679     -0.00000000
 2 a2b000       0.70476642      0.00000361     -0.00011031     -0.00022977     -0.00002679      0.00000000
 2 ba2000      -0.00022968     -0.00011406      0.00058548     -0.70476618     -0.00006505     -0.00000000
 2 ab2000       0.00022968      0.00011406     -0.00058548      0.70476618      0.00006505      0.00000000
 2 2ba000      -0.00011051      0.00072071     -0.70476583     -0.00058554     -0.00018032     -0.00000000
 2 2ab000       0.00011051     -0.00072071      0.70476583      0.00058554      0.00018032      0.00000000
 2 022000      -0.00001591     -0.63897308     -0.00052461      0.00014949     -0.50395847      0.56560368
 0 222000       0.00000000     -0.00000000     -0.00000000      0.00000000     -0.00000000     -0.17354997
 
 Energy:    -2428.10555596  -2428.10555596  -2428.10555596  -2428.10555596  -2428.10555596  -2428.06100594
 
 
 CI Coefficients of symmetry 1 (Quintet)
 =======================================
 
 2 aaa00a      -0.00001274      0.99589188     -0.00000000
 2 aaa0a0      -0.00008586     -0.00000000      0.99589188
 2 aaaa00       0.99589188      0.00001274      0.00008586
 2 0aa0aa       0.00000081     -0.06345622     -0.00000000
 2 0aaaa0       0.06345622      0.00000081      0.00000547
 2 a0a0aa       0.00000547      0.00000000     -0.06345620
 2 a0aa0a      -0.06345620     -0.00000081     -0.00000547
 2 aa0a0a       0.00000081     -0.06345619     -0.00000000
 2 aa0aa0       0.00000547      0.00000000     -0.06345619
 
 Energy:    -2427.92285800  -2427.92285800  -2427.92285800
 


 **********************************************************************************************************************************
 DATASETS  * FILE   NREC   LENGTH (MB)   RECORD NAMES
              1      24       76.53       500      610      700      900      950      970     1000      129      960     1700   
                                          VAR    BASINP    GEOM    SYMINP    ZMAT    AOBASIS   BASIS     P2S    ABASIS    OPER   
                                         1101     1401     1411     1412     1650     1100     1400     1410     1200     1210   
                                          SR      EKINR    POTR     PVPR    MOLCAS      S      EKIN      POT      H0       H01  
                                         1080     1600     1380     1700(1)
                                         AOSYM     SMH     JKOP     OPER   

              2       5        1.64       700     1000      520     2100     2140   
                                         GEOM     BASIS   MCVARS     RHF     MCSCF   

 PROGRAMS   *        TOTAL     MULTI   RHF-SCF       INT
 CPU TIMES  *        10.72      6.98      0.31      3.22
 REAL TIME  *        14.75 SEC
 DISK USED  *        78.27 MB (local),        1.50 GB (total)
 SF USED    *       117.12 MB
 GA USED    *         0.00 MB       (max)       0.00 MB       (current)
 **********************************************************************************************************************************

 Energies and &lt;L**2&gt; values

          ENERGY    LL
    -2428.155536   2.0
    -2428.155536   2.0
    -2428.155536   2.0
    -2427.910829   2.0
    -2427.910829   2.0
    -2427.910829   2.0
    -2428.105556   6.0
    -2428.105556   6.0
    -2428.105556   6.0
    -2428.105556   6.0
    -2428.105556   6.0
    -2428.061006  -0.0
    -2427.922858   2.0
    -2427.922858   2.0
    -2427.922858   2.0
                                                  


 PROGRAM * CI (Multireference internally contracted CI)     Authors: H.-J. Werner, P.J. Knowles, 1987


 Convergence thresholds:  THRVAR = 1.00D-08  THRDEN = 1.00D-06

 Number of optimized states: 6  Roots:    1   2   3   4   5   6
 Number of reference states: 6  Roots:    1   2   3   4   5   6

 Reference symmetry:                   1   Triplet 
 Number of electrons:                 34
 Maximum number of shells:             6
 Maximum number of spin couplings:   297

 Reference space:      196 conf      294 CSFs
 N elec internal:    19609 conf    81480 CSFs
 N-1 el internal:    20264 conf   153948 CSFs
 N-2 el internal:    11240 conf   124860 CSFs

 Number of electrons in valence space:                     24
 Maximum number of open shell orbitals in reference space:  6
 Maximum number of open shell orbitals in internal spaces: 12


 Number of core orbitals:           5 (   2   3 )
 Number of closed-shell orbitals:   9 (   6   3 )
 Number of active  orbitals:        7 (   1   6 )
 Number of external orbitals:     165 (  84  81 )

 Molecular orbitals read from record     2140.2  Type=MCSCF/NATURAL (state averaged)

 Integral transformation finished. Total CPU:   0.44 sec, npass=  1  Memory used:   2.93 MW


 Number of p-space configurations:  30

[...]
    2    2.1  1.0  1.0  15.375%  24.516%   0.001%  17.313%   0.001%  24.999%   0.000%   0.001%  16.345%   0.326%
    3    3.1  1.0  1.0   0.000%   0.001%  24.516%   0.002%  24.516%   0.000%  24.999%  24.998%   0.000%   0.000%
    4    4.1  1.0  1.0   0.000%   0.000%   0.000%   0.000%   0.000%   0.000%   0.000%   0.000%   0.000%   0.000%
    5    5.1  1.0  1.0   0.000%   0.000%   0.000%   0.000%   0.000%   0.000%   0.000%   0.000%   0.001%   0.000%
    6    6.1  1.0  1.0   0.000%   0.000%   0.000%   0.000%   0.000%   0.000%   0.000%   0.000%   0.001%   0.000%
    7    1.1  1.0  0.0   0.000%   0.005%  48.995%   0.000%   0.035%   0.001%  49.995%   0.000%   0.000%   0.000%
    8    2.1  1.0  0.0   0.001%   0.000%   0.035%   0.002%  48.997%   0.000%   0.000%  49.995%   0.001%   0.000%
    9    3.1  1.0  0.0   5.399%   0.000%   0.000%  59.977%   0.003%   0.000%   0.000%   0.001%  32.690%   0.080%
   10    4.1  1.0  0.0   0.000%   0.000%   0.000%   0.000%   0.000%   0.000%   0.000%   0.000%   0.001%   0.000%
   11    5.1  1.0  0.0   0.000%   0.000%   0.000%   0.000%   0.000%   0.000%   0.000%   0.000%   0.000%   0.000%
   12    6.1  1.0  0.0   0.000%   0.000%   0.000%   0.000%   0.000%   0.000%   0.000%   0.000%   0.000%   0.000%
   13    1.1  1.0 -1.0  30.960%  24.514%   0.003%   1.730%   0.000%  24.998%   0.001%   0.000%  16.345%   0.595%
   14    2.1  1.0 -1.0  15.375%  24.516%   0.001%  17.313%   0.001%  24.999%   0.000%   0.001%  16.345%   0.326%
   15    3.1  1.0 -1.0   0.000%   0.001%  24.516%   0.002%  24.516%   0.000%  24.999%  24.998%   0.000%   0.000%
   16    4.1  1.0 -1.0   0.000%   0.000%   0.000%   0.000%   0.000%   0.000%   0.000%   0.000%   0.000%   0.000%
   17    5.1  1.0 -1.0   0.000%   0.000%   0.000%   0.000%   0.000%   0.000%   0.000%   0.000%   0.001%   0.000%
   18    6.1  1.0 -1.0   0.000%   0.000%   0.000%   0.000%   0.000%   0.000%   0.000%   0.000%   0.001%   0.000%
   19    1.1  0.0  0.0   0.000%   0.000%   0.033%   0.000%   1.890%   0.000%   0.000%   0.000%   0.000%   0.000%
   20    2.1  0.0  0.0   0.000%   0.001%   1.889%   0.000%   0.033%   0.000%   0.000%   0.000%   0.000%   0.000%
   21    3.1  0.0  0.0   0.000%   1.921%   0.001%   0.001%   0.000%   0.000%   0.000%   0.000%   0.000%   0.000%
   22    4.1  0.0  0.0   0.001%   0.001%   0.000%   1.921%   0.000%   0.000%   0.000%   0.000%   0.000%   0.016%
   23    5.1  0.0  0.0   1.921%   0.000%   0.000%   0.001%   0.000%   0.000%   0.000%   0.000%   0.000%  98.061%
   24    6.1  0.0  0.0   0.000%   0.000%   0.000%   0.000%   0.000%   0.000%   0.000%   0.000%   1.924%   0.000%
   25    1.1  2.0  2.0   0.002%   0.003%   0.000%   0.000%   0.000%   0.000%   0.000%   0.000%   0.000%   0.000%
   26    2.1  2.0  2.0   0.000%   0.000%   0.001%   0.000%   0.001%   0.000%   0.001%   0.001%   0.000%   0.000%
   27    3.1  2.0  2.0   0.000%   0.000%   0.001%   0.000%   0.001%   0.000%   0.001%   0.001%   0.000%   0.000%
   28    1.1  2.0  1.0   0.000%   0.000%   0.001%   0.000%   0.001%   0.000%   0.001%   0.001%   0.000%   0.000%
   29    2.1  2.0  1.0   0.001%   0.001%   0.000%   0.001%   0.000%   0.001%   0.000%   0.000%   0.000%   0.000%
   30    3.1  2.0  1.0   0.000%   0.001%   0.000%   0.002%   0.000%   0.001%   0.000%   0.000%   0.000%   0.000%
   31    1.1  2.0  0.0   0.000%   0.000%   0.000%   0.000%   0.000%   0.002%   0.000%   0.000%   0.000%   0.000%
   32    2.1  2.0  0.0   0.000%   0.000%   0.004%   0.000%   0.000%   0.000%   0.000%   0.000%   0.000%   0.000%
   33    3.1  2.0  0.0   0.000%   0.000%   0.000%   0.000%   0.004%   0.000%   0.000%   0.000%   0.000%   0.000%
   34    1.1  2.0 -1.0   0.000%   0.000%   0.001%   0.000%   0.001%   0.000%   0.001%   0.001%   0.000%   0.000%
   35    2.1  2.0 -1.0   0.001%   0.001%   0.000%   0.001%   0.000%   0.001%   0.000%   0.000%   0.000%   0.000%
   36    3.1  2.0 -1.0   0.000%   0.001%   0.000%   0.002%   0.000%   0.001%   0.000%   0.000%   0.000%   0.000%
   37    1.1  2.0 -2.0   0.002%   0.003%   0.000%   0.000%   0.000%   0.000%   0.000%   0.000%   0.000%   0.000%
   38    2.1  2.0 -2.0   0.000%   0.000%   0.001%   0.000%   0.001%   0.000%   0.001%   0.001%   0.000%   0.000%
   39    3.1  2.0 -2.0   0.000%   0.000%   0.001%   0.000%   0.001%   0.000%   0.001%   0.001%   0.000%   0.000%

   Nr   State  S   Sz      11       12       13       14       15       16       17       18       19       20

    1    1.1  1.0  1.0   0.046%   0.000%   0.480%   0.000%   0.321%   0.001%   0.000%   0.000%   0.002%   0.002%
    2    2.1  1.0  1.0   0.315%   0.000%   0.480%   0.000%   0.321%   0.001%   0.000%   0.000%   0.002%   0.002%
    3    3.1  1.0  1.0   0.000%   0.480%   0.000%   0.481%   0.000%   0.000%   0.001%   0.001%   0.000%   0.000%
    4    4.1  1.0  1.0   0.000%   0.000%   0.000%   0.000%   0.000%   0.000%   0.247%   0.247%   0.000%   0.000%
    5    5.1  1.0  1.0   0.000%   0.000%   0.000%   0.000%   0.000%   0.254%   0.000%   0.000%   0.455%   0.453%
    6    6.1  1.0  1.0   0.000%   0.000%   0.000%   0.000%   0.000%   0.254%   0.000%   0.000%   0.450%   0.453%
    7    1.1  1.0  0.0   0.000%   0.938%   0.000%   0.023%   0.000%   0.000%   0.000%   0.002%   0.000%   0.000%
    8    2.1  1.0  0.0   0.000%   0.023%   0.000%   0.938%   0.000%   0.000%   0.002%   0.000%   0.000%   0.000%
    9    3.1  1.0  0.0   1.201%   0.000%   0.000%   0.000%   0.642%   0.000%   0.000%   0.000%   0.000%   0.000%
   10    4.1  1.0  0.0   0.000%   0.000%   0.000%   0.000%   0.000%   0.000%   0.000%   0.000%   0.000%   0.000%
   11    5.1  1.0  0.0   0.000%   0.000%   0.000%   0.000%   0.000%   0.000%   0.514%   0.000%   0.000%   0.000%
   12    6.1  1.0  0.0   0.000%   0.000%   0.000%   0.000%   0.000%   0.000%   0.000%   0.514%   0.000%   0.000%
   13    1.1  1.0 -1.0   0.046%   0.000%   0.480%   0.000%   0.321%   0.001%   0.000%   0.000%   0.002%   0.002%
   14    2.1  1.0 -1.0   0.315%   0.000%   0.480%   0.000%   0.321%   0.001%   0.000%   0.000%   0.002%   0.002%
   15    3.1  1.0 -1.0   0.000%   0.480%   0.000%   0.481%   0.000%   0.000%   0.001%   0.001%   0.000%   0.000%
   16    4.1  1.0 -1.0   0.000%   0.000%   0.000%   0.000%   0.000%   0.000%   0.247%   0.247%   0.000%   0.000%
   17    5.1  1.0 -1.0   0.000%   0.000%   0.000%   0.000%   0.000%   0.254%   0.000%   0.000%   0.455%   0.453%
   18    6.1  1.0 -1.0   0.000%   0.000%   0.000%   0.000%   0.000%   0.254%   0.000%   0.000%   0.450%   0.453%
   19    1.1  0.0  0.0   0.000%   0.000%   0.000%  98.077%   0.000%   0.000%   0.000%   0.000%   0.000%   0.000%
   20    2.1  0.0  0.0   0.000%  98.077%   0.000%   0.000%   0.000%   0.000%   0.000%   0.000%   0.000%   0.000%
   21    3.1  0.0  0.0   0.000%   0.000%  98.077%   0.000%   0.000%   0.000%   0.000%   0.000%   0.000%   0.000%
   22    4.1  0.0  0.0  98.061%   0.000%   0.000%   0.000%   0.000%   0.000%   0.000%   0.000%   0.000%   0.000%
   23    5.1  0.0  0.0   0.016%   0.000%   0.000%   0.000%   0.000%   0.000%   0.000%   0.000%   0.000%   0.000%
   24    6.1  0.0  0.0   0.000%   0.000%   0.000%   0.000%  98.075%   0.000%   0.000%   0.000%   0.000%   0.000%
   25    1.1  2.0  2.0   0.000%   0.000%   0.000%   0.000%   0.000%   0.000%   0.000%   0.000%  32.727%  32.728%
   26    2.1  2.0  2.0   0.000%   0.000%   0.000%   0.000%   0.000%   0.000%  14.748%  14.756%   0.000%   0.000%
   27    3.1  2.0  2.0   0.000%   0.000%   0.000%   0.000%   0.000%   0.000%  14.739%  14.748%   0.000%   0.000%
   28    1.1  2.0  1.0   0.000%   0.000%   0.000%   0.000%   0.000%   0.000%  14.951%  14.947%   0.000%   0.000%
   29    2.1  2.0  1.0   0.000%   0.000%   0.000%   0.000%   0.000%  14.838%   0.000%   0.000%   8.045%   8.186%
   30    3.1  2.0  1.0   0.000%   0.000%   0.000%   0.000%   0.000%  14.855%   0.000%   0.000%   8.317%   8.175%
   31    1.1  2.0  0.0   0.000%   0.000%   0.000%   0.000%   0.000%  39.593%   0.000%   0.000%   0.000%   0.000%
   32    2.1  2.0  0.0   0.000%   0.000%   0.000%   0.000%   0.000%   0.000%   0.001%  10.086%   0.000%   0.000%
   33    3.1  2.0  0.0   0.000%   0.000%   0.000%   0.000%   0.000%   0.000%  10.112%   0.001%   0.000%   0.000%
   34    1.1  2.0 -1.0   0.000%   0.000%   0.000%   0.000%   0.000%   0.000%  14.951%  14.947%   0.000%   0.000%
   35    2.1  2.0 -1.0   0.000%   0.000%   0.000%   0.000%   0.000%  14.838%   0.000%   0.000%   8.045%   8.186%
   36    3.1  2.0 -1.0   0.000%   0.000%   0.000%   0.000%   0.000%  14.855%   0.000%   0.000%   8.317%   8.175%
   37    1.1  2.0 -2.0   0.000%   0.000%   0.000%   0.000%   0.000%   0.000%   0.000%   0.000%  32.727%  32.728%
   38    2.1  2.0 -2.0   0.000%   0.000%   0.000%   0.000%   0.000%   0.000%  14.748%  14.756%   0.000%   0.000%
   39    3.1  2.0 -2.0   0.000%   0.000%   0.000%   0.000%   0.000%   0.000%  14.739%  14.748%   0.000%   0.000%

   Nr   State  S   Sz      21       22       23       24       25       26       27       28       29       30

    1    1.1  1.0  1.0   0.000%   0.000%   0.001%   0.000%   0.000%   0.000%   0.000%   0.000%   0.000%   0.000%
    2    2.1  1.0  1.0   0.000%   0.000%   0.001%   0.000%   0.000%   0.000%   0.000%   0.000%   0.000%   0.000%
    3    3.1  1.0  1.0   0.002%   0.002%   0.000%   0.000%   0.000%   0.000%   0.000%   0.000%   0.000%   0.000%
    4    4.1  1.0  1.0   0.448%   0.448%   0.000%   0.000%   0.000%   0.000%   0.000%   0.000%   0.000%   0.000%
    5    5.1  1.0  1.0   0.000%   0.000%   0.149%   0.000%   0.000%   0.000%   0.000%   0.000%   0.000%   0.000%
    6    6.1  1.0  1.0   0.000%   0.000%   0.153%   0.000%   0.000%   0.000%   0.000%   0.000%   0.000%   0.000%
    7    1.1  1.0  0.0   0.000%   0.004%   0.000%   0.000%   0.000%   0.000%   0.000%   0.000%   0.000%   0.000%
    8    2.1  1.0  0.0   0.004%   0.000%   0.000%   0.000%   0.000%   0.000%   0.000%   0.000%   0.000%   0.000%
    9    3.1  1.0  0.0   0.000%   0.000%   0.006%   0.000%   0.000%   0.000%   0.000%   0.000%   0.000%   0.000%
   10    4.1  1.0  0.0   0.000%   0.000%   1.186%   0.000%   0.000%   0.000%   0.000%   0.000%   0.000%   0.000%
   11    5.1  1.0  0.0   0.893%   0.007%   0.000%   0.000%   0.000%   0.000%   0.000%   0.000%   0.000%   0.000%
   12    6.1  1.0  0.0   0.007%   0.892%   0.000%   0.000%   0.000%   0.000%   0.000%   0.000%   0.000%   0.000%
   13    1.1  1.0 -1.0   0.000%   0.000%   0.001%   0.000%   0.000%   0.000%   0.000%   0.000%   0.000%   0.000%
   14    2.1  1.0 -1.0   0.000%   0.000%   0.001%   0.000%   0.000%   0.000%   0.000%   0.000%   0.000%   0.000%
   15    3.1  1.0 -1.0   0.002%   0.002%   0.000%   0.000%   0.000%   0.000%   0.000%   0.000%   0.000%   0.000%
   16    4.1  1.0 -1.0   0.448%   0.448%   0.000%   0.000%   0.000%   0.000%   0.000%   0.000%   0.000%   0.000%
   17    5.1  1.0 -1.0   0.000%   0.000%   0.149%   0.000%   0.000%   0.000%   0.000%   0.000%   0.000%   0.000%
   18    6.1  1.0 -1.0   0.000%   0.000%   0.153%   0.000%   0.000%   0.000%   0.000%   0.000%   0.000%   0.000%
   19    1.1  0.0  0.0   0.000%   0.000%   0.000%   0.000%   0.000%   0.000%   0.000%   0.000%   0.000%   0.000%
   20    2.1  0.0  0.0   0.000%   0.000%   0.000%   0.000%   0.000%   0.000%   0.000%   0.000%   0.000%   0.000%
   21    3.1  0.0  0.0   0.000%   0.000%   0.000%   0.000%   0.000%   0.000%   0.000%   0.000%   0.000%   0.000%
   22    4.1  0.0  0.0   0.000%   0.000%   0.000%   0.000%   0.000%   0.000%   0.000%   0.000%   0.000%   0.000%
   23    5.1  0.0  0.0   0.000%   0.000%   0.000%   0.000%   0.000%   0.000%   0.000%   0.000%   0.000%   0.000%
   24    6.1  0.0  0.0   0.000%   0.000%   0.000%   0.000%   0.000%   0.000%   0.000%   0.000%   0.000%   0.000%
   25    1.1  2.0  2.0   0.000%   0.000%   0.001%   0.147%   0.000%   0.000%  16.665%  16.518%   0.000%   0.000%
   26    2.1  2.0  2.0   8.297%   8.287%   0.000%   0.000%   1.893%   2.085%   0.000%   0.000%  24.759%  24.572%
   27    3.1  2.0  2.0   8.285%   8.275%   0.000%   0.000%   1.455%   1.291%   0.000%   0.000%  25.221%  25.390%
   28    1.1  2.0  1.0   8.075%   8.087%   0.000%   0.000%  26.654%  26.644%   0.000%   0.000%   0.008%   0.025%
   29    2.1  2.0  1.0   0.000%   0.000%  24.690%  12.481%   0.000%   0.000%  16.662%  14.192%   0.000%   0.000%
   30    3.1  2.0  1.0   0.001%   0.000%  24.409%   7.639%   0.000%   0.000%  16.673%  19.024%   0.000%   0.000%
   31    1.1  2.0  0.0   0.000%   0.000%   0.000%  59.466%   0.000%   0.000%   0.000%   0.532%   0.000%   0.000%
   32    2.1  2.0  0.0   0.284%  48.613%   0.000%   0.000%  39.997%   0.000%   0.000%   0.000%   0.011%   0.000%
   33    3.1  2.0  0.0  48.596%   0.284%   0.001%   0.000%   0.000%  39.959%   0.000%   0.000%   0.000%   0.037%
   34    1.1  2.0 -1.0   8.075%   8.087%   0.000%   0.000%  26.654%  26.644%   0.000%   0.000%   0.008%   0.025%
   35    2.1  2.0 -1.0   0.000%   0.000%  24.690%  12.481%   0.000%   0.000%  16.662%  14.192%   0.000%   0.000%
   36    3.1  2.0 -1.0   0.001%   0.000%  24.409%   7.639%   0.000%   0.000%  16.673%  19.024%   0.000%   0.000%
   37    1.1  2.0 -2.0   0.000%   0.000%   0.001%   0.147%   0.000%   0.000%  16.665%  16.518%   0.000%   0.000%
   38    2.1  2.0 -2.0   8.297%   8.287%   0.000%   0.000%   1.893%   2.085%   0.000%   0.000%  24.766%  24.566%
   39    3.1  2.0 -2.0   8.285%   8.275%   0.000%   0.000%   1.455%   1.291%   0.000%   0.000%  25.227%  25.383%

   Nr   State  S   Sz      31       32       33       34       35       36       37       38       39

    1    1.1  1.0  1.0   0.001%   0.000%   0.000%   0.000%   0.000%   0.000%   0.000%   0.000%   0.000%
    2    2.1  1.0  1.0   0.001%   0.000%   0.000%   0.000%   0.000%   0.000%   0.000%   0.000%   0.000%
    3    3.1  1.0  1.0   0.000%   0.000%   0.000%   0.000%   0.000%   0.000%   0.000%   0.000%   0.000%
    4    4.1  1.0  1.0   0.007%  25.073%  25.075%   0.006%   0.001%  24.216%  24.215%   0.007%   0.007%
    5    5.1  1.0  1.0  16.601%   0.011%   0.006%  24.758%   9.187%   0.004%   0.007%  24.521%  23.592%
    6    6.1  1.0  1.0  16.600%   0.000%   0.001%  24.726%   7.334%   0.000%   0.001%  24.566%  25.460%
    7    1.1  1.0  0.0   0.000%   0.000%   0.001%   0.000%   0.000%   0.000%   0.000%   0.000%   0.000%
    8    2.1  1.0  0.0   0.000%   0.001%   0.000%   0.000%   0.000%   0.000%   0.000%   0.000%   0.000%
    9    3.1  1.0  0.0   0.001%   0.000%   0.000%   0.000%   0.000%   0.000%   0.000%   0.000%   0.000%
   10    4.1  1.0  0.0  33.563%   0.022%   0.000%   0.000%  65.148%   0.009%   0.001%   0.000%   0.069%
   11    5.1  1.0  0.0   0.015%  48.764%   0.037%   0.000%   0.014%  49.748%   0.006%   0.000%   0.001%
   12    6.1  1.0  0.0   0.000%   0.037%  48.789%   0.001%   0.001%   0.006%  49.751%   0.001%   0.000%
   13    1.1  1.0 -1.0   0.001%   0.000%   0.000%   0.000%   0.000%   0.000%   0.000%   0.000%   0.000%
   14    2.1  1.0 -1.0   0.001%   0.000%   0.000%   0.000%   0.000%   0.000%   0.000%   0.000%   0.000%
   15    3.1  1.0 -1.0   0.000%   0.000%   0.000%   0.000%   0.000%   0.000%   0.000%   0.000%   0.000%
   16    4.1  1.0 -1.0   0.007%  25.073%  25.075%   0.006%   0.001%  24.216%  24.215%   0.007%   0.007%
   17    5.1  1.0 -1.0  16.601%   0.011%   0.006%  24.758%   9.187%   0.004%   0.007%  24.521%  23.592%
   18    6.1  1.0 -1.0  16.600%   0.000%   0.001%  24.726%   7.334%   0.000%   0.001%  24.566%  25.460%
   19    1.1  0.0  0.0   0.000%   0.000%   0.000%   0.000%   0.000%   0.000%   0.000%   0.000%   0.000%
   20    2.1  0.0  0.0   0.000%   0.000%   0.000%   0.000%   0.000%   0.000%   0.000%   0.000%   0.000%
   21    3.1  0.0  0.0   0.000%   0.000%   0.000%   0.000%   0.000%   0.000%   0.000%   0.000%   0.000%
   22    4.1  0.0  0.0   0.000%   0.000%   0.000%   0.000%   0.000%   0.000%   0.000%   0.000%   0.000%
   23    5.1  0.0  0.0   0.000%   0.000%   0.000%   0.000%   0.000%   0.000%   0.000%   0.000%   0.000%
   24    6.1  0.0  0.0   0.001%   0.000%   0.000%   0.000%   0.000%   0.000%   0.000%   0.000%   0.000%
   25    1.1  2.0  2.0   0.000%   0.000%   0.000%   0.000%   0.001%   0.000%   0.000%   0.604%   0.603%
   26    2.1  2.0  2.0   0.000%   0.152%   0.152%   0.000%   0.000%   0.147%   0.147%   0.000%   0.000%
   27    3.1  2.0  2.0   0.000%   0.151%   0.151%   0.000%   0.000%   0.146%   0.146%   0.000%   0.000%
   28    1.1  2.0  1.0   0.000%   0.150%   0.150%   0.000%   0.000%   0.153%   0.153%   0.000%   0.000%
   29    2.1  2.0  1.0   0.000%   0.000%   0.000%   0.152%   0.431%   0.000%   0.000%   0.151%   0.168%
   30    3.1  2.0  1.0   0.000%   0.000%   0.000%   0.153%   0.464%   0.000%   0.000%   0.151%   0.135%
   31    1.1  2.0  0.0   0.000%   0.000%   0.000%   0.406%   0.000%   0.000%   0.000%   0.000%   0.000%
   32    2.1  2.0  0.0   0.000%   0.000%   0.099%   0.000%   0.000%   0.000%   0.904%   0.000%   0.000%
   33    3.1  2.0  0.0   0.000%   0.100%   0.000%   0.000%   0.000%   0.904%   0.000%   0.000%   0.000%
   34    1.1  2.0 -1.0   0.000%   0.150%   0.150%   0.000%   0.000%   0.153%   0.153%   0.000%   0.000%
   35    2.1  2.0 -1.0   0.000%   0.000%   0.000%   0.152%   0.431%   0.000%   0.000%   0.151%   0.168%
   36    3.1  2.0 -1.0   0.000%   0.000%   0.000%   0.153%   0.464%   0.000%   0.000%   0.151%   0.135%
   37    1.1  2.0 -2.0   0.000%   0.000%   0.000%   0.000%   0.001%   0.000%   0.000%   0.604%   0.603%
   38    2.1  2.0 -2.0   0.000%   0.152%   0.152%   0.000%   0.000%   0.147%   0.147%   0.000%   0.000%
   39    3.1  2.0 -2.0   0.000%   0.151%   0.151%   0.000%   0.000%   0.146%   0.146%   0.000%   0.000%


 Property matrices transformed in SO basis (not sym. adapted)
 ============================================================

 No matrix element <i|DMX|i> larger than 5E-7
 No matrix element <i|DMX|1> larger than 5E-7

 No matrix element <i|DMY|i> larger than 5E-7
 No matrix element <i|DMY|1> larger than 5E-7

 No matrix element <i|DMZ|i> larger than 5E-7
 No matrix element <i|DMZ|1> larger than 5E-7


 **********************************************************************************************************************************
 DATASETS  * FILE   NREC   LENGTH (MB)   RECORD NAMES
              1      24     1482.29       500      610      700      900      950      970     1000      129      960     1700   
                                          VAR    BASINP    GEOM    SYMINP    ZMAT    AOBASIS   BASIS     P2S    ABASIS    OPER   
                                         1101     1401     1411     1412     1650     1100     1400     1410     1200     1210   
                                          SR      EKINR    POTR     PVPR    MOLCAS      S      EKIN      POT      H0       H01  
                                         1080     1600     1380     1700(1)
                                         AOSYM     SMH     JKOP     OPER   

              2       8     2080.29       700     1000      520     2100     2140     5302     5102     5502   
                                         GEOM     BASIS   MCVARS     RHF     MCSCF    MRCI     MRCI     MRCI   

 PROGRAMS   *        TOTAL        CI     LSINT        CI        CI        CI     MULTI   RHF-SCF       INT
 CPU TIMES  *     47454.40  41608.78     26.01    362.11   1610.85   3835.84      6.98      0.31      3.22
 REAL TIME  *     48101.41 SEC
 DISK USED  *         2.11 GB (local),       38.59 GB (total)
 SF USED    *        10.90 GB
 GA USED    *         0.00 MB       (max)       0.00 MB       (current)
 **********************************************************************************************************************************

 CI/USERDEF energy=  -2428.882862701122

              CI              CI              CI           MULTI         RHF-SCF
  -2428.83723283  -2428.99868592  -2428.82816027  -2427.92285800  -2427.84912635
 **********************************************************************************************************************************
 Molpro calculation terminated with 1 warning(s)
