
 Working directory              : /wrk/irikura/molpro.R3vopBA1I8/
 Global scratch directory       : /wrk/irikura/molpro.R3vopBA1I8/
 Wavefunction directory         : /home/irikura/wfu/
 Main file repository           : /wrk/irikura/molpro.R3vopBA1I8/

 id        : nistki

 Nodes            nprocs
 pn112695.nist.gov   12
 GA implementation: MPI file
 GA implementation (serial work in mppx): MPI file

 Using customized tuning parameters: mindgm=1; mindgv=20; mindgc=4; mindgr=1; noblas=0; minvec=7
 default implementation of scratch files=sf  


 Variables initialized (1040), CPU time= 0.02 sec
 ***,Se SO-CI
 memory,1500,M;
 
 gprint,orbitals,civector,basis;
 
 symmetry,xyz
 geometry={Se};
 
                                                                                 !basis=AWCVTZ-X2C
 basis={
 spdfg,se,AWCVTZ-X2C;C; spdf,1,even,nprim=1,ratio=3.0;
 }
 
 set,dkho=101
 
 NT=6
 NS=6
 NQ=3
 PAR=1                                                                           ! parity even (1) or odd (2)
 
 {rhf;wf,charge=1,sym=2,spin=3}
 
 {multi
     closed,8,6
     occ,9,12
     wf,charge=0,sym=PAR,spin=2;state,NT;
     wf,charge=0,sym=PAR,spin=0;state,NS;
     wf,charge=0,sym=PAR,spin=4;state,NQ;
     expec2,lxx,lyy,lzz;
 }
 table, energy, ll
 title, Energies and &lt;L**2&gt; values
 
 core,2,3
 
 {ci;wf,sym=PAR,spin=2;state,NT; save,5302.2}
 hlsdiag = energd4
 {ci;wf,sym=PAR,spin=0;state,NS; save,5102.2}
 hlsdiag(NT+1) = energd4
 {ci;wf,sym=PAR,spin=4;state,NQ; save,5502.2}
 hlsdiag(NT+NS+1) = energd4
 
 table,hlsdiag
 
 lsint
 {ci;hlsmat,ls,5302.2,5102.2,5502.2;print,vls=0,hls=0}                           !compute and diagonalize SO matrix
 Commands initialized (846), CPU time= 0.02 sec, 717 directives.
 Default parameters read. Elapsed time= 0.20 sec

 Checking input...
 Passed
1


                                         ***  PROGRAM SYSTEM MOLPRO  ***
                                       Copyright, TTI GmbH Stuttgart, 2015
                                    Version 2023.2 linked Fri Sep 22 03:27:09 2023


 **********************************************************************************************************************************
 LABEL *   Se SO-CI                                                                                                                                                      
  (32 PROC) 64 bit mpp version                                                           DATE: 06-Sep-24          TIME: 12:09:35  
 **********************************************************************************************************************************

 SHA1:             3c61bfe44d37c8635c785372c339f5cbdd4e4b59
 **********************************************************************************************************************************

 Memory per process:      1500 MW
 Total memory per node:  18000 MW

 GA preallocation disabled
 GA check disabled

 Variable memory set to 1500.0 MW


 ZSYMEL=XYZ

 SETTING BASIS          =    USERDEF
 SETTING DKHO           =       101.00000000                                  
 SETTING NT             =         6.00000000                                  
 SETTING NS             =         6.00000000                                  
 SETTING NQ             =         3.00000000                                  
 SETTING PAR            =         1.00000000                                  


 Recomputing integrals since basis changed


 Using spherical harmonics

 Library entry SE     S AWCVTZ-X2C           selected for orbital group  1
 Even tempered Se S diffuse               selected for group 1    nprim= 1    centre=  0.013    ratio= 3.000    dratio= 1.000
 Library entry SE     P AWCVTZ-X2C           selected for orbital group  1
 Even tempered Se P diffuse               selected for group 1    nprim= 1    centre=  0.010    ratio= 3.000    dratio= 1.000
 Library entry SE     D AWCVTZ-X2C           selected for orbital group  1
 Even tempered Se D diffuse               selected for group 1    nprim= 1    centre=  0.028    ratio= 3.000    dratio= 1.000
 Library entry SE     F AWCVTZ-X2C           selected for orbital group  1
 Even tempered Se F diffuse               selected for group 1    nprim= 1    centre=  0.063    ratio= 3.000    dratio= 1.000
 Library entry SE     G AWCVTZ-X2C           selected for orbital group  1


 PROGRAM * SEWARD (Integral evaluation for generally contracted gaussian basis sets)     Author: Roland Lindh, 1990

 Geometry written to block  1 of record 700

 Orientation using atomic masses  
 Molecule type: Atom
 User-specified symmetry elements: XYZ
 Symmetry elements: XYZ
 Rotational constants:       0.0000000      0.0000000      0.0000000 GHz  (calculated with average atomic masses)

 Point group  Ci  



 ATOMIC COORDINATES

 NR  ATOM    CHARGE       X              Y              Z

   1  SE     34.00    0.000000000    0.000000000    0.000000000


 BASIS DATA

   Nr Sym  Nuc  Type         Exponents   Contraction coefficients

    1.1 Ag    1  1s     9563600.000000     0.000159   -0.000051    0.000020   -0.000006    0.000000    0.000000
    2.1 Ag              1432100.000000     0.000429   -0.000139    0.000055   -0.000016    0.000000    0.000000
    3.1 Ag               325910.000000     0.001148   -0.000372    0.000147   -0.000043    0.000000    0.000000
    4.1 Ag                92312.000000     0.002903   -0.000942    0.000373   -0.000109    0.000000    0.000000
    5.1 Ag                30116.000000     0.007344   -0.002399    0.000950   -0.000279    0.000000    0.000000
    6.1 Ag                10872.000000     0.018393   -0.006057    0.002398   -0.000704    0.000000    0.000000
                           4240.100000     0.044997   -0.015170    0.006030   -0.001769    0.000000    0.000000
                           1758.400000     0.103527   -0.036260    0.014467   -0.004257    0.000000    0.000000
                            766.590000     0.208801   -0.080419    0.032547   -0.009567    0.000000    0.000000
                            348.430000     0.325713   -0.148693    0.061469   -0.018213    0.000000    0.000000
                            164.030000     0.312194   -0.198637    0.086551   -0.025636    0.000000    0.000000
                             79.142000     0.127556   -0.056097    0.024766   -0.007726    0.000000    0.000000
                             35.524000     0.010856    0.406897   -0.241840    0.076382    0.000000    0.000000
                             17.305000    -0.000316    0.569830   -0.507087    0.166520    0.000000    0.000000
                              8.378400     0.000151    0.181145   -0.070368    0.023148    0.000000    0.000000
                              3.740500    -0.000112    0.008208    0.712523   -0.317879    0.000000    0.000000
                              1.689000     0.000019    0.001375    0.524238   -0.410614    0.000000    0.000000
                              0.509270    -0.000011   -0.000268    0.034366    0.301317    1.000000    0.000000
                              0.255200     0.000008    0.000150   -0.009087    0.658712    0.000000    0.000000
                              0.106510    -0.000002   -0.000047    0.001909    0.278478    0.000000    1.000000
    7.1 Ag    1  1s           2.686400     1.000000
    8.1 Ag    1  1s           4.288800     1.000000
    9.1 Ag    1  1s           0.039201     1.000000
   10.1 Ag    1  1s           0.013067     1.000000
   11.1 Ag    1  3d0        361.850000     0.001708
                            108.550000     0.013624
                             41.433000     0.060307
                             17.579000     0.173271
                              7.862700     0.318215
                              3.518000     0.379882
                              1.534800     0.277302
                              0.608130     0.079195
                              0.222000     0.002306
   12.1 Ag    1  3d2-       361.850000     0.001708
                            108.550000     0.013624
                             41.433000     0.060307
                             17.579000     0.173271
                              7.862700     0.318215
                              3.518000     0.379882
                              1.534800     0.277302
                              0.608130     0.079195
                              0.222000     0.002306
   13.1 Ag    1  3d1+       361.850000     0.001708
                            108.550000     0.013624
                             41.433000     0.060307
                             17.579000     0.173271
                              7.862700     0.318215
                              3.518000     0.379882
                              1.534800     0.277302
                              0.608130     0.079195
                              0.222000     0.002306
   14.1 Ag    1  3d2+       361.850000     0.001708
                            108.550000     0.013624
                             41.433000     0.060307
                             17.579000     0.173271
                              7.862700     0.318215
                              3.518000     0.379882
                              1.534800     0.277302
                              0.608130     0.079195
                              0.222000     0.002306
   15.1 Ag    1  3d1-       361.850000     0.001708
                            108.550000     0.013624
                             41.433000     0.060307
                             17.579000     0.173271
                              7.862700     0.318215
                              3.518000     0.379882
                              1.534800     0.277302
                              0.608130     0.079195
                              0.222000     0.002306
   16.1 Ag    1  3d0        361.850000     0.000000
                            108.550000     0.000000
                             41.433000     0.000000
                             17.579000     0.000000
                              7.862700     0.000000
                              3.518000     0.000000
                              1.534800     0.000000
                              0.608130     1.000000
                              0.222000     0.000000
   17.1 Ag    1  3d2-       361.850000     0.000000
                            108.550000     0.000000
                             41.433000     0.000000
                             17.579000     0.000000
                              7.862700     0.000000
                              3.518000     0.000000
                              1.534800     0.000000
                              0.608130     1.000000
                              0.222000     0.000000
   18.1 Ag    1  3d1+       361.850000     0.000000
                            108.550000     0.000000
                             41.433000     0.000000
                             17.579000     0.000000
                              7.862700     0.000000
                              3.518000     0.000000
                              1.534800     0.000000
                              0.608130     1.000000
                              0.222000     0.000000
   19.1 Ag    1  3d2+       361.850000     0.000000
                            108.550000     0.000000
                             41.433000     0.000000
                             17.579000     0.000000
                              7.862700     0.000000
                              3.518000     0.000000
                              1.534800     0.000000
                              0.608130     1.000000
                              0.222000     0.000000
   20.1 Ag    1  3d1-       361.850000     0.000000
                            108.550000     0.000000
                             41.433000     0.000000
                             17.579000     0.000000
                              7.862700     0.000000
                              3.518000     0.000000
                              1.534800     0.000000
                              0.608130     1.000000
                              0.222000     0.000000
   21.1 Ag    1  3d0        361.850000     0.000000
                            108.550000     0.000000
                             41.433000     0.000000
                             17.579000     0.000000
                              7.862700     0.000000
                              3.518000     0.000000
                              1.534800     0.000000
                              0.608130     0.000000
                              0.222000     1.000000
   22.1 Ag    1  3d2-       361.850000     0.000000
                            108.550000     0.000000
                             41.433000     0.000000
                             17.579000     0.000000
                              7.862700     0.000000
                              3.518000     0.000000
                              1.534800     0.000000
                              0.608130     0.000000
                              0.222000     1.000000
   23.1 Ag    1  3d1+       361.850000     0.000000
                            108.550000     0.000000
                             41.433000     0.000000
                             17.579000     0.000000
                              7.862700     0.000000
                              3.518000     0.000000
                              1.534800     0.000000
                              0.608130     0.000000
                              0.222000     1.000000
   24.1 Ag    1  3d2+       361.850000     0.000000
                            108.550000     0.000000
                             41.433000     0.000000
                             17.579000     0.000000
                              7.862700     0.000000
                              3.518000     0.000000
                              1.534800     0.000000
                              0.608130     0.000000
                              0.222000     1.000000
   25.1 Ag    1  3d1-       361.850000     0.000000
                            108.550000     0.000000
                             41.433000     0.000000
                             17.579000     0.000000
                              7.862700     0.000000
                              3.518000     0.000000
                              1.534800     0.000000
                              0.608130     0.000000
                              0.222000     1.000000
   26.1 Ag    1  3d0          1.693100     1.000000
   27.1 Ag    1  3d2-         1.693100     1.000000
   28.1 Ag    1  3d1+         1.693100     1.000000
   29.1 Ag    1  3d2+         1.693100     1.000000
   30.1 Ag    1  3d1-         1.693100     1.000000
   31.1 Ag    1  3d0          4.454400     1.000000
   32.1 Ag    1  3d2-         4.454400     1.000000
   33.1 Ag    1  3d1+         4.454400     1.000000
   34.1 Ag    1  3d2+         4.454400     1.000000
   35.1 Ag    1  3d1-         4.454400     1.000000
   36.1 Ag    1  3d0          0.083700     1.000000
   37.1 Ag    1  3d2-         0.083700     1.000000
   38.1 Ag    1  3d1+         0.083700     1.000000
   39.1 Ag    1  3d2+         0.083700     1.000000
   40.1 Ag    1  3d1-         0.083700     1.000000
   41.1 Ag    1  3d0          0.027900     1.000000
   42.1 Ag    1  3d2-         0.027900     1.000000
   43.1 Ag    1  3d1+         0.027900     1.000000
   44.1 Ag    1  3d2+         0.027900     1.000000
   45.1 Ag    1  3d1-         0.027900     1.000000
   46.1 Ag    1  5g0          2.195200     1.000000
   47.1 Ag    1  5g2-         2.195200     1.000000
   48.1 Ag    1  5g1+         2.195200     1.000000
   49.1 Ag    1  5g4+         2.195200     1.000000
   50.1 Ag    1  5g1-         2.195200     1.000000
   51.1 Ag    1  5g2+         2.195200     1.000000
   52.1 Ag    1  5g4-         2.195200     1.000000
   53.1 Ag    1  5g3+         2.195200     1.000000
   54.1 Ag    1  5g3-         2.195200     1.000000
    1.2 Au    1  2px       8004.300000     0.000918
                           1896.900000     0.005104
                            614.710000     0.023877
                            233.500000     0.085882
                             97.856000     0.226523
                             43.514000     0.390772
                             20.063000     0.350322
                              9.112700     0.104018
                              4.106300     0.003584
                              1.794900     0.001723
                              0.624320    -0.000423
                              0.246150     0.000207
                              0.088917    -0.000068
    2.2 Au    1  2py       8004.300000     0.000918
                           1896.900000     0.005104
                            614.710000     0.023877
                            233.500000     0.085882
                             97.856000     0.226523
                             43.514000     0.390772
                             20.063000     0.350322
                              9.112700     0.104018
                              4.106300     0.003584
                              1.794900     0.001723
                              0.624320    -0.000423
                              0.246150     0.000207
                              0.088917    -0.000068
    3.2 Au    1  2pz       8004.300000     0.000918
                           1896.900000     0.005104
                            614.710000     0.023877
                            233.500000     0.085882
                             97.856000     0.226523
                             43.514000     0.390772
                             20.063000     0.350322
                              9.112700     0.104018
                              4.106300     0.003584
                              1.794900     0.001723
                              0.624320    -0.000423
                              0.246150     0.000207
                              0.088917    -0.000068
    4.2 Au    1  2px       8004.300000    -0.000366
                           1896.900000    -0.002048
                            614.710000    -0.009662
                            233.500000    -0.035766
                             97.856000    -0.098322
                             43.514000    -0.181762
                             20.063000    -0.144687
                              9.112700     0.203270
                              4.106300     0.542051
                              1.794900     0.376196
                              0.624320     0.042642
                              0.246150    -0.004662
                              0.088917     0.001591
    5.2 Au    1  2py       8004.300000    -0.000366
                           1896.900000    -0.002048
                            614.710000    -0.009662
                            233.500000    -0.035766
                             97.856000    -0.098322
                             43.514000    -0.181762
                             20.063000    -0.144687
                              9.112700     0.203270
                              4.106300     0.542051
                              1.794900     0.376196
                              0.624320     0.042642
                              0.246150    -0.004662
                              0.088917     0.001591
    6.2 Au    1  2pz       8004.300000    -0.000366
                           1896.900000    -0.002048
                            614.710000    -0.009662
                            233.500000    -0.035766
                             97.856000    -0.098322
                             43.514000    -0.181762
                             20.063000    -0.144687
                              9.112700     0.203270
                              4.106300     0.542051
                              1.794900     0.376196
                              0.624320     0.042642
                              0.246150    -0.004662
                              0.088917     0.001591
    7.2 Au    1  2px       8004.300000     0.000088
                           1896.900000     0.000496
                            614.710000     0.002331
                            233.500000     0.008703
                             97.856000     0.023901
                             43.514000     0.045026
                             20.063000     0.034063
                              9.112700    -0.060831
                              4.106300    -0.171599
                              1.794900    -0.124361
                              0.624320     0.269402
                              0.246150     0.574345
                              0.088917     0.326319
    8.2 Au    1  2py       8004.300000     0.000088
                           1896.900000     0.000496
                            614.710000     0.002331
                            233.500000     0.008703
                             97.856000     0.023901
                             43.514000     0.045026
                             20.063000     0.034063
                              9.112700    -0.060831
                              4.106300    -0.171599
                              1.794900    -0.124361
                              0.624320     0.269402
                              0.246150     0.574345
                              0.088917     0.326319
    9.2 Au    1  2pz       8004.300000     0.000088
                           1896.900000     0.000496
                            614.710000     0.002331
                            233.500000     0.008703
                             97.856000     0.023901
                             43.514000     0.045026
                             20.063000     0.034063
                              9.112700    -0.060831
                              4.106300    -0.171599
                              1.794900    -0.124361
                              0.624320     0.269402
                              0.246150     0.574345
                              0.088917     0.326319
   10.2 Au    1  2px       8004.300000     0.000000
                           1896.900000     0.000000
                            614.710000     0.000000
                            233.500000     0.000000
                             97.856000     0.000000
                             43.514000     0.000000
                             20.063000     0.000000
                              9.112700     0.000000
                              4.106300     0.000000
                              1.794900     0.000000
                              0.624320     1.000000
                              0.246150     0.000000
                              0.088917     0.000000
   11.2 Au    1  2py       8004.300000     0.000000
                           1896.900000     0.000000
                            614.710000     0.000000
                            233.500000     0.000000
                             97.856000     0.000000
                             43.514000     0.000000
                             20.063000     0.000000
                              9.112700     0.000000
                              4.106300     0.000000
                              1.794900     0.000000
                              0.624320     1.000000
                              0.246150     0.000000
                              0.088917     0.000000
   12.2 Au    1  2pz       8004.300000     0.000000
                           1896.900000     0.000000
                            614.710000     0.000000
                            233.500000     0.000000
                             97.856000     0.000000
                             43.514000     0.000000
                             20.063000     0.000000
                              9.112700     0.000000
                              4.106300     0.000000
                              1.794900     0.000000
                              0.624320     1.000000
                              0.246150     0.000000
                              0.088917     0.000000
   13.2 Au    1  2px       8004.300000     0.000000
                           1896.900000     0.000000
                            614.710000     0.000000
                            233.500000     0.000000
                             97.856000     0.000000
                             43.514000     0.000000
                             20.063000     0.000000
                              9.112700     0.000000
                              4.106300     0.000000
                              1.794900     0.000000
                              0.624320     0.000000
                              0.246150     0.000000
                              0.088917     1.000000
   14.2 Au    1  2py       8004.300000     0.000000
                           1896.900000     0.000000
                            614.710000     0.000000
                            233.500000     0.000000
                             97.856000     0.000000
                             43.514000     0.000000
                             20.063000     0.000000
                              9.112700     0.000000
                              4.106300     0.000000
                              1.794900     0.000000
                              0.624320     0.000000
                              0.246150     0.000000
                              0.088917     1.000000
   15.2 Au    1  2pz       8004.300000     0.000000
                           1896.900000     0.000000
                            614.710000     0.000000
                            233.500000     0.000000
                             97.856000     0.000000
                             43.514000     0.000000
                             20.063000     0.000000
                              9.112700     0.000000
                              4.106300     0.000000
                              1.794900     0.000000
                              0.624320     0.000000
                              0.246150     0.000000
                              0.088917     1.000000
   16.2 Au    1  2px          1.711500     1.000000
   17.2 Au    1  2py          1.711500     1.000000
   18.2 Au    1  2pz          1.711500     1.000000
   19.2 Au    1  2px          3.777200     1.000000
   20.2 Au    1  2py          3.777200     1.000000
   21.2 Au    1  2pz          3.777200     1.000000
   22.2 Au    1  2px          0.030251     1.000000
   23.2 Au    1  2py          0.030251     1.000000
   24.2 Au    1  2pz          0.030251     1.000000
   25.2 Au    1  2px          0.010084     1.000000
   26.2 Au    1  2py          0.010084     1.000000
   27.2 Au    1  2pz          0.010084     1.000000
   28.2 Au    1  4f1+         0.462000     1.000000
   29.2 Au    1  4f1-         0.462000     1.000000
   30.2 Au    1  4f0          0.462000     1.000000
   31.2 Au    1  4f3+         0.462000     1.000000
   32.2 Au    1  4f2-         0.462000     1.000000
   33.2 Au    1  4f3-         0.462000     1.000000
   34.2 Au    1  4f2+         0.462000     1.000000
   35.2 Au    1  4f1+         1.808400     1.000000
   36.2 Au    1  4f1-         1.808400     1.000000
   37.2 Au    1  4f0          1.808400     1.000000
   38.2 Au    1  4f3+         1.808400     1.000000
   39.2 Au    1  4f2-         1.808400     1.000000
   40.2 Au    1  4f3-         1.808400     1.000000
   41.2 Au    1  4f2+         1.808400     1.000000
   42.2 Au    1  4f1+         6.755200     1.000000
   43.2 Au    1  4f1-         6.755200     1.000000
   44.2 Au    1  4f0          6.755200     1.000000
   45.2 Au    1  4f3+         6.755200     1.000000
   46.2 Au    1  4f2-         6.755200     1.000000
   47.2 Au    1  4f3-         6.755200     1.000000
   48.2 Au    1  4f2+         6.755200     1.000000
   49.2 Au    1  4f1+         0.188000     1.000000
   50.2 Au    1  4f1-         0.188000     1.000000
   51.2 Au    1  4f0          0.188000     1.000000
   52.2 Au    1  4f3+         0.188000     1.000000
   53.2 Au    1  4f2-         0.188000     1.000000
   54.2 Au    1  4f3-         0.188000     1.000000
   55.2 Au    1  4f2+         0.188000     1.000000
   56.2 Au    1  4f1+         0.062667     1.000000
   57.2 Au    1  4f1-         0.062667     1.000000
   58.2 Au    1  4f0          0.062667     1.000000
   59.2 Au    1  4f3+         0.062667     1.000000
   60.2 Au    1  4f2-         0.062667     1.000000
   61.2 Au    1  4f3-         0.062667     1.000000
   62.2 Au    1  4f2+         0.062667     1.000000

 NUCLEAR CHARGE:                   34
 NUMBER OF PRIMITIVE AOS:         218
 NUMBER OF SYMMETRY AOS:          184
 NUMBER OF CONTRACTIONS:          116   (   54Ag  +   62Au  )
 NUMBER OF INNER CORE ORBITALS:     5   (    2Ag  +    3Au  )
 NUMBER OF OUTER CORE ORBITALS:     9   (    6Ag  +    3Au  )
 NUMBER OF VALENCE ORBITALS:        4   (    1Ag  +    3Au  )


 NUCLEAR REPULSION ENERGY    0.00000000

 One-electron integrals computed with SEWARD

 eXact-2-Component (X2C) method activated

 Computing Douglas-Kroll / X2C integrals

 AO integral compression algorithm  1   Integral accuracy      1.0D-11

     27.787 MB (compressed) written to integral file ( 14.5%)

     Node minimum: 1.573 MB, node maximum: 3.670 MB


 NUMBER OF SORTED TWO-ELECTRON INTEGRALS:     971658.     BUFFER LENGTH:  32768
 NUMBER OF SEGMENTS:   1  SEGMENT LENGTH:     971658      RECORD LENGTH: 524288

 Memory used in sort:       1.53 MW

 SORT1 READ    23841670. AND WROTE      189023. INTEGRALS IN      1 RECORDS. CPU TIME:     0.13 SEC, REAL TIME:     0.13 SEC
 SORT2 READ     2334302. AND WROTE    11712051. INTEGRALS IN    108 RECORDS. CPU TIME:     0.03 SEC, REAL TIME:     0.04 SEC

 Node minimum:      971088.  Node maximum:      978696. integrals

 OPERATOR DM      FOR CENTER  0  COORDINATES:    0.000000    0.000000    0.000000

 EXTRA SYMMETRY OF AOS IN SYMMETRY 1:   1 1 1 1 1 1 1 1 1 1   2 3 4 5 6 2 3 4 5 6   2 3 4 5 6 2 3 4 5 6   2 3 4 5 6 2 3 4 5 6
                                        2 3 4 5 6 7 8 91011  12131415
 EXTRA SYMMETRY OF AOS IN SYMMETRY 2:   1 2 3 1 2 3 1 2 3 1   2 3 1 2 3 1 2 3 1 2   3 1 2 3 1 2 3 4 5 6   7 8 910 4 5 6 7 8 9
                                       10 4 5 6 7 8 910 4 5   6 7 8 910 4 5 6 7 8   910

 Eigenvalues of metric

         1 0.118E-03 0.212E-02 0.146E-01 0.437E-01 0.437E-01 0.437E-01 0.437E-01 0.437E-01
         2 0.409E-02 0.409E-02 0.409E-02 0.130E-01 0.130E-01 0.130E-01 0.701E-01 0.701E-01


 **********************************************************************************************************************************
 DATASETS  * FILE   NREC   LENGTH (MB)   RECORD NAMES
              1      22       29.21       500      610      700      900      950      970     1000      129      960     1700   
                                          VAR    BASINP    GEOM    SYMINP    ZMAT    AOBASIS   BASIS     P2S    ABASIS    OPER   
                                         1101     1401     1411     1412     1650     1100     1400     1410     1200     1210   
                                          SR      EKINR    POTR     PVPR    MOLCAS      S      EKIN      POT      H0       H01  
                                         1080     1600   
                                         AOSYM     SMH  

 PROGRAMS   *        TOTAL       INT
 CPU TIMES  *         1.56      1.20
 REAL TIME  *         2.38 SEC
 DISK USED  *        29.56 MB (local),      415.95 MB (total)
 GA USED    *         0.00 MB       (max)       0.00 MB       (current)
 **********************************************************************************************************************************


 Program * Restricted Hartree-Fock


   Atom=SE basis=MINAO             lmin=0  lmax=2

 Orbital guess generated from atomic densities.

 Initial alpha occupancy:   9   9
 Initial beta  occupancy:   9   6

 NELEC=   33   SYM=2   MS2= 3   THRE=1.0D-08   THRD=3.2D-06   THRG=3.2D-06  HFMA2=F  DIIS_START=2   DIIS_MAX=10   DIIS_INCORE=F

 Level shifts:    0.00 (CLOSED)    0.00 (OPEN)    0.30 (GAP_MIN)

 ITER           ETOT              DE          GRAD        DDIFF     DIIS  NEXP   TIME(IT)  TIME(TOT)  DIAG
   1    -2427.78623588   -2427.78623588     0.00D+00     0.14D+00     0     0       0.01      0.02    start
   2    -2427.84027257      -0.05403669     0.90D-02     0.12D-01     1     0       0.00      0.02    diag2
   3    -2427.84257785      -0.00230528     0.34D-02     0.26D-02     2     0       0.01      0.03    diag2
   4    -2427.84297946      -0.00040161     0.71D-03     0.17D-02     3     0       0.01      0.04    diag2
   5    -2427.84300574      -0.00002628     0.25D-03     0.38D-03     4     0       0.01      0.05    diag2
   6    -2427.84300619      -0.00000044     0.19D-04     0.51D-04     5     0       0.00      0.05    diag2
   7    -2427.84300620      -0.00000001     0.33D-05     0.10D-04     6     0       0.01      0.06    diag2
   8    -2427.84300620      -0.00000000     0.19D-06     0.84D-06     7     0       0.01      0.07    fixocc
   9    -2427.84300620      -0.00000000     0.26D-07     0.59D-07     0     0       0.01      0.08    diag

 Final alpha occupancy:   9   9
 Final beta  occupancy:   9   6

 !RHF STATE 1.2 Energy              -2427.843006202486
  RHF One-electron energy           -3366.801857926372
  RHF Two-electron energy             938.958851723886
  RHF Kinetic energy                 2588.160433244912
  RHF Nuclear energy                    0.000000000000
  RHF Virial quotient                  -0.938057384317

 !RHF STATE 1.2 Dipole moment           0.00000000     0.00000000     0.00000000
 Dipole moment /Debye                   0.00000000     0.00000000     0.00000000

 ELECTRON ORBITALS
 =================

  Orbital  Occupation    Energy    Cen Mu Typ  Coefficients
    1.1     2.00000  -468.48510     1  1  s    0.99999
    2.1     2.00000   -62.72198     1  2  s    0.99982
    3.1     2.00000    -9.59421     1  3  s    0.99883
    4.1     2.00000    -2.97354     1  1  d1-  0.99945
    5.1     2.00000    -2.97354     1  1  d1+  0.99940
    6.1     2.00000    -2.97354     1  1  d2-  1.00020
    7.1     2.00000    -2.97354     1  1  d2+  1.00026
    8.1     2.00000    -2.97354     1  1  d0   1.00047
    9.1     2.00000    -1.19172     1  4  s    1.07872
    1.2     2.00000   -55.03338     1  1  py   0.99651
    2.2     2.00000   -55.03338     1  1  pz   0.99651
    3.2     2.00000   -55.03338     1  1  px   0.99994
    4.2     2.00000    -7.10048     1  2  pz   0.99940
    5.2     2.00000    -7.10048     1  2  py   0.99940
    6.2     2.00000    -7.10048     1  2  px   0.99940
    7.2     1.00000    -0.78651     1  3  pz   1.14477
    8.2     1.00000    -0.78651     1  3  py   1.14477
    9.2     1.00000    -0.78651     1  3  px   1.14477


 HOMO      9.2    -0.786510 =     -21.4020eV
 LUMO     10.1    -0.126471 =      -3.4415eV
 LUMO-HOMO         0.660039 =      17.9606eV

 Orbitals saved in record  2100.2


 **********************************************************************************************************************************
 DATASETS  * FILE   NREC   LENGTH (MB)   RECORD NAMES
              1      22       29.21       500      610      700      900      950      970     1000      129      960     1700   
                                          VAR    BASINP    GEOM    SYMINP    ZMAT    AOBASIS   BASIS     P2S    ABASIS    OPER   
                                         1101     1401     1411     1412     1650     1100     1400     1410     1200     1210   
                                          SR      EKINR    POTR     PVPR    MOLCAS      S      EKIN      POT      H0       H01  
                                         1080     1600   
                                         AOSYM     SMH  

              2       4        0.60       700     1000      520     2100   
                                         GEOM     BASIS   MCVARS     RHF  

 PROGRAMS   *        TOTAL   RHF-SCF       INT
 CPU TIMES  *         1.71      0.16      1.20
 REAL TIME  *         3.40 SEC
 DISK USED  *        30.74 MB (local),      430.10 MB (total)
 GA USED    *         0.00 MB       (max)       0.00 MB       (current)
 **********************************************************************************************************************************

 PROGRAM * MULTI (Direct Multiconfiguration SCF)       Authors: P.J. Knowles, H.-J. Werner (1984)
                                                                D.A. Kreplin, P.J. Knowles, H.-J. Werner (2019)

 Number of closed-shell orbitals:  14 (    8    6)
 Number of active  orbitals:        7 (    1    6)
 Number of external orbitals:      95 (   45   50)

 State symmetry 1

 Number of active electrons:   6    Spin symmetry=Triplet   Space symmetry=1
 Number of states:             6
 Number of CSFs:             294   (345 determinants, 735 intermediate states)

 State symmetry 2

 Number of active electrons:   6    Spin symmetry=Singlet   Space symmetry=1
 Number of states:             6
 Number of CSFs:             280   (625 determinants, 1225 intermediate states)

 State symmetry 3

 Number of active electrons:   6    Spin symmetry=Quintet   Space symmetry=1
 Number of states:             3
 Number of CSFs:              50   (51 determinants, 147 intermediate states)

 Molecular orbitals read from record     2100.2  Type=RHF/CANONICAL  
 *** IN SYMMETRY 1 ORBITAL  4 SYMMETRY CONTAMINATION OF 0.595D-01 HAS BEEN REMOVED
 *** IN SYMMETRY 1 ORBITAL  5 SYMMETRY CONTAMINATION OF 0.615D-01 HAS BEEN REMOVED
 *** IN SYMMETRY 1 ORBITAL  6 SYMMETRY CONTAMINATION OF 0.339D-01 HAS BEEN REMOVED
 *** IN SYMMETRY 1 ORBITAL  7 SYMMETRY CONTAMINATION OF 0.294D-01 HAS BEEN REMOVED
 *** IN SYMMETRY 1 ORBITAL  8 SYMMETRY CONTAMINATION OF 0.426D-03 HAS BEEN REMOVED

 EXTRA SYMMETRY OF MOS IN SYMMETRY 1:   1 1 1 6 4 3 5 2 1 1   3 5 4 6 2 1 2 3 5 4   6 1 2 3 5 6 4 2 3 5   6 4 1 2 3 5 6 411 9
                                        712 814151013 1 6 4   5 3 2 1
 *** IN SYMMETRY 2 ORBITAL  1 SYMMETRY CONTAMINATION OF 0.767D-01 HAS BEEN REMOVED
 *** IN SYMMETRY 2 ORBITAL  2 SYMMETRY CONTAMINATION OF 0.767D-01 HAS BEEN REMOVED
 *** IN SYMMETRY 2 ORBITAL  4 SYMMETRY CONTAMINATION OF 0.428D-03 HAS BEEN REMOVED
 *** IN SYMMETRY 2 ORBITAL  5 SYMMETRY CONTAMINATION OF 0.428D-03 HAS BEEN REMOVED
 *** IN SYMMETRY 2 ORBITAL  7 SYMMETRY CONTAMINATION OF 0.181D-03 HAS BEEN REMOVED
 *** IN SYMMETRY 2 ORBITAL  8 SYMMETRY CONTAMINATION OF 0.230D-03 HAS BEEN REMOVED
 *** IN SYMMETRY 2 ORBITAL  9 SYMMETRY CONTAMINATION OF 0.691D-04 HAS BEEN REMOVED
 *** IN SYMMETRY 2 ORBITAL 10 SYMMETRY CONTAMINATION OF 0.818D-04 HAS BEEN REMOVED
 *** IN SYMMETRY 2 ORBITAL 11 SYMMETRY CONTAMINATION OF 0.818D-04 HAS BEEN REMOVED
 EXTRA SYMMETRY OF MOS IN SYMMETRY 2:   2 3 1 3 2 1 3 2 1 3   2 1 3 2 1 7 910 8 6   5 4 3 2 1 6 4 5 9 7  10 8 3 2 1 9 7 5 4 8
                                       10 6 6 4 5 9 7 810 3   2 1 6 4 5 7 9 810 2   1 3

 Wavefunction dump at record             2140.2

 Convergence thresholds  0.10E-04 (gradient)  0.10E-05 (energy)

 Weight factors for state symmetry  1:    0.06667   0.06667   0.06667   0.06667   0.06667   0.06667
 Weight factors for state symmetry  2:    0.06667   0.06667   0.06667   0.06667   0.06667   0.06667
 Weight factors for state symmetry  3:    0.06667   0.06667   0.06667
 
 Number of orbital rotations:  1049  ( 44 closed/active, 660 closed/virtual, 0 active/active, 345 active/virtual )
 Total number of variables:    7022
 
 Second-order MCSCF: L-BFGS accelerated
 
 ITER  MIC  NCI  NEG     ENERGY(VAR)    ENERGY(PROJ) ENERGY CHANGE       GRAD(0)  GRAD(ORB)   GRAD(CI)      STEP      TIME
   1    5   19    0  -2428.01868613   -2428.03082510   -0.01213898    0.13960975 0.00012853 0.00009336  0.19E+00      1.17
   2    7   25    0  -2428.03098592   -2428.03099237   -0.00000644    0.00349388 0.00000212 0.00000139  0.37E-02      2.82
   3    8   27    0  -2428.03099237   -2428.03099237   -0.00000000    0.00000289 0.00000001 0.00000002  0.15E-04      4.95

 CONVERGENCE REACHED!  Final gradient:    0.00000001 ( 0.95E-08)
                       Final energy:  -2428.03099237
 
 Results for state 1.1 Triplet
 =============================
 !MCSCF STATE 1.1 Triplet Energy             -2428.149454852548
 Nuclear energy                                  0.00000000
 Kinetic energy                               2589.00455037
 One electron energy                         -3380.58198437
 Two electron energy                           952.43252951
 Virial ratio                                    1.93786991
 
 !MCSCF STATE 1.1 Triplet Dipole moment          0.00000000     0.00000000     0.00000000
 Dipole moment /Debye                            0.00000000     0.00000000     0.00000000
 
 Results for state 2.1 Triplet
 =============================
 !MCSCF STATE 2.1 Triplet Energy             -2428.149454852397
 Nuclear energy                                  0.00000000
 Kinetic energy                               2589.00455039
 One electron energy                         -3380.58198441
 Two electron energy                           952.43252956
 Virial ratio                                    1.93786991
 
 !MCSCF STATE 2.1 Triplet Dipole moment          0.00000000     0.00000000     0.00000000
 Dipole moment /Debye                            0.00000000     0.00000000     0.00000000
 
 Results for state 3.1 Triplet
 =============================
 !MCSCF STATE 3.1 Triplet Energy             -2428.149454852172
 Nuclear energy                                  0.00000000
 Kinetic energy                               2589.00455040
 One electron energy                         -3380.58198446
 Two electron energy                           952.43252960
 Virial ratio                                    1.93786991
 
 !MCSCF STATE 3.1 Triplet Dipole moment          0.00000000     0.00000000     0.00000000
 Dipole moment /Debye                            0.00000000     0.00000000     0.00000000
 
 Results for state 4.1 Triplet
 =============================
 !MCSCF STATE 4.1 Triplet Energy             -2427.904677864161
 Nuclear energy                                  0.00000000
 Kinetic energy                               2587.50847946
 One electron energy                         -3370.14890860
 Two electron energy                           942.24423074
 Virial ratio                                    1.93831757
 
 !MCSCF STATE 4.1 Triplet Dipole moment          0.00000000     0.00000000     0.00000000
 Dipole moment /Debye                            0.00000000     0.00000000     0.00000000
 
 Results for state 5.1 Triplet
 =============================
 !MCSCF STATE 5.1 Triplet Energy             -2427.904677862404
 Nuclear energy                                  0.00000000
 Kinetic energy                               2587.50847950
 One electron energy                         -3370.14890881
 Two electron energy                           942.24423095
 Virial ratio                                    1.93831757
 
 !MCSCF STATE 5.1 Triplet Dipole moment          0.00000000     0.00000000     0.00000000
 Dipole moment /Debye                            0.00000000     0.00000000     0.00000000
 
 Results for state 6.1 Triplet
 =============================
 !MCSCF STATE 6.1 Triplet Energy             -2427.904677860623
 Nuclear energy                                  0.00000000
 Kinetic energy                               2587.50847953
 One electron energy                         -3370.14890901
 Two electron energy                           942.24423115
 Virial ratio                                    1.93831757
 
 !MCSCF STATE 6.1 Triplet Dipole moment          0.00000000     0.00000000     0.00000000
 Dipole moment /Debye                            0.00000000     0.00000000     0.00000000
 
 Results for state 1.1 Singlet
 =============================
 !MCSCF STATE 1.1 Singlet Energy             -2428.099484103206
 Nuclear energy                                  0.00000000
 Kinetic energy                               2588.94671154
 One electron energy                         -3380.37092780
 Two electron energy                           952.27144370
 Virial ratio                                    1.93787156
 
 !MCSCF STATE 1.1 Singlet Dipole moment          0.00000000     0.00000000     0.00000000
 Dipole moment /Debye                            0.00000000     0.00000000     0.00000000
 
 Results for state 2.1 Singlet
 =============================
 !MCSCF STATE 2.1 Singlet Energy             -2428.099484103180
 Nuclear energy                                  0.00000000
 Kinetic energy                               2588.94671154
 One electron energy                         -3380.37092780
 Two electron energy                           952.27144370
 Virial ratio                                    1.93787156
 
 !MCSCF STATE 2.1 Singlet Dipole moment          0.00000000     0.00000000     0.00000000
 Dipole moment /Debye                            0.00000000     0.00000000     0.00000000
 
 Results for state 3.1 Singlet
 =============================
 !MCSCF STATE 3.1 Singlet Energy             -2428.099484103117
 Nuclear energy                                  0.00000000
 Kinetic energy                               2588.94671154
 One electron energy                         -3380.37092783
 Two electron energy                           952.27144373
 Virial ratio                                    1.93787156
 
 !MCSCF STATE 3.1 Singlet Dipole moment          0.00000000     0.00000000     0.00000000
 Dipole moment /Debye                            0.00000000     0.00000000     0.00000000
 
 Results for state 4.1 Singlet
 =============================
 !MCSCF STATE 4.1 Singlet Energy             -2428.099484102976
 Nuclear energy                                  0.00000000
 Kinetic energy                               2588.94671155
 One electron energy                         -3380.37092786
 Two electron energy                           952.27144375
 Virial ratio                                    1.93787156
 
 !MCSCF STATE 4.1 Singlet Dipole moment          0.00000000     0.00000000     0.00000000
 Dipole moment /Debye                            0.00000000     0.00000000     0.00000000
 
 Results for state 5.1 Singlet
 =============================
 !MCSCF STATE 5.1 Singlet Energy             -2428.099484102964
 Nuclear energy                                  0.00000000
 Kinetic energy                               2588.94671155
 One electron energy                         -3380.37092786
 Two electron energy                           952.27144376
 Virial ratio                                    1.93787156
 
 !MCSCF STATE 5.1 Singlet Dipole moment          0.00000000     0.00000000     0.00000000
 Dipole moment /Debye                            0.00000000     0.00000000     0.00000000
 
 Results for state 6.1 Singlet
 =============================
 !MCSCF STATE 6.1 Singlet Energy             -2428.054941754478
 Nuclear energy                                  0.00000000
 Kinetic energy                               2588.81998250
 One electron energy                         -3379.91763779
 Two electron energy                           951.86269603
 Virial ratio                                    1.93790026
 
 !MCSCF STATE 6.1 Singlet Dipole moment          0.00000000     0.00000000     0.00000000
 Dipole moment /Debye                            0.00000000     0.00000000     0.00000000
 
 Results for state 1.1 Quintet
 =============================
 !MCSCF STATE 1.1 Quintet Energy             -2427.916708384068
 Nuclear energy                                  0.00000000
 Kinetic energy                               2587.35082291
 One electron energy                         -3369.57391169
 Two electron energy                           941.65720331
 Virial ratio                                    1.93837940
 
 !MCSCF STATE 1.1 Quintet Dipole moment          0.00000000     0.00000000     0.00000000
 Dipole moment /Debye                            0.00000000     0.00000000     0.00000000
 
 Results for state 2.1 Quintet
 =============================
 !MCSCF STATE 2.1 Quintet Energy             -2427.916708383592
 Nuclear energy                                  0.00000000
 Kinetic energy                               2587.35082293
 One electron energy                         -3369.57391185
 Two electron energy                           941.65720347
 Virial ratio                                    1.93837940
 
 !MCSCF STATE 2.1 Quintet Dipole moment          0.00000000     0.00000000     0.00000000
 Dipole moment /Debye                            0.00000000     0.00000000     0.00000000
 
 Results for state 3.1 Quintet
 =============================
 !MCSCF STATE 3.1 Quintet Energy             -2427.916708383078
 Nuclear energy                                  0.00000000
 Kinetic energy                               2587.35082295
 One electron energy                         -3369.57391201
 Two electron energy                           941.65720363
 Virial ratio                                    1.93837940
 
 !MCSCF STATE 3.1 Quintet Dipole moment          0.00000000     0.00000000     0.00000000
 Dipole moment /Debye                            0.00000000     0.00000000     0.00000000
 
 State-averaged charge density matrix saved on record 2140.2 (density set 1)
 
 No non-zero expectation values
 
 Expectation values for two-electron operators:
 
 ? Warning
 ? Transition properties are only calculated between states of the same symmetry
 ? The problem occurs in mu_properties_expec2

 !MCSCF expec      <1.1 Triplet|LXLX|1.1 Triplet>     0.999999999997
 !MCSCF expec      <2.1 Triplet|LXLX|2.1 Triplet>     0.999999997321
 !MCSCF expec      <3.1 Triplet|LXLX|3.1 Triplet>     0.000000002690
 !MCSCF expec      <4.1 Triplet|LXLX|4.1 Triplet>     0.000000000002
 !MCSCF expec      <5.1 Triplet|LXLX|5.1 Triplet>     0.999999999999
 !MCSCF expec      <6.1 Triplet|LXLX|6.1 Triplet>     1.000000000000
 !MCSCF expec      <1.1 Singlet|LXLX|1.1 Singlet>     0.091778221475
 !MCSCF expec      <2.1 Singlet|LXLX|2.1 Singlet>     1.000000016004
 !MCSCF expec      <3.1 Singlet|LXLX|3.1 Singlet>     1.000000046117
 !MCSCF expec      <4.1 Singlet|LXLX|4.1 Singlet>     3.999999935072
 !MCSCF expec      <5.1 Singlet|LXLX|5.1 Singlet>     3.908221781333
 !MCSCF expec      <6.1 Singlet|LXLX|6.1 Singlet>     0.000000000000
 !MCSCF expec      <1.1 Quintet|LXLX|1.1 Quintet>     0.000000000000
 !MCSCF expec      <2.1 Quintet|LXLX|2.1 Quintet>     1.000000000000
 !MCSCF expec      <3.1 Quintet|LXLX|3.1 Quintet>     0.999999999990
 
 !MCSCF expec      <1.1 Triplet|LYLY|1.1 Triplet>     0.000000031429
 !MCSCF expec      <2.1 Triplet|LYLY|2.1 Triplet>     0.999999964325
 !MCSCF expec      <3.1 Triplet|LYLY|3.1 Triplet>     0.999999999989
 !MCSCF expec      <4.1 Triplet|LYLY|4.1 Triplet>     1.000000000000
 !MCSCF expec      <5.1 Triplet|LYLY|5.1 Triplet>     0.999999999978
 !MCSCF expec      <6.1 Triplet|LYLY|6.1 Triplet>     0.000000000020
 !MCSCF expec      <1.1 Singlet|LYLY|1.1 Singlet>     3.472779592367
 !MCSCF expec      <2.1 Singlet|LYLY|2.1 Singlet>     3.999999877006
 !MCSCF expec      <3.1 Singlet|LYLY|3.1 Singlet>     1.000000104394
 !MCSCF expec      <4.1 Singlet|LYLY|4.1 Singlet>     0.999999980829
 !MCSCF expec      <5.1 Singlet|LYLY|5.1 Singlet>     0.527220445405
 !MCSCF expec      <6.1 Singlet|LYLY|6.1 Singlet>    -0.000000000000
 !MCSCF expec      <1.1 Quintet|LYLY|1.1 Quintet>     1.000000000000
 !MCSCF expec      <2.1 Quintet|LYLY|2.1 Quintet>     0.999999999950
 !MCSCF expec      <3.1 Quintet|LYLY|3.1 Quintet>     0.000000000051
 
 !MCSCF expec      <1.1 Triplet|LZLZ|1.1 Triplet>     0.999999968574
 !MCSCF expec      <2.1 Triplet|LZLZ|2.1 Triplet>     0.000000038354
 !MCSCF expec      <3.1 Triplet|LZLZ|3.1 Triplet>     0.999999997321
 !MCSCF expec      <4.1 Triplet|LZLZ|4.1 Triplet>     0.999999999998
 !MCSCF expec      <5.1 Triplet|LZLZ|5.1 Triplet>     0.000000000023
 !MCSCF expec      <6.1 Triplet|LZLZ|6.1 Triplet>     0.999999999980
 !MCSCF expec      <1.1 Singlet|LZLZ|1.1 Singlet>     2.435442186159
 !MCSCF expec      <2.1 Singlet|LZLZ|2.1 Singlet>     1.000000106991
 !MCSCF expec      <3.1 Singlet|LZLZ|3.1 Singlet>     3.999999849489
 !MCSCF expec      <4.1 Singlet|LZLZ|4.1 Singlet>     1.000000084099
 !MCSCF expec      <5.1 Singlet|LZLZ|5.1 Singlet>     1.564557773263
 !MCSCF expec      <6.1 Singlet|LZLZ|6.1 Singlet>     0.000000000000
 !MCSCF expec      <1.1 Quintet|LZLZ|1.1 Quintet>     1.000000000000
 !MCSCF expec      <2.1 Quintet|LZLZ|2.1 Quintet>     0.000000000050
 !MCSCF expec      <3.1 Quintet|LZLZ|3.1 Quintet>     0.999999999959
 
 !MCSCF expec      <1.1 Triplet|L**2|1.1 Triplet>     2.000000000000
 !MCSCF expec      <2.1 Triplet|L**2|2.1 Triplet>     2.000000000000
 !MCSCF expec      <3.1 Triplet|L**2|3.1 Triplet>     2.000000000000
 !MCSCF expec      <4.1 Triplet|L**2|4.1 Triplet>     2.000000000000
 !MCSCF expec      <5.1 Triplet|L**2|5.1 Triplet>     2.000000000000
 !MCSCF expec      <6.1 Triplet|L**2|6.1 Triplet>     2.000000000000
 !MCSCF expec      <1.1 Singlet|L**2|1.1 Singlet>     6.000000000000
 !MCSCF expec      <2.1 Singlet|L**2|2.1 Singlet>     6.000000000000
 !MCSCF expec      <3.1 Singlet|L**2|3.1 Singlet>     6.000000000000
 !MCSCF expec      <4.1 Singlet|L**2|4.1 Singlet>     6.000000000000
 !MCSCF expec      <5.1 Singlet|L**2|5.1 Singlet>     6.000000000000
 !MCSCF expec      <6.1 Singlet|L**2|6.1 Singlet>     0.000000000000
 !MCSCF expec      <1.1 Quintet|L**2|1.1 Quintet>     2.000000000000
 !MCSCF expec      <2.1 Quintet|L**2|2.1 Quintet>     2.000000000000
 !MCSCF expec      <3.1 Quintet|L**2|3.1 Quintet>     2.000000000000
 
 EXTRA SYMMETRY OF MOS IN SYMMETRY 1:   1 1 1 4 6 3 5 2 1 1   4 6 5 3 2 1 2 5 3 4   6 1 2 5 3 4 6 2 5 3   4 6 1 2 4 3 5 6 911
                                        712 814151013 1 4 6   3 5 2 1
 EXTRA SYMMETRY OF MOS IN SYMMETRY 2:   3 2 1 3 2 1 1 2 3 2   3 1 2 3 1 7 9 6 410   8 5 2 3 1 4 6 9 7 5   810 3 2 1 9 7 4 510
                                        8 6 4 6 5 9 7 810 3   1 2 6 4 5 7 9 810 1   2 3
 
  NATURAL ORBITALS (STATE AVERAGED)
  =================================

  Orbital  Occupation    Energy    Cen Mu Typ  Coefficients
    1.1     2.00000  -468.20277     1  1  s    0.99999
    2.1     2.00000   -62.44075     1  2  s    0.99981
    3.1     2.00000    -9.31343     1  3  s    0.99870
    4.1     2.00000    -2.69346     1  1  d1+  1.00018
    5.1     2.00000    -2.69346     1  1  d1-  1.00018
    6.1     2.00000    -2.69346     1  1  d2-  1.00018
    7.1     2.00000    -2.69346     1  1  d2+  1.00018
    8.1     2.00000    -2.69346     1  1  d0   1.00018
    9.1     1.99524    -0.93729     1  4  s    1.03337
    1.2     2.00000   -54.75241     1  1  pz   0.99994
    2.2     2.00000   -54.75241     1  1  py   0.99994
    3.2     2.00000   -54.75241     1  1  px   0.99994
    4.2     2.00000    -6.82067     1  2  pz   0.99949
    5.2     2.00000    -6.82067     1  2  py   0.99949
    6.2     2.00000    -6.82067     1  2  px   0.99949
    7.2     1.19898    -0.31440     1  3  px   1.04548
    8.2     1.19898    -0.31440     1  3  py   1.04548
    9.2     1.19898    -0.31440     1  3  pz   1.04548
   10.2     0.13594     0.04512     1  3  py  -0.40056    1  8  py   0.66295    1  9  py   0.47540
   11.2     0.13594     0.04512     1  3  pz  -0.40056    1  8  pz   0.66295    1  9  pz   0.47540
   12.2     0.13594     0.04512     1  3  px  -0.40056    1  8  px   0.66295    1  9  px   0.47540
 
 Natural orbital dump (state averaged) at molpro section 2140.2 (Orbital set 2)
 
 Transform the CI vectors
 
 CI Coefficients of symmetry 1 (Triplet)
 =======================================
 
 2 2aa000       0.00000186     -0.00005159      0.99681697     -0.06984858     -0.00000011     -0.00000000
 2 a2a000       0.99681695      0.00017671     -0.00000185     -0.00000000     -0.00000033      0.06984858
 2 aa2000      -0.00017671      0.99681695      0.00005159      0.00000011     -0.06984858     -0.00000033
 2 aaa00b       0.00000011     -0.00000316      0.06096043      0.84775726      0.00000131      0.00000003
 2 aaa0b0      -0.00001081      0.06096043      0.00000316     -0.00000131      0.84775726      0.00000396
 2 aaab00      -0.06096044     -0.00001081      0.00000011     -0.00000003     -0.00000396      0.84775726
 2 aaba00       0.01691545      0.00000300     -0.00000003      0.00000001      0.00000149     -0.31936777
 2 baaa00       0.01691545      0.00000300     -0.00000003      0.00000001      0.00000149     -0.31936777
 2 aba0a0       0.00000300     -0.01691545     -0.00000088      0.00000049     -0.31936776     -0.00000149
 2 baa0a0       0.00000300     -0.01691545     -0.00000088      0.00000049     -0.31936776     -0.00000149
 2 aba00a      -0.00000003      0.00000088     -0.01691545     -0.31936776     -0.00000049     -0.00000001
 2 aab00a      -0.00000003      0.00000088     -0.01691545     -0.31936776     -0.00000049     -0.00000001
 2 baa00a      -0.00000005      0.00000140     -0.02712954     -0.20902175     -0.00000032     -0.00000001
 2 aab0a0       0.00000481     -0.02712954     -0.00000140      0.00000032     -0.20902174     -0.00000098
 2 abaa00       0.02712954      0.00000481     -0.00000005      0.00000001      0.00000098     -0.20902173
 2 a200a0       0.00343511      0.00000061     -0.00000001     -0.00000000     -0.00000041      0.08780925
 2 a02a00      -0.00000061      0.00343511      0.00000018      0.00000014     -0.08780925     -0.00000041
 2 02a00a      -0.00343511     -0.00000061      0.00000001      0.00000000      0.00000041     -0.08780925
 2 20aa00      -0.00000001      0.00000018     -0.00343511      0.08780925      0.00000014      0.00000000
 2 0a200a       0.00000061     -0.00343511     -0.00000018     -0.00000014      0.08780924      0.00000041
 2 2a00a0       0.00000001     -0.00000018      0.00343511     -0.08780924     -0.00000014     -0.00000000
 2 a0a200      -0.01607417     -0.00000285      0.00000003     -0.00000000     -0.00000033      0.07056457
 2 aa0020       0.00000285     -0.01607417     -0.00000083      0.00000011     -0.07056457     -0.00000033
 2 0aa002      -0.00000003      0.00000083     -0.01607417     -0.07056456     -0.00000011     -0.00000000
 
 Energy:    -2428.14945485  -2428.14945485  -2428.14945485  -2427.90467786  -2427.90467786  -2427.90467786
 
 
 CI Coefficients of symmetry 1 (Singlet)
 =======================================
 
 2 022000       0.80441049      0.00001510     -0.00003855      0.00002971     -0.12327015      0.56561298
 2 202000      -0.29545016     -0.00000383      0.00004816     -0.00022722      0.75827496      0.56561298
 2 a2b000      -0.00001348      0.70477216      0.00013287      0.00005191     -0.00000169      0.00000000
 2 b2a000       0.00001348     -0.70477216     -0.00013287     -0.00005191      0.00000169     -0.00000000
 2 ba2000      -0.00002863      0.00013288     -0.70477216     -0.00008469      0.00003359      0.00000000
 2 ab2000       0.00002863     -0.00013288      0.70477216      0.00008469     -0.00003359     -0.00000000
 2 2ba000      -0.00000673      0.00005189      0.00008469     -0.70477214     -0.00021381     -0.00000000
 2 2ab000       0.00000673     -0.00005189     -0.00008469      0.70477214      0.00021381      0.00000000
 2 220000      -0.50896033     -0.00001127     -0.00000961      0.00019751     -0.63500481      0.56561298
 0 222000      -0.00000000     -0.00000000      0.00000000     -0.00000000      0.00000000     -0.17352906
 
 Energy:    -2428.09948410  -2428.09948410  -2428.09948410  -2428.09948410  -2428.09948410  -2428.05494175
 
 
 CI Coefficients of symmetry 1 (Quintet)
 =======================================
 
 2 aaaa00       0.00000000     -0.00000703      0.99590207
 2 aaa0a0      -0.00000000      0.99590207      0.00000703
 2 aaa00a       0.99590207      0.00000000     -0.00000000
 2 a0aa0a       0.06337676      0.00000000      0.00000000
 2 a0aaa0      -0.00000000      0.06337676      0.00000045
 2 aa00aa      -0.06337675     -0.00000000      0.00000000
 2 aa0aa0       0.00000000     -0.00000045      0.06337675
 2 0aa0aa       0.00000000      0.06337675      0.00000045
 2 0aaa0a      -0.00000000     -0.00000045      0.06337675
 
 Energy:    -2427.91670838  -2427.91670838  -2427.91670838
 


 **********************************************************************************************************************************
 DATASETS  * FILE   NREC   LENGTH (MB)   RECORD NAMES
              1      24       47.32       500      610      700      900      950      970     1000      129      960     1700   
                                          VAR    BASINP    GEOM    SYMINP    ZMAT    AOBASIS   BASIS     P2S    ABASIS    OPER   
                                         1101     1401     1411     1412     1650     1100     1400     1410     1200     1210   
                                          SR      EKINR    POTR     PVPR    MOLCAS      S      EKIN      POT      H0       H01  
                                         1080     1600     1380     1700(1)
                                         AOSYM     SMH     JKOP     OPER   

              2       5        0.93       700     1000      520     2100     2140   
                                         GEOM     BASIS   MCVARS     RHF     MCSCF   

 PROGRAMS   *        TOTAL     MULTI   RHF-SCF       INT
 CPU TIMES  *         6.04      4.32      0.16      1.20
 REAL TIME  *         8.99 SEC
 DISK USED  *        48.34 MB (local),      641.37 MB (total)
 SF USED    *        45.66 MB
 GA USED    *         0.00 MB       (max)       0.00 MB       (current)
 **********************************************************************************************************************************

 Energies and &lt;L**2&gt; values

          ENERGY    LL
    -2428.149455   2.0
    -2428.149455   2.0
    -2428.149455   2.0
    -2427.904678   2.0
    -2427.904678   2.0
    -2427.904678   2.0
    -2428.099484   6.0
    -2428.099484   6.0
    -2428.099484   6.0
    -2428.099484   6.0
    -2428.099484   6.0
    -2428.054942   0.0
    -2427.916708   2.0
    -2427.916708   2.0
    -2427.916708   2.0
                                                  


 PROGRAM * CI (Multireference internally contracted CI)     Authors: H.-J. Werner, P.J. Knowles, 1987


 Convergence thresholds:  THRVAR = 1.00D-08  THRDEN = 1.00D-06

 Number of optimized states: 6  Roots:    1   2   3   4   5   6
 Number of reference states: 6  Roots:    1   2   3   4   5   6

 Reference symmetry:                   1   Triplet 
 Number of electrons:                 34
 Maximum number of shells:             6
 Maximum number of spin couplings:   297

 Reference space:      196 conf      294 CSFs
 N elec internal:    19609 conf    81480 CSFs
 N-1 el internal:    20264 conf   153948 CSFs
 N-2 el internal:    11240 conf   124860 CSFs

 Number of electrons in valence space:                     24
 Maximum number of open shell orbitals in reference space:  6
 Maximum number of open shell orbitals in internal spaces: 12


 Number of core orbitals:           5 (   2   3 )
 Number of closed-shell orbitals:   9 (   6   3 )
 Number of active  orbitals:        7 (   1   6 )
 Number of external orbitals:      95 (  45  50 )

 Molecular orbitals read from record     2140.2  Type=MCSCF/NATURAL (state averaged)

 Integral transformation finished. Total CPU:   0.09 sec, npass=  1  Memory used:   1.17 MW


 Number of p-space configurations:  30

 Reference wavefunction optimized for reference space (refopt=1)

 State     Reference Energy 
     1     -2428.14945485
     2     -2428.14945485
     3     -2428.14945485
     4     -2427.90467786
     5     -2427.90467786
     6     -2427.90467786

 ?WARNING: SMALL EIGENVALUE OF PAIR OVERLAP MATRIX:  0.1446D-06

 ?WARNING: SMALL EIGENVALUE OF PAIR OVERLAP MATRIX:  0.2032D-06

 Number of blocks in overlap matrix:   562   Smallest eigenvalue:  0.14D-06
 Number of N-2 electron functions:    1496
 Number of N-1 electron functions:  153948

 Number of internal configurations:                40740
 Number of singly external configurations:       7312890
 Number of doubly external configurations:       3378195
 Total number of contracted configurations:     10731825
 Total number of uncontracted configurations:  288034650

 Diagonal Coupling coefficients finished.               Storage:  25198712 words, CPU-Time:     52.29 seconds.
 Energy denominators for pairs finished in 1 passes.    Storage:   2646434 words, CPU-time:      0.15 seconds.

  ITER. STATE  ROOT     SQ.NORM     CORR.ENERGY   TOTAL ENERGY   ENERGY CHANGE       DEN1      VAR(S)    VAR(P)      TIME
    1     1     1     1.00000000     0.00000000 -2428.14945485     0.00000000    -0.93386560  0.39D-01  0.61D-01    59.96
    1     2     2     1.00000000     0.00000000 -2428.14945485     0.00000000    -0.93420465  0.39D-01  0.61D-01    59.96
    1     3     3     1.00000000     0.00000000 -2428.14945485     0.00000000    -0.93382543  0.38D-01  0.61D-01    59.96
    1     4     4     1.00000000     0.00000000 -2427.90467786    -0.00000000    -0.91637725  0.48D-01  0.57D-01    59.96
    1     5     5     1.00000000     0.00000000 -2427.90467786     0.00000000    -0.91640276  0.48D-01  0.57D-01    59.96
    1     6     6     1.00000000     0.00000000 -2427.90467786    -0.00000000    -0.91644258  0.48D-01  0.57D-01    59.96
    2     1     1     1.06776014    -0.77149114 -2428.92094599    -0.77149114    -0.01870988  0.29D-02  0.11D-02   330.91
    2     2     2     1.06784867    -0.77136424 -2428.92081910    -0.77136424    -0.01881672  0.29D-02  0.11D-02   330.91
    2     3     3     1.06806540    -0.77126318 -2428.92071803    -0.77126318    -0.01893049  0.30D-02  0.11D-02   330.91
    2     4     4     1.07119567    -0.75488783 -2428.65956570    -0.75488783    -0.01694728  0.33D-02  0.73D-03   330.91
    2     5     5     1.07119754    -0.75488311 -2428.65956097    -0.75488311    -0.01695291  0.33D-02  0.73D-03   330.91
    2     6     6     1.07122146    -0.75487252 -2428.65955038    -0.75487252    -0.01696312  0.33D-02  0.73D-03   330.91
    3     1     1     1.06186535    -0.78990920 -2428.93936405    -0.01841806    -0.00070857  0.36D-04  0.10D-03   602.39
    3     2     2     1.06183297    -0.78990148 -2428.93935634    -0.01853724    -0.00071425  0.37D-04  0.10D-03   602.39
    3     3     3     1.06182891    -0.78989895 -2428.93935380    -0.01863577    -0.00071573  0.36D-04  0.10D-03   602.39
    3     4     4     1.06120492    -0.77096693 -2428.67564479    -0.01607909    -0.00053626  0.67D-04  0.49D-04   602.39
    3     5     5     1.06120243    -0.77096685 -2428.67564471    -0.01608374    -0.00053609  0.67D-04  0.49D-04   602.39
    3     6     6     1.06120176    -0.77096683 -2428.67564469    -0.01609431    -0.00053601  0.67D-04  0.49D-04   602.39
    4     1     1     1.06312284    -0.79079135 -2428.94024620    -0.00088215    -0.00007554  0.42D-05  0.10D-04   872.94
    4     2     2     1.06311635    -0.79079130 -2428.94024615    -0.00088982    -0.00007565  0.42D-05  0.10D-04   872.94
    4     3     3     1.06311479    -0.79079109 -2428.94024594    -0.00089214    -0.00007602  0.42D-05  0.10D-04   872.94
    4     4     4     1.06048163    -0.77154800 -2428.67622587    -0.00058108    -0.00005286  0.31D-05  0.86D-05   872.94
    4     5     5     1.06048107    -0.77154779 -2428.67622565    -0.00058094    -0.00005290  0.31D-05  0.86D-05   872.94
    4     6     6     1.06048027    -0.77154763 -2428.67622549    -0.00058080    -0.00005290  0.31D-05  0.86D-05   872.94
    5     1     1     1.06393389    -0.79089026 -2428.94034512    -0.00009891    -0.00000930  0.65D-06  0.98D-06  1142.91
    5     2     2     1.06393578    -0.79089021 -2428.94034506    -0.00009890    -0.00000932  0.65D-06  0.98D-06  1142.91
    5     3     3     1.06393456    -0.79089015 -2428.94034501    -0.00009906    -0.00000933  0.64D-06  0.98D-06  1142.91
    5     4     4     1.06079392    -0.77162650 -2428.67630437    -0.00007850    -0.00001085  0.59D-06  0.13D-05  1142.91
    5     5     5     1.06079391    -0.77162635 -2428.67630421    -0.00007856    -0.00001086  0.59D-06  0.13D-05  1142.91
    5     6     6     1.06079397    -0.77162619 -2428.67630405    -0.00007857    -0.00001086  0.59D-06  0.13D-05  1142.91
    6     1     1     1.06394918    -0.79090104 -2428.94035589    -0.00001078    -0.00000101  0.43D-07  0.12D-06  1413.60
    6     2     2     1.06394940    -0.79090101 -2428.94035587    -0.00001081    -0.00000101  0.44D-07  0.12D-06  1413.60
    6     3     3     1.06394977    -0.79090099 -2428.94035584    -0.00001083    -0.00000102  0.43D-07  0.13D-06  1413.60
    6     4     4     1.06087852    -0.77164109 -2428.67631896    -0.00001459    -0.00000157  0.90D-07  0.20D-06  1413.60
    6     5     5     1.06087829    -0.77164095 -2428.67631881    -0.00001460    -0.00000157  0.90D-07  0.20D-06  1413.60
    6     6     6     1.06087806    -0.77164080 -2428.67631866    -0.00001460    -0.00000157  0.90D-07  0.20D-06  1413.60
    7     1     1     1.06395642    -0.79090225 -2428.94035710    -0.00000121    -0.00000015  0.69D-08  0.18D-07  1685.41
    7     2     2     1.06395658    -0.79090222 -2428.94035707    -0.00000121    -0.00000015  0.69D-08  0.18D-07  1685.41
    7     3     3     1.06395635    -0.79090220 -2428.94035705    -0.00000121    -0.00000015  0.69D-08  0.18D-07  1685.41
    7     4     4     1.06087320    -0.77164291 -2428.67632078    -0.00000182    -0.00000029  0.18D-07  0.39D-07  1685.41
    7     5     5     1.06087299    -0.77164276 -2428.67632063    -0.00000182    -0.00000029  0.18D-07  0.39D-07  1685.41
    7     6     6     1.06087280    -0.77164261 -2428.67632047    -0.00000182    -0.00000029  0.19D-07  0.39D-07  1685.41
    8     1     1     1.06396700    -0.79090243 -2428.94035728    -0.00000018    -0.00000002  0.15D-08  0.25D-08  1957.47
    8     2     2     1.06396691    -0.79090240 -2428.94035725    -0.00000018    -0.00000002  0.15D-08  0.25D-08  1957.47
    8     3     3     1.06396688    -0.79090238 -2428.94035723    -0.00000018    -0.00000002  0.15D-08  0.26D-08  1957.47
    8     4     4     1.06088132    -0.77164329 -2428.67632115    -0.00000038    -0.00000008  0.49D-08  0.83D-08  1957.47
    8     5     5     1.06088115    -0.77164314 -2428.67632100    -0.00000038    -0.00000008  0.49D-08  0.83D-08  1957.47
    8     6     6     1.06088097    -0.77164299 -2428.67632085    -0.00000038    -0.00000008  0.49D-08  0.83D-08  1957.47
    9     1     1     1.06396783    -0.79090243 -2428.94035729    -0.00000001    -0.00000002  0.11D-08  0.22D-08  2165.75
    9     2     2     1.06396772    -0.79090241 -2428.94035726    -0.00000001    -0.00000002  0.11D-08  0.22D-08  2165.75
    9     3     3     1.06396772    -0.79090238 -2428.94035723    -0.00000001    -0.00000002  0.11D-08  0.22D-08  2165.75
    9     4     4     1.06089151    -0.77164340 -2428.67632126    -0.00000011    -0.00000001  0.47D-09  0.86D-09  2165.75
    9     5     5     1.06089133    -0.77164325 -2428.67632111    -0.00000011    -0.00000001  0.47D-09  0.86D-09  2165.75
    9     6     6     1.06089113    -0.77164310 -2428.67632096    -0.00000011    -0.00000001  0.47D-09  0.86D-09  2165.75


 =====================================
 Analysis of CPU times by interactions
 =====================================

       I      S      P

 I   1.0%
 S   0.8%  13.1%
 P   0.4%  61.2%  17.2%

 Initialization:   2.4%
 Other:            4.0%

 Total CPU:     2165.8 seconds
 =====================================



 Wavefunction saved on  5302.2

 Reference coefficients greater than 0.0500000
 =============================================
 22222222222//000           0.0008677   0.0019797   0.9679746  -0.0421135  -0.0003775  -0.0000652
 2222222222/2/000           0.9679699  -0.0036048  -0.0008603  -0.0000624  -0.0003105   0.0421141
 2222222222//2000           0.0036030   0.9679683  -0.0019829   0.0003780  -0.0421124  -0.0003099
 2222222222///\00          -0.0429272   0.0001599   0.0000381  -0.0014103  -0.0070168   0.9518275
 2222222222///00\           0.0000385   0.0000878   0.0429273   0.9518146   0.0085330   0.0014732
 2222222222///0\0           0.0001598   0.0429271  -0.0000879  -0.0085436   0.9517901   0.0070039
 2222222222//\0/0          -0.0000232  -0.0062296   0.0000128  -0.0007758   0.0864293   0.0006360
 2222222222/200/0           0.0003519  -0.0000013  -0.0000003  -0.0001241  -0.0006173   0.0837306
 222222222202/00/          -0.0003519   0.0000013   0.0000003   0.0001241   0.0006173  -0.0837305
 222222222220//00          -0.0000003  -0.0000007  -0.0003517   0.0837298   0.0007506   0.0001296
 22222222222/00/0           0.0000003   0.0000007   0.0003517  -0.0837297  -0.0007506  -0.0001296
 2222222222/02/00           0.0000013   0.0003517  -0.0000007   0.0007516  -0.0837276  -0.0006161
 22222222220/200/          -0.0000013  -0.0003519   0.0000007  -0.0007516   0.0837273   0.0006161
 2222222222/\//00           0.0053950  -0.0000201  -0.0000048  -0.0001109  -0.0005518   0.0748526
 2222222222/\/00/           0.0000048   0.0000110   0.0053950  -0.0748522  -0.0006710  -0.0001159
 2222222222/0/200          -0.0133919   0.0000499   0.0000119  -0.0001047  -0.0005209   0.0706663
 22222222220//002          -0.0000120  -0.0000274  -0.0133920  -0.0706647  -0.0006335  -0.0001094
 2222222222//0020          -0.0000498  -0.0133919   0.0000274   0.0006343  -0.0706632  -0.0005200
 2222222222//00/\          -0.0000106  -0.0000241  -0.0118060  -0.0580379  -0.0005203  -0.0000898
 2222222222/0//0\           0.0000106   0.0000241   0.0118060   0.0580379   0.0005203   0.0000898
 2222222222/0//\0           0.0000439   0.0118060  -0.0000242  -0.0005210   0.0580372   0.0004271
 2222222222//0\/0          -0.0117775   0.0000439   0.0000105  -0.0000786  -0.0003910   0.0530431
 22222222220//\0/          -0.0117776   0.0000439   0.0000105  -0.0000786  -0.0003910   0.0530431
 22222222220//0\/           0.0000438   0.0117775  -0.0000241  -0.0004761   0.0530400   0.0003903

 Coefficients of fixed reference functions:
 ==========================================

 State      Coefficients
 1           0.969100    0.003607    0.000869   -0.000022   -0.000092    0.024589
 2          -0.003609    0.969099    0.001982   -0.000050   -0.024589   -0.000092
 3          -0.000861   -0.001985    0.969105   -0.024589    0.000050   -0.000022
 4           0.000038   -0.000232    0.025861    0.970471   -0.008711   -0.001438
 5           0.000191    0.025860    0.000232    0.008700    0.970446   -0.007154
 6          -0.025861    0.000190    0.000040    0.001502    0.007141    0.970484

 Coefficients of rotated reference functions:
 ============================================

 State      Coefficients
 1           0.969419    0.000000    0.000000    0.000001    0.000007   -0.000618
 2           0.000000    0.969419   -0.000000   -0.000004    0.000618    0.000007
 3           0.000000   -0.000000    0.969419    0.000618    0.000004    0.000001
 4           0.000001   -0.000004    0.000618    0.970856    0.000000    0.000000
 5           0.000007    0.000618    0.000004    0.000000    0.970856    0.000000
 6          -0.000618    0.000007    0.000001    0.000000    0.000000    0.970856


 RESULTS FOR STATE 1.1
 =====================

 Coefficient of reference function:   C(0) = 0.96910029 (fixed)   0.96945977 (relaxed)   0.96941910 (rotated)

 Energy contributions of configuration classes

 CLASS          SQ.NORM        ECORR1        ECORR2
 +++++++++++++++++++++++++++++++++++++++++++++++++++
 Internals    0.00011135   -0.00014153   -0.67000470
 Singles      0.01455979   -0.05054346   -0.05831686
 Pairs        0.04941516   -0.02750422   -0.06258088
 Total        1.06408631   -0.07818920   -0.79090243
 +++++++++++++++++++++++++++++++++++++++++++++++++++


 Reference energy                   -2428.14928936
 Nuclear energy                         0.00000000
 Kinetic energy                      2588.97554531
 One electron energy                -3378.81229592
 Two electron energy                  949.87193864
 Virial quotient                       -0.93818590
 Correlation energy                    -0.79106793
 !MRCI STATE 1.1 Energy             -2428.940357287041

 Properties without orbital relaxation:

 !MRCI STATE 1.1 Dipole moment          0.00000000     0.00000000     0.00000000
 Dipole moment /Debye                   0.00000000     0.00000000     0.00000000

 Cluster corrected energies         -2428.99105391 (Davidson, fixed reference)
 Cluster corrected energies         -2428.99098328 (Davidson, relaxed reference)
 Cluster corrected energies         -2428.99105391 (Davidson, rotated reference)

 Cluster corrected energies         -2428.98897706 (Pople, fixed reference)
 Cluster corrected energies         -2428.98890563 (Pople, relaxed reference)
 Cluster corrected energies         -2428.98897706 (Pople, rotated reference)



 RESULTS FOR STATE 2.1
 =====================

 Coefficient of reference function:   C(0) = 0.96909869 (fixed)   0.96945982 (relaxed)   0.96941915 (rotated)

 Energy contributions of configuration classes

 CLASS          SQ.NORM        ECORR1        ECORR2
 +++++++++++++++++++++++++++++++++++++++++++++++++++
 Internals    0.00011136   -0.00014153   -0.69594882
 Singles      0.01455974   -0.05054337   -0.05831679
 Pairs        0.04941511    0.00010243   -0.03663679
 Total        1.06408620   -0.05058247   -0.79090241
 +++++++++++++++++++++++++++++++++++++++++++++++++++


 Reference energy                   -2428.14928935
 Nuclear energy                         0.00000000
 Kinetic energy                      2588.97554940
 One electron energy                -3378.81230303
 Two electron energy                  949.87194577
 Virial quotient                       -0.93818590
 Correlation energy                    -0.79106791
 !MRCI STATE 2.1 Energy             -2428.940357260670

 Properties without orbital relaxation:

 !MRCI STATE 2.1 Dipole moment          0.00000000     0.00000000     0.00000000
 Dipole moment /Debye                   0.00000000     0.00000000     0.00000000

 Cluster corrected energies         -2428.99105380 (Davidson, fixed reference)
 Cluster corrected energies         -2428.99098317 (Davidson, relaxed reference)
 Cluster corrected energies         -2428.99105380 (Davidson, rotated reference)

 Cluster corrected energies         -2428.98897695 (Pople, fixed reference)
 Cluster corrected energies         -2428.98890552 (Pople, relaxed reference)
 Cluster corrected energies         -2428.98897695 (Pople, rotated reference)



 RESULTS FOR STATE 3.1
 =====================

 Coefficient of reference function:   C(0) = 0.96910502 (fixed)   0.96945982 (relaxed)   0.96941915 (rotated)

 Energy contributions of configuration classes

 CLASS          SQ.NORM        ECORR1        ECORR2
 +++++++++++++++++++++++++++++++++++++++++++++++++++
 Internals    0.00011136   -0.00014153   -0.69587543
 Singles      0.01455978   -0.05054345   -0.05831681
 Pairs        0.04941507    0.00002445   -0.03671014
 Total        1.06408621   -0.05066053   -0.79090238
 +++++++++++++++++++++++++++++++++++++++++++++++++++


 Reference energy                   -2428.14928935
 Nuclear energy                         0.00000000
 Kinetic energy                      2588.97553853
 One electron energy                -3378.81229219
 Two electron energy                  949.87193496
 Virial quotient                       -0.93818590
 Correlation energy                    -0.79106788
 !MRCI STATE 3.1 Energy             -2428.940357234044

 Properties without orbital relaxation:

 !MRCI STATE 3.1 Dipole moment          0.00000000     0.00000000     0.00000000
 Dipole moment /Debye                   0.00000000     0.00000000     0.00000000

[...]
    2    2.1  1.0  1.0  23.627%   0.921%   0.032%  24.500%   0.000%  24.998%   0.000%  24.998%   0.000%   0.458%
    3    3.1  1.0  1.0   0.910%  23.620%   7.986%   0.021%  24.723%   0.000%  24.998%   0.001%  16.364%   0.000%
    4    4.1  1.0  1.0   0.000%   0.000%   0.000%   0.000%   0.000%   0.000%   0.000%   0.000%   0.001%   0.000%
    5    5.1  1.0  1.0   0.000%   0.000%   0.000%   0.000%   0.000%   0.000%   0.000%   0.000%   0.000%   0.000%
    6    6.1  1.0  1.0   0.000%   0.000%   0.000%   0.000%   0.000%   0.000%   0.000%   0.000%   0.001%   0.000%
    7    1.1  1.0  0.0  47.217%   1.859%   0.003%   0.001%   0.001%  49.996%   0.000%   0.000%   0.000%   0.000%
    8    2.1  1.0  0.0   0.004%   0.005%  16.708%   0.015%  48.708%   0.001%   0.000%   0.000%  32.727%   0.000%
    9    3.1  1.0  0.0   0.000%   0.013%   0.068%  48.998%   0.001%   0.000%   0.001%  49.996%   0.000%   0.915%
   10    4.1  1.0  0.0   0.000%   0.000%   0.000%   0.000%   0.000%   0.000%   0.000%   0.000%   0.000%   0.000%
   11    5.1  1.0  0.0   0.000%   0.000%   0.000%   0.000%   0.000%   0.000%   0.000%   0.000%   0.001%   0.000%
   12    6.1  1.0  0.0   0.000%   0.000%   0.000%   0.000%   0.000%   0.000%   0.000%   0.000%   0.000%   0.000%
   13    1.1  1.0 -1.0   0.932%  23.600%  32.673%   0.052%   0.002%   0.000%  24.998%   0.000%  16.363%   0.000%
   14    2.1  1.0 -1.0  23.627%   0.921%   0.032%  24.500%   0.000%  24.998%   0.000%  24.998%   0.000%   0.458%
   15    3.1  1.0 -1.0   0.910%  23.620%   7.986%   0.021%  24.723%   0.000%  24.998%   0.001%  16.364%   0.000%
   16    4.1  1.0 -1.0   0.000%   0.000%   0.000%   0.000%   0.000%   0.000%   0.000%   0.000%   0.001%   0.000%
   17    5.1  1.0 -1.0   0.000%   0.000%   0.000%   0.000%   0.000%   0.000%   0.000%   0.000%   0.000%   0.000%
   18    6.1  1.0 -1.0   0.000%   0.000%   0.000%   0.000%   0.000%   0.000%   0.000%   0.000%   0.001%   0.000%
   19    1.1  0.0  0.0   0.000%   0.002%   0.004%   1.826%   0.000%   0.000%   0.000%   0.000%   0.000%  98.168%
   20    2.1  0.0  0.0   0.106%   1.724%   0.000%   0.002%   0.000%   0.000%   0.000%   0.000%   0.000%   0.000%
   21    3.1  0.0  0.0   1.726%   0.105%   0.000%   0.000%   0.000%   0.000%   0.000%   0.000%   0.000%   0.000%
   22    4.1  0.0  0.0   0.000%   0.000%   0.122%   0.000%   1.709%   0.000%   0.000%   0.000%   0.000%   0.000%
   23    5.1  0.0  0.0   0.000%   0.000%   1.706%   0.003%   0.122%   0.000%   0.000%   0.000%   0.000%   0.000%
   24    6.1  0.0  0.0   0.000%   0.000%   0.000%   0.000%   0.000%   0.000%   0.000%   0.000%   1.813%   0.000%
   25    1.1  2.0  2.0   0.001%   0.000%   0.000%   0.001%   0.000%   0.001%   0.000%   0.001%   0.000%   0.000%
   26    2.1  2.0  2.0   0.000%   0.002%   0.002%   0.000%   0.001%   0.000%   0.000%   0.000%   0.000%   0.000%
   27    3.1  2.0  2.0   0.001%   0.000%   0.000%   0.001%   0.000%   0.001%   0.000%   0.001%   0.000%   0.000%
   28    1.1  2.0  1.0   0.000%   0.001%   0.002%   0.000%   0.001%   0.000%   0.001%   0.000%   0.000%   0.000%
   29    2.1  2.0  1.0   0.001%   0.000%   0.000%   0.001%   0.000%   0.001%   0.000%   0.001%   0.000%   0.000%
   30    3.1  2.0  1.0   0.000%   0.001%   0.000%   0.000%   0.003%   0.000%   0.001%   0.000%   0.000%   0.000%
   31    1.1  2.0  0.0   0.004%   0.000%   0.000%   0.000%   0.000%   0.000%   0.000%   0.000%   0.000%   0.000%
   32    2.1  2.0  0.0   0.000%   0.000%   0.000%   0.000%   0.000%   0.000%   0.002%   0.000%   0.000%   0.000%
   33    3.1  2.0  0.0   0.000%   0.000%   0.000%   0.004%   0.000%   0.000%   0.000%   0.000%   0.000%   0.000%
   34    1.1  2.0 -1.0   0.000%   0.001%   0.002%   0.000%   0.001%   0.000%   0.001%   0.000%   0.000%   0.000%
   35    2.1  2.0 -1.0   0.001%   0.000%   0.000%   0.001%   0.000%   0.001%   0.000%   0.001%   0.000%   0.000%
   36    3.1  2.0 -1.0   0.000%   0.001%   0.000%   0.000%   0.003%   0.000%   0.001%   0.000%   0.000%   0.000%
   37    1.1  2.0 -2.0   0.001%   0.000%   0.000%   0.001%   0.000%   0.001%   0.000%   0.001%   0.000%   0.000%
   38    2.1  2.0 -2.0   0.000%   0.002%   0.002%   0.000%   0.001%   0.000%   0.000%   0.000%   0.000%   0.000%
   39    3.1  2.0 -2.0   0.001%   0.000%   0.000%   0.001%   0.000%   0.001%   0.000%   0.001%   0.000%   0.000%

   Nr   State  S   Sz      11       12       13       14       15       16       17       18       19       20

    1    1.1  1.0  1.0   0.457%   0.001%   0.560%   0.051%   0.302%   0.000%   0.001%   0.000%   0.003%   0.000%
    2    2.1  1.0  1.0   0.001%   0.457%   0.000%   0.000%   0.000%   0.001%   0.000%   0.001%   0.000%   0.002%
    3    3.1  1.0  1.0   0.457%   0.001%   0.032%   0.578%   0.302%   0.000%   0.001%   0.000%   0.000%   0.000%
    4    4.1  1.0  1.0   0.000%   0.000%   0.000%   0.000%   0.000%   0.000%   0.238%   0.000%   0.026%   0.000%
    5    5.1  1.0  1.0   0.000%   0.000%   0.000%   0.000%   0.000%   0.245%   0.000%   0.250%   0.000%   0.444%
    6    6.1  1.0  1.0   0.000%   0.000%   0.000%   0.000%   0.000%   0.000%   0.256%   0.000%   0.541%   0.000%
    7    1.1  1.0  0.0   0.002%   0.913%   0.000%   0.000%   0.000%   0.002%   0.000%   0.000%   0.000%   0.004%
    8    2.1  1.0  0.0   0.000%   0.000%   0.647%   0.573%   0.605%   0.000%   0.000%   0.000%   0.003%   0.000%
    9    3.1  1.0  0.0   0.000%   0.000%   0.000%   0.000%   0.000%   0.000%   0.000%   0.002%   0.000%   0.000%
   10    4.1  1.0  0.0   0.000%   0.000%   0.000%   0.000%   0.000%   0.000%   0.000%   0.481%   0.000%   0.000%
   11    5.1  1.0  0.0   0.000%   0.000%   0.000%   0.000%   0.000%   0.000%   0.000%   0.000%   0.646%   0.000%
   12    6.1  1.0  0.0   0.000%   0.000%   0.000%   0.000%   0.000%   0.505%   0.000%   0.000%   0.000%   0.890%
   13    1.1  1.0 -1.0   0.457%   0.001%   0.560%   0.051%   0.302%   0.000%   0.001%   0.000%   0.003%   0.000%
   14    2.1  1.0 -1.0   0.001%   0.457%   0.000%   0.000%   0.000%   0.001%   0.000%   0.001%   0.000%   0.002%
   15    3.1  1.0 -1.0   0.457%   0.001%   0.032%   0.578%   0.302%   0.000%   0.001%   0.000%   0.000%   0.000%
   16    4.1  1.0 -1.0   0.000%   0.000%   0.000%   0.000%   0.000%   0.000%   0.238%   0.000%   0.026%   0.000%
   17    5.1  1.0 -1.0   0.000%   0.000%   0.000%   0.000%   0.000%   0.245%   0.000%   0.250%   0.000%   0.444%
   18    6.1  1.0 -1.0   0.000%   0.000%   0.000%   0.000%   0.000%   0.000%   0.256%   0.000%   0.541%   0.000%
   19    1.1  0.0  0.0   0.000%   0.000%   0.000%   0.000%   0.000%   0.000%   0.000%   0.000%   0.000%   0.000%
   20    2.1  0.0  0.0  98.168%   0.000%   0.000%   0.000%   0.000%   0.000%   0.000%   0.000%   0.000%   0.000%
   21    3.1  0.0  0.0   0.000%  98.168%   0.000%   0.000%   0.000%   0.000%   0.000%   0.000%   0.000%   0.000%
   22    4.1  0.0  0.0   0.000%   0.000%   0.058%  98.111%   0.000%   0.000%   0.000%   0.000%   0.000%   0.000%
   23    5.1  0.0  0.0   0.000%   0.000%  98.111%   0.058%   0.000%   0.000%   0.000%   0.000%   0.000%   0.000%
   24    6.1  0.0  0.0   0.000%   0.000%   0.000%   0.000%  98.186%   0.000%   0.000%   0.000%   0.000%   0.000%
   25    1.1  2.0  2.0   0.000%   0.000%   0.000%   0.000%   0.000%  14.777%   0.000%  14.949%   0.000%   8.255%
   26    2.1  2.0  2.0   0.000%   0.000%   0.000%   0.000%   0.000%   0.000%   0.002%   0.000%  14.763%   0.000%
   27    3.1  2.0  2.0   0.000%   0.000%   0.000%   0.000%   0.000%  14.781%   0.000%  14.952%   0.000%   8.260%
   28    1.1  2.0  1.0   0.000%   0.000%   0.000%   0.000%   0.000%   0.000%  15.021%   0.000%  31.279%   0.000%
   29    2.1  2.0  1.0   0.000%   0.000%   0.000%   0.000%   0.000%  14.919%   0.000%  14.755%   0.000%   8.110%
   30    3.1  2.0  1.0   0.000%   0.000%   0.000%   0.000%   0.000%   0.000%  14.681%   0.000%   3.065%   0.000%
   31    1.1  2.0  0.0   0.000%   0.000%   0.000%   0.000%   0.000%  10.045%   0.000%   0.000%   0.000%  48.965%
   32    2.1  2.0  0.0   0.000%   0.000%   0.000%   0.000%   0.000%   0.000%  39.600%   0.000%   0.000%   0.000%
   33    3.1  2.0  0.0   0.000%   0.000%   0.000%   0.000%   0.000%   0.000%   0.000%   9.702%   0.000%   0.000%
   34    1.1  2.0 -1.0   0.000%   0.000%   0.000%   0.000%   0.000%   0.000%  15.021%   0.000%  31.279%   0.000%
   35    2.1  2.0 -1.0   0.000%   0.000%   0.000%   0.000%   0.000%  14.919%   0.000%  14.755%   0.000%   8.110%
   36    3.1  2.0 -1.0   0.000%   0.000%   0.000%   0.000%   0.000%   0.000%  14.681%   0.000%   3.065%   0.000%
   37    1.1  2.0 -2.0   0.000%   0.000%   0.000%   0.000%   0.000%  14.777%   0.000%  14.949%   0.000%   8.255%
   38    2.1  2.0 -2.0   0.000%   0.000%   0.000%   0.000%   0.000%   0.000%   0.002%   0.000%  14.763%   0.000%
   39    3.1  2.0 -2.0   0.000%   0.000%   0.000%   0.000%   0.000%  14.781%   0.000%  14.952%   0.000%   8.260%

   Nr   State  S   Sz      21       22       23       24       25       26       27       28       29       30

    1    1.1  1.0  1.0   0.002%   0.000%   0.000%   0.000%   0.000%   0.000%   0.000%   0.000%   0.000%   0.000%
    2    2.1  1.0  1.0   0.000%   0.002%   0.000%   0.000%   0.000%   0.000%   0.000%   0.000%   0.000%   0.000%
    3    3.1  1.0  1.0   0.002%   0.000%   0.003%   0.000%   0.000%   0.000%   0.000%   0.000%   0.000%   0.000%
    4    4.1  1.0  1.0   0.439%   0.000%   0.553%   0.000%   0.000%   0.000%   0.000%   0.000%   0.000%   0.000%
    5    5.1  1.0  1.0   0.000%   0.439%   0.000%   0.000%   0.000%   0.000%   0.000%   0.000%   0.000%   0.000%
    6    6.1  1.0  1.0   0.442%   0.000%   0.056%   0.000%   0.000%   0.000%   0.000%   0.000%   0.000%   0.000%
    7    1.1  1.0  0.0   0.000%   0.000%   0.000%   0.000%   0.000%   0.000%   0.000%   0.000%   0.000%   0.000%
    8    2.1  1.0  0.0   0.000%   0.000%   0.003%   0.000%   0.000%   0.000%   0.000%   0.000%   0.000%   0.000%
    9    3.1  1.0  0.0   0.000%   0.004%   0.000%   0.000%   0.000%   0.000%   0.000%   0.000%   0.000%   0.000%
   10    4.1  1.0  0.0   0.000%   0.874%   0.000%   0.000%   0.000%   0.000%   0.000%   0.000%   0.000%   0.000%
   11    5.1  1.0  0.0   0.000%   0.000%   0.532%   0.000%   0.000%   0.000%   0.000%   0.000%   0.000%   0.000%
   12    6.1  1.0  0.0   0.000%   0.000%   0.000%   0.000%   0.000%   0.000%   0.000%   0.000%   0.000%   0.000%
   13    1.1  1.0 -1.0   0.002%   0.000%   0.000%   0.000%   0.000%   0.000%   0.000%   0.000%   0.000%   0.000%
   14    2.1  1.0 -1.0   0.000%   0.002%   0.000%   0.000%   0.000%   0.000%   0.000%   0.000%   0.000%   0.000%
   15    3.1  1.0 -1.0   0.002%   0.000%   0.003%   0.000%   0.000%   0.000%   0.000%   0.000%   0.000%   0.000%
   16    4.1  1.0 -1.0   0.439%   0.000%   0.553%   0.000%   0.000%   0.000%   0.000%   0.000%   0.000%   0.000%
   17    5.1  1.0 -1.0   0.000%   0.439%   0.000%   0.000%   0.000%   0.000%   0.000%   0.000%   0.000%   0.000%
   18    6.1  1.0 -1.0   0.442%   0.000%   0.056%   0.000%   0.000%   0.000%   0.000%   0.000%   0.000%   0.000%
   19    1.1  0.0  0.0   0.000%   0.000%   0.000%   0.000%   0.000%   0.000%   0.000%   0.000%   0.000%   0.000%
   20    2.1  0.0  0.0   0.000%   0.000%   0.000%   0.000%   0.000%   0.000%   0.000%   0.000%   0.000%   0.000%
   21    3.1  0.0  0.0   0.000%   0.000%   0.000%   0.000%   0.000%   0.000%   0.000%   0.000%   0.000%   0.000%
   22    4.1  0.0  0.0   0.000%   0.000%   0.000%   0.000%   0.000%   0.000%   0.000%   0.000%   0.000%   0.000%
   23    5.1  0.0  0.0   0.000%   0.000%   0.000%   0.000%   0.000%   0.000%   0.000%   0.000%   0.000%   0.000%
   24    6.1  0.0  0.0   0.000%   0.000%   0.000%   0.000%   0.000%   0.000%   0.000%   0.000%   0.000%   0.000%
   25    1.1  2.0  2.0   0.000%   8.083%   0.000%  11.106%   0.000%  25.511%   0.000%  15.565%   0.000%   1.161%
   26    2.1  2.0  2.0  32.741%   0.000%  17.980%   0.000%   8.297%   0.000%  16.667%   0.000%   8.370%   0.000%
   27    3.1  2.0  2.0   0.000%   8.088%   0.000%   1.012%   0.000%  15.188%   0.000%  25.650%   0.000%  11.474%
   28    1.1  2.0  1.0   8.015%   0.000%   1.458%   0.000%  26.224%   0.000%  16.667%   0.000%   0.439%   0.000%
   29    2.1  2.0  1.0   0.000%   8.290%   0.000%  21.651%   0.000%   5.315%   0.000%   5.020%   0.000%  21.348%
   30    3.1  2.0  1.0   8.357%   0.000%  29.682%   0.000%   0.408%   0.000%  16.665%   0.000%  26.262%   0.000%
   31    1.1  2.0  0.0   0.000%   0.000%   0.000%  32.462%   0.000%   0.000%   0.000%   7.531%   0.000%   0.000%
   32    2.1  2.0  0.0   0.002%   0.000%   0.000%   0.000%  30.141%   0.000%   0.000%   0.000%  29.859%   0.000%
   33    3.1  2.0  0.0   0.000%  49.318%   0.000%   0.000%   0.000%   7.972%   0.000%   0.000%   0.000%  32.034%
   34    1.1  2.0 -1.0   8.015%   0.000%   1.458%   0.000%  26.224%   0.000%  16.667%   0.000%   0.439%   0.000%
   35    2.1  2.0 -1.0   0.000%   8.290%   0.000%  21.651%   0.000%   5.315%   0.000%   5.020%   0.000%  21.348%
   36    3.1  2.0 -1.0   8.357%   0.000%  29.682%   0.000%   0.408%   0.000%  16.665%   0.000%  26.262%   0.000%
   37    1.1  2.0 -2.0   0.000%   8.083%   0.000%  11.106%   0.000%  25.511%   0.000%  15.565%   0.000%   1.161%
   38    2.1  2.0 -2.0  32.741%   0.000%  17.980%   0.000%   8.297%   0.000%  16.667%   0.000%   8.370%   0.000%
   39    3.1  2.0 -2.0   0.000%   8.088%   0.000%   1.012%   0.000%  15.188%   0.000%  25.650%   0.000%  11.474%

   Nr   State  S   Sz      31       32       33       34       35       36       37       38       39

    1    1.1  1.0  1.0   0.001%   0.000%   0.000%   0.000%   0.000%   0.000%   0.000%   0.000%   0.000%
    2    2.1  1.0  1.0   0.000%   0.000%   0.000%   0.000%   0.000%   0.000%   0.000%   0.000%   0.000%
    3    3.1  1.0  1.0   0.001%   0.000%   0.000%   0.000%   0.000%   0.000%   0.000%   0.000%   0.000%
    4    4.1  1.0  1.0  16.831%   0.002%  25.325%   0.001%  31.065%   0.001%  23.995%   0.001%   1.521%
    5    5.1  1.0  1.0   0.002%  24.418%   0.002%  25.001%   0.001%  24.888%   0.002%  24.306%   0.001%
    6    6.1  1.0  1.0  16.513%   0.001%  24.179%   0.002%   2.987%   0.001%  25.121%   0.001%  29.901%
    7    1.1  1.0  0.0   0.000%   0.000%   0.000%   0.001%   0.000%   0.000%   0.000%   0.000%   0.000%
    8    2.1  1.0  0.0   0.001%   0.000%   0.000%   0.000%   0.000%   0.000%   0.000%   0.000%   0.000%
    9    3.1  1.0  0.0   0.000%   0.001%   0.000%   0.000%   0.000%   0.000%   0.000%   0.000%   0.000%
   10    4.1  1.0  0.0   0.003%  50.173%   0.000%   0.000%   0.000%  48.467%   0.000%   0.000%   0.002%
   11    5.1  1.0  0.0  33.299%   0.004%   0.000%   0.003%  30.141%   0.001%   0.000%   0.001%  35.371%
   12    6.1  1.0  0.0   0.002%   0.000%   0.000%  48.993%   0.001%   0.000%   0.000%  49.606%   0.000%
   13    1.1  1.0 -1.0   0.001%   0.000%   0.000%   0.000%   0.000%   0.000%   0.000%   0.000%   0.000%
   14    2.1  1.0 -1.0   0.000%   0.000%   0.000%   0.000%   0.000%   0.000%   0.000%   0.000%   0.000%
   15    3.1  1.0 -1.0   0.001%   0.000%   0.000%   0.000%   0.000%   0.000%   0.000%   0.000%   0.000%
   16    4.1  1.0 -1.0  16.831%   0.002%  25.325%   0.001%  31.065%   0.001%  23.995%   0.001%   1.521%
   17    5.1  1.0 -1.0   0.002%  24.418%   0.002%  25.001%   0.001%  24.888%   0.002%  24.306%   0.001%
   18    6.1  1.0 -1.0  16.513%   0.001%  24.179%   0.002%   2.987%   0.001%  25.121%   0.001%  29.901%
   19    1.1  0.0  0.0   0.000%   0.000%   0.000%   0.000%   0.000%   0.000%   0.000%   0.000%   0.000%
   20    2.1  0.0  0.0   0.000%   0.000%   0.000%   0.000%   0.000%   0.000%   0.000%   0.000%   0.000%
   21    3.1  0.0  0.0   0.000%   0.000%   0.000%   0.000%   0.000%   0.000%   0.000%   0.000%   0.000%
   22    4.1  0.0  0.0   0.000%   0.000%   0.000%   0.000%   0.000%   0.000%   0.000%   0.000%   0.000%
   23    5.1  0.0  0.0   0.000%   0.000%   0.000%   0.000%   0.000%   0.000%   0.000%   0.000%   0.000%
   24    6.1  0.0  0.0   0.001%   0.000%   0.000%   0.000%   0.000%   0.000%   0.000%   0.000%   0.000%
   25    1.1  2.0  2.0   0.000%   0.146%   0.000%   0.150%   0.000%   0.149%   0.000%   0.146%   0.000%
   26    2.1  2.0  2.0   0.000%   0.000%   0.000%   0.000%   0.317%   0.000%   0.588%   0.000%   0.271%
   27    3.1  2.0  2.0   0.000%   0.147%   0.000%   0.150%   0.000%   0.149%   0.000%   0.146%   0.000%
   28    1.1  2.0  1.0   0.000%   0.000%   0.147%   0.000%   0.027%   0.000%   0.153%   0.000%   0.565%
   29    2.1  2.0  1.0   0.000%   0.148%   0.000%   0.149%   0.000%   0.143%   0.000%   0.150%   0.000%
   30    3.1  2.0  1.0   0.000%   0.000%   0.149%   0.000%   0.531%   0.000%   0.141%   0.000%   0.053%
   31    1.1  2.0  0.0   0.000%   0.000%   0.000%   0.099%   0.000%   0.000%   0.000%   0.894%   0.000%
   32    2.1  2.0  0.0   0.000%   0.000%   0.395%   0.000%   0.000%   0.000%   0.000%   0.000%   0.000%
   33    3.1  2.0  0.0   0.000%   0.099%   0.000%   0.000%   0.000%   0.870%   0.000%   0.000%   0.000%
   34    1.1  2.0 -1.0   0.000%   0.000%   0.147%   0.000%   0.027%   0.000%   0.153%   0.000%   0.565%
   35    2.1  2.0 -1.0   0.000%   0.148%   0.000%   0.149%   0.000%   0.143%   0.000%   0.150%   0.000%
   36    3.1  2.0 -1.0   0.000%   0.000%   0.149%   0.000%   0.531%   0.000%   0.141%   0.000%   0.053%
   37    1.1  2.0 -2.0   0.000%   0.146%   0.000%   0.150%   0.000%   0.149%   0.000%   0.146%   0.000%
   38    2.1  2.0 -2.0   0.000%   0.000%   0.000%   0.000%   0.317%   0.000%   0.588%   0.000%   0.271%
   39    3.1  2.0 -2.0   0.000%   0.147%   0.000%   0.150%   0.000%   0.149%   0.000%   0.146%   0.000%


 Property matrices transformed in SO basis (not sym. adapted)
 ============================================================

 No matrix element <i|DMX|i> larger than 5E-7
 No matrix element <i|DMX|1> larger than 5E-7

 No matrix element <i|DMY|i> larger than 5E-7
 No matrix element <i|DMY|1> larger than 5E-7

 No matrix element <i|DMZ|i> larger than 5E-7
 No matrix element <i|DMZ|1> larger than 5E-7


 **********************************************************************************************************************************
 DATASETS  * FILE   NREC   LENGTH (MB)   RECORD NAMES
              1      24      265.21       500      610      700      900      950      970     1000      129      960     1700   
                                          VAR    BASINP    GEOM    SYMINP    ZMAT    AOBASIS   BASIS     P2S    ABASIS    OPER   
                                         1101     1401     1411     1412     1650     1100     1400     1410     1200     1210   
                                          SR      EKINR    POTR     PVPR    MOLCAS      S      EKIN      POT      H0       H01  
                                         1080     1600     1380     1700(1)
                                         AOSYM     SMH     JKOP     OPER   

              2       8      955.70       700     1000      520     2100     2140     5302     5102     5502   
                                         GEOM     BASIS   MCVARS     RHF     MCSCF    MRCI     MRCI     MRCI   

 PROGRAMS   *        TOTAL        CI     LSINT        CI        CI        CI     MULTI   RHF-SCF       INT
 CPU TIMES  *     35012.72  31058.25      8.02    275.90   1289.03   2375.39      4.32      0.16      1.20
 REAL TIME  *     35423.96 SEC
 DISK USED  *      1003.19 MB (local),       12.57 GB (total)
 SF USED    *         5.28 GB
 GA USED    *         0.00 MB       (max)       0.00 MB       (current)
 **********************************************************************************************************************************

 CI/USERDEF energy=  -2428.723124943472

              CI              CI              CI           MULTI         RHF-SCF
  -2428.68546010  -2428.84267754  -2428.67632096  -2427.91670838  -2427.84300620
 **********************************************************************************************************************************
 Molpro calculation terminated with 1 warning(s)
