
 Working directory              : /wrk/irikura/molpro.D7oHaX0J3k/
 Global scratch directory       : /wrk/irikura/molpro.D7oHaX0J3k/
 Wavefunction directory         : /home/irikura/wfu/
 Main file repository           : /wrk/irikura/molpro.D7oHaX0J3k/

 id        : nistki

 Nodes            nprocs
 pn112695.nist.gov   16
 GA implementation: MPI file
 GA implementation (serial work in mppx): MPI file

 Using customized tuning parameters: mindgm=1; mindgv=20; mindgc=4; mindgr=1; noblas=0; minvec=7
 default implementation of scratch files=sf  


 Variables initialized (1040), CPU time= 0.01 sec
 ***,Se SO-CI
 memory,1500,M;
 
 gprint,orbitals,civector,basis;
 
 symmetry,xyz
 geometry={Se};
 
                                                                                 !basis=AWCV5Z-PP
 basis={
 ecp,se,ECP10MDF;
 spdfghi,se,AWCV5Z-PP;C; spdf,1,even,nprim=1,ratio=3.0;
 }
 
 NT=3
 NS=6
 PAR=1                                                                           ! parity even (1) or odd (2)
 
 {rhf;wf,charge=1,sym=2,spin=3}
 
 {multi
     closed,6,3
     occ,7,9
     wf,charge=0,sym=PAR,spin=2;state,NT;
     wf,charge=0,sym=PAR,spin=0;state,NS;
     expec2,lxx,lyy,lzz;
 }
 table, energy, ll
 title, Energies and &lt;L**2&gt; values
 
 core,0,0
 
 {ci;wf,sym=PAR,spin=2;state,NT; save,5302.2}
 hlsdiag = energd4
                                                                                 !hlsdiag(1) = energd
 {ci;wf,sym=PAR,spin=0;state,NS; save,5102.2}
 hlsdiag(NT+1) = energd4
 
 table,hlsdiag
 
 {ci;hlsmat,ecp,5302.2,5102.2;print,vls=0,hls=0}                                 !compute and diagonalize SO matrix
 Commands initialized (846), CPU time= 0.02 sec, 717 directives.
 Default parameters read. Elapsed time= 0.13 sec

 Checking input...
 Passed
1


                                         ***  PROGRAM SYSTEM MOLPRO  ***
                                       Copyright, TTI GmbH Stuttgart, 2015
                                    Version 2023.2 linked Fri Sep 22 03:27:09 2023


 **********************************************************************************************************************************
 LABEL *   Se SO-CI                                                                                                                                                      
  (32 PROC) 64 bit mpp version                                                           DATE: 11-Sep-24          TIME: 15:01:41  
 **********************************************************************************************************************************

 SHA1:             3c61bfe44d37c8635c785372c339f5cbdd4e4b59
 **********************************************************************************************************************************

 Memory per process:      1500 MW
 Total memory per node:  24000 MW

 GA preallocation disabled
 GA check disabled

 Variable memory set to 1500.0 MW


 ZSYMEL=XYZ

 SETTING BASIS          =    USERDEF
 SETTING NT             =         3.00000000                                  
 SETTING NS             =         6.00000000                                  
 SETTING PAR            =         1.00000000                                  


 Recomputing integrals since basis changed


 Using spherical harmonics

 Library entry Se   ECP ECP10MDF                 selected for group  1
 Library entry SE     S AWCV5Z-PP            selected for orbital group  1
 Even tempered Se S diffuse               selected for group 1    nprim= 1    centre=  0.011    ratio= 3.000    dratio= 1.000
 Library entry SE     P AWCV5Z-PP            selected for orbital group  1
 Even tempered Se P diffuse               selected for group 1    nprim= 1    centre=  0.008    ratio= 3.000    dratio= 1.000
 Library entry SE     D AWCV5Z-PP            selected for orbital group  1
 Even tempered Se D diffuse               selected for group 1    nprim= 1    centre=  0.017    ratio= 3.000    dratio= 1.000
 Library entry SE     F AWCV5Z-PP            selected for orbital group  1
 Even tempered Se F diffuse               selected for group 1    nprim= 1    centre=  0.032    ratio= 3.000    dratio= 1.000
 Library entry SE     G AWCV5Z-PP            selected for orbital group  1
 Library entry SE     H AWCV5Z-PP            selected for orbital group  1
 Library entry SE     I AWCV5Z-PP            selected for orbital group  1


 PROGRAM * SEWARD (Integral evaluation for generally contracted gaussian basis sets)     Author: Roland Lindh, 1990

 Geometry written to block  1 of record 700

 Orientation using atomic masses  
 Molecule type: Atom
 User-specified symmetry elements: XYZ
 Symmetry elements: XYZ
 Rotational constants:       0.0000000      0.0000000      0.0000000 GHz  (calculated with average atomic masses)

 Point group  Ci  



 ATOMIC COORDINATES

 NR  ATOM    CHARGE       X              Y              Z

   1  SE     24.00    0.000000000    0.000000000    0.000000000


          SE  CORE POTENTIAL

          g POTENTIAL

 POWERS             2
 EXPONENTIALS   1.000000    
 COEFFICIENTS   0.000000    

          s - g POTENTIAL

 POWERS             2              2
 EXPONENTIALS   30.04699       6.918688    
 COEFFICIENTS   370.1229       10.45617    

          p - g POTENTIAL

 POWERS             2              2              2              2
 EXPONENTIALS   45.77301       45.29464       20.73965       20.02860    
 COEFFICIENTS   99.13506       198.2925       28.33875       56.74975    

          d - g POTENTIAL

 POWERS             2              2              2              2              2              2
 EXPONENTIALS   50.94177       49.59474       16.32352       14.46520       3.775330       3.501953    
 COEFFICIENTS  -18.52656      -28.33492     -0.6960890      -1.167891      4.1443000E-02  0.2355830    

          f - g POTENTIAL

 POWERS             2              2
 EXPONENTIALS   11.95087       17.81078    
 COEFFICIENTS -0.7662620      -2.102742    


          SE  SPIN-ORBIT POTENTIAL

          p POTENTIAL

 POWERS             2              2              2              2
 EXPONENTIALS   45.77301       45.29464       20.73965       20.02860    
 COEFFICIENTS  -198.2701       198.2925      -56.67750       56.74975    

          d POTENTIAL

 POWERS             2              2              2              2              2              2
 EXPONENTIALS   50.94177       49.59474       16.32352       14.46520       3.775330       3.501953    
 COEFFICIENTS   18.52656      -18.88995      0.6960890     -0.7785940     -4.1443000E-02  0.1570550    

          f POTENTIAL

 POWERS             2              2
 EXPONENTIALS   11.95087       17.81078    
 COEFFICIENTS  0.5108410      -1.051371    


 BASIS DATA

   Nr Sym  Nuc  Type         Exponents   Contraction coefficients

    1.1 Ag    1  1s      190762.000000     0.000010    0.000000    0.000000    0.000000    0.000000    0.000000
                                           0.000000
    2.1 Ag                28502.400000     0.000075    0.000000    0.000000    0.000000    0.000000    0.000000
                                           0.000000
    3.1 Ag                 6487.760000     0.000385    0.000000    0.000000    0.000000    0.000000    0.000000
                                           0.000000
    4.1 Ag                 1840.180000     0.001497    0.000000    0.000000    0.000000    0.000000    0.000000
                                           0.000000
    5.1 Ag                  601.037000     0.004447    0.000000    0.000000    0.000000    0.000000    0.000000
                                           0.000000
    6.1 Ag                  211.485000     0.008843    0.000000    0.000000    0.000000    0.000000    0.000000
                                           0.000000
    7.1 Ag                   35.589600     0.171600    1.000000    0.000000    0.000000    0.000000    0.000000
                                           0.000000
                             22.244900    -0.340518    0.000000    0.000000    0.000000    0.000000    0.000000
                                           0.000000
                             11.102900    -0.226853    0.000000    0.000000    0.000000    0.000000    0.000000
                                           0.000000
                              5.915500     0.216776    0.000000    0.000000    0.000000    0.000000    0.000000
                                           0.000000
                              3.047990     0.635632    0.000000    0.000000    0.000000    0.000000    0.000000
                                           0.000000
                              1.548170     0.395490    0.000000    1.000000    0.000000    0.000000    0.000000
                                           0.000000
                              0.614793     0.040694    0.000000    0.000000    1.000000    0.000000    0.000000
                                           0.000000
                              0.362313    -0.009402    0.000000    0.000000    0.000000    1.000000    0.000000
                                           0.000000
                              0.177517     0.002687    0.000000    0.000000    0.000000    0.000000    1.000000
                                           0.000000
                              0.082226    -0.000355    0.000000    0.000000    0.000000    0.000000    0.000000
                                           1.000000
    8.1 Ag    1  1s          23.808600     1.000000
    9.1 Ag    1  1s          11.989100     1.000000
   10.1 Ag    1  1s           6.037300     1.000000
   11.1 Ag    1  1s           3.040200     1.000000
   12.1 Ag    1  1s           0.033000     1.000000
   13.1 Ag    1  1s           0.011000     1.000000
   14.1 Ag    1  3d0       1240.430000     0.000069
                            376.754000     0.000724
                            148.278000     0.004833
                             67.934800     0.023900
                             34.376500     0.066148
                             17.706600     0.140573
                              9.367010     0.230245
                              4.978220     0.289309
                              2.631730     0.281386
                              1.369220     0.190995
                              0.678817     0.072539
                              0.291818     0.009473
   15.1 Ag    1  3d2-      1240.430000     0.000069
                            376.754000     0.000724
                            148.278000     0.004833
                             67.934800     0.023900
                             34.376500     0.066148
                             17.706600     0.140573
                              9.367010     0.230245
                              4.978220     0.289309
                              2.631730     0.281386
                              1.369220     0.190995
                              0.678817     0.072539
                              0.291818     0.009473
   16.1 Ag    1  3d1+      1240.430000     0.000069
                            376.754000     0.000724
                            148.278000     0.004833
                             67.934800     0.023900
                             34.376500     0.066148
                             17.706600     0.140573
                              9.367010     0.230245
                              4.978220     0.289309
                              2.631730     0.281386
                              1.369220     0.190995
                              0.678817     0.072539
                              0.291818     0.009473
   17.1 Ag    1  3d2+      1240.430000     0.000069
                            376.754000     0.000724
                            148.278000     0.004833
                             67.934800     0.023900
                             34.376500     0.066148
                             17.706600     0.140573
                              9.367010     0.230245
                              4.978220     0.289309
                              2.631730     0.281386
                              1.369220     0.190995
                              0.678817     0.072539
                              0.291818     0.009473
   18.1 Ag    1  3d1-      1240.430000     0.000069
                            376.754000     0.000724
                            148.278000     0.004833
                             67.934800     0.023900
                             34.376500     0.066148
                             17.706600     0.140573
                              9.367010     0.230245
                              4.978220     0.289309
                              2.631730     0.281386
                              1.369220     0.190995
                              0.678817     0.072539
                              0.291818     0.009473
   19.1 Ag    1  3d0       1240.430000     0.000000
                            376.754000     0.000000
                            148.278000     0.000000
                             67.934800     0.000000
                             34.376500     0.000000
                             17.706600     0.000000
                              9.367010     0.000000
                              4.978220     0.000000
                              2.631730     0.000000
                              1.369220     1.000000
                              0.678817     0.000000
                              0.291818     0.000000
   20.1 Ag    1  3d2-      1240.430000     0.000000
                            376.754000     0.000000
                            148.278000     0.000000
                             67.934800     0.000000
                             34.376500     0.000000
                             17.706600     0.000000
                              9.367010     0.000000
                              4.978220     0.000000
                              2.631730     0.000000
                              1.369220     1.000000
                              0.678817     0.000000
                              0.291818     0.000000
   21.1 Ag    1  3d1+      1240.430000     0.000000
                            376.754000     0.000000
                            148.278000     0.000000
                             67.934800     0.000000
                             34.376500     0.000000
                             17.706600     0.000000
                              9.367010     0.000000
                              4.978220     0.000000
                              2.631730     0.000000
                              1.369220     1.000000
                              0.678817     0.000000
                              0.291818     0.000000
   22.1 Ag    1  3d2+      1240.430000     0.000000
                            376.754000     0.000000
                            148.278000     0.000000
                             67.934800     0.000000
                             34.376500     0.000000
                             17.706600     0.000000
                              9.367010     0.000000
                              4.978220     0.000000
                              2.631730     0.000000
                              1.369220     1.000000
                              0.678817     0.000000
                              0.291818     0.000000
   23.1 Ag    1  3d1-      1240.430000     0.000000
                            376.754000     0.000000
                            148.278000     0.000000
                             67.934800     0.000000
                             34.376500     0.000000
                             17.706600     0.000000
                              9.367010     0.000000
                              4.978220     0.000000
                              2.631730     0.000000
                              1.369220     1.000000
                              0.678817     0.000000
                              0.291818     0.000000
   24.1 Ag    1  3d0       1240.430000     0.000000
                            376.754000     0.000000
                            148.278000     0.000000
                             67.934800     0.000000
                             34.376500     0.000000
                             17.706600     0.000000
                              9.367010     0.000000
                              4.978220     0.000000
                              2.631730     0.000000
                              1.369220     0.000000
                              0.678817     1.000000
                              0.291818     0.000000
   25.1 Ag    1  3d2-      1240.430000     0.000000
                            376.754000     0.000000
                            148.278000     0.000000
                             67.934800     0.000000
                             34.376500     0.000000
                             17.706600     0.000000
                              9.367010     0.000000
                              4.978220     0.000000
                              2.631730     0.000000
                              1.369220     0.000000
                              0.678817     1.000000
                              0.291818     0.000000
   26.1 Ag    1  3d1+      1240.430000     0.000000
                            376.754000     0.000000
                            148.278000     0.000000
                             67.934800     0.000000
                             34.376500     0.000000
                             17.706600     0.000000
                              9.367010     0.000000
                              4.978220     0.000000
                              2.631730     0.000000
                              1.369220     0.000000
                              0.678817     1.000000
                              0.291818     0.000000
   27.1 Ag    1  3d2+      1240.430000     0.000000
                            376.754000     0.000000
                            148.278000     0.000000
                             67.934800     0.000000
                             34.376500     0.000000
                             17.706600     0.000000
                              9.367010     0.000000
                              4.978220     0.000000
                              2.631730     0.000000
                              1.369220     0.000000
                              0.678817     1.000000
                              0.291818     0.000000
   28.1 Ag    1  3d1-      1240.430000     0.000000
                            376.754000     0.000000
                            148.278000     0.000000
                             67.934800     0.000000
                             34.376500     0.000000
                             17.706600     0.000000
                              9.367010     0.000000
                              4.978220     0.000000
                              2.631730     0.000000
                              1.369220     0.000000
                              0.678817     1.000000
                              0.291818     0.000000
   29.1 Ag    1  3d0       1240.430000     0.000000
                            376.754000     0.000000
                            148.278000     0.000000
                             67.934800     0.000000
                             34.376500     0.000000
                             17.706600     0.000000
                              9.367010     0.000000
                              4.978220     0.000000
                              2.631730     0.000000
                              1.369220     0.000000
                              0.678817     0.000000
                              0.291818     1.000000
   30.1 Ag    1  3d2-      1240.430000     0.000000
                            376.754000     0.000000
                            148.278000     0.000000
                             67.934800     0.000000
                             34.376500     0.000000
                             17.706600     0.000000
                              9.367010     0.000000
                              4.978220     0.000000
                              2.631730     0.000000
                              1.369220     0.000000
                              0.678817     0.000000
                              0.291818     1.000000
   31.1 Ag    1  3d1+      1240.430000     0.000000
                            376.754000     0.000000
                            148.278000     0.000000
                             67.934800     0.000000
                             34.376500     0.000000
                             17.706600     0.000000
                              9.367010     0.000000
                              4.978220     0.000000
                              2.631730     0.000000
                              1.369220     0.000000
                              0.678817     0.000000
                              0.291818     1.000000
   32.1 Ag    1  3d2+      1240.430000     0.000000
                            376.754000     0.000000
                            148.278000     0.000000
                             67.934800     0.000000
                             34.376500     0.000000
                             17.706600     0.000000
                              9.367010     0.000000
                              4.978220     0.000000
                              2.631730     0.000000
                              1.369220     0.000000
                              0.678817     0.000000
                              0.291818     1.000000
   33.1 Ag    1  3d1-      1240.430000     0.000000
                            376.754000     0.000000
                            148.278000     0.000000
                             67.934800     0.000000
                             34.376500     0.000000
                             17.706600     0.000000
                              9.367010     0.000000
                              4.978220     0.000000
                              2.631730     0.000000
                              1.369220     0.000000
                              0.678817     0.000000
                              0.291818     1.000000
   34.1 Ag    1  3d0          0.123400     1.000000
   35.1 Ag    1  3d2-         0.123400     1.000000
   36.1 Ag    1  3d1+         0.123400     1.000000
   37.1 Ag    1  3d2+         0.123400     1.000000
   38.1 Ag    1  3d1-         0.123400     1.000000
   39.1 Ag    1  3d0         14.302400     1.000000
   40.1 Ag    1  3d2-        14.302400     1.000000
   41.1 Ag    1  3d1+        14.302400     1.000000
   42.1 Ag    1  3d2+        14.302400     1.000000
   43.1 Ag    1  3d1-        14.302400     1.000000
   44.1 Ag    1  3d0          8.366200     1.000000
   45.1 Ag    1  3d2-         8.366200     1.000000
   46.1 Ag    1  3d1+         8.366200     1.000000
   47.1 Ag    1  3d2+         8.366200     1.000000
   48.1 Ag    1  3d1-         8.366200     1.000000
   49.1 Ag    1  3d0          4.893900     1.000000
   50.1 Ag    1  3d2-         4.893900     1.000000
   51.1 Ag    1  3d1+         4.893900     1.000000
   52.1 Ag    1  3d2+         4.893900     1.000000
   53.1 Ag    1  3d1-         4.893900     1.000000
   54.1 Ag    1  3d0          2.862700     1.000000
   55.1 Ag    1  3d2-         2.862700     1.000000
   56.1 Ag    1  3d1+         2.862700     1.000000
   57.1 Ag    1  3d2+         2.862700     1.000000
   58.1 Ag    1  3d1-         2.862700     1.000000
   59.1 Ag    1  3d0          0.051000     1.000000
   60.1 Ag    1  3d2-         0.051000     1.000000
   61.1 Ag    1  3d1+         0.051000     1.000000
   62.1 Ag    1  3d2+         0.051000     1.000000
   63.1 Ag    1  3d1-         0.051000     1.000000
   64.1 Ag    1  3d0          0.017000     1.000000
   65.1 Ag    1  3d2-         0.017000     1.000000
   66.1 Ag    1  3d1+         0.017000     1.000000
   67.1 Ag    1  3d2+         0.017000     1.000000
   68.1 Ag    1  3d1-         0.017000     1.000000
   69.1 Ag    1  5g0          0.860800     1.000000
   70.1 Ag    1  5g2-         0.860800     1.000000
   71.1 Ag    1  5g1+         0.860800     1.000000
   72.1 Ag    1  5g4+         0.860800     1.000000
   73.1 Ag    1  5g1-         0.860800     1.000000
   74.1 Ag    1  5g2+         0.860800     1.000000
   75.1 Ag    1  5g4-         0.860800     1.000000
   76.1 Ag    1  5g3+         0.860800     1.000000
   77.1 Ag    1  5g3-         0.860800     1.000000
   78.1 Ag    1  5g0          0.386400     1.000000
   79.1 Ag    1  5g2-         0.386400     1.000000
   80.1 Ag    1  5g1+         0.386400     1.000000
   81.1 Ag    1  5g4+         0.386400     1.000000
   82.1 Ag    1  5g1-         0.386400     1.000000
   83.1 Ag    1  5g2+         0.386400     1.000000
   84.1 Ag    1  5g4-         0.386400     1.000000
   85.1 Ag    1  5g3+         0.386400     1.000000
   86.1 Ag    1  5g3-         0.386400     1.000000
   87.1 Ag    1  5g0         12.866900     1.000000
   88.1 Ag    1  5g2-        12.866900     1.000000
   89.1 Ag    1  5g1+        12.866900     1.000000
   90.1 Ag    1  5g4+        12.866900     1.000000
   91.1 Ag    1  5g1-        12.866900     1.000000
   92.1 Ag    1  5g2+        12.866900     1.000000
   93.1 Ag    1  5g4-        12.866900     1.000000
   94.1 Ag    1  5g3+        12.866900     1.000000
   95.1 Ag    1  5g3-        12.866900     1.000000
   96.1 Ag    1  5g0          5.292600     1.000000
   97.1 Ag    1  5g2-         5.292600     1.000000
   98.1 Ag    1  5g1+         5.292600     1.000000
   99.1 Ag    1  5g4+         5.292600     1.000000
  100.1 Ag    1  5g1-         5.292600     1.000000
  101.1 Ag    1  5g2+         5.292600     1.000000
  102.1 Ag    1  5g4-         5.292600     1.000000
  103.1 Ag    1  5g3+         5.292600     1.000000
  104.1 Ag    1  5g3-         5.292600     1.000000
  105.1 Ag    1  5g0          2.177000     1.000000
  106.1 Ag    1  5g2-         2.177000     1.000000
  107.1 Ag    1  5g1+         2.177000     1.000000
  108.1 Ag    1  5g4+         2.177000     1.000000
  109.1 Ag    1  5g1-         2.177000     1.000000
  110.1 Ag    1  5g2+         2.177000     1.000000
  111.1 Ag    1  5g4-         2.177000     1.000000
  112.1 Ag    1  5g3+         2.177000     1.000000
  113.1 Ag    1  5g3-         2.177000     1.000000
  114.1 Ag    1  5g0          0.178900     1.000000
  115.1 Ag    1  5g2-         0.178900     1.000000
  116.1 Ag    1  5g1+         0.178900     1.000000
  117.1 Ag    1  5g4+         0.178900     1.000000
  118.1 Ag    1  5g1-         0.178900     1.000000
  119.1 Ag    1  5g2+         0.178900     1.000000
  120.1 Ag    1  5g4-         0.178900     1.000000
  121.1 Ag    1  5g3+         0.178900     1.000000
  122.1 Ag    1  5g3-         0.178900     1.000000
  123.1 Ag    1  7i6+         2.566300     1.000000
  124.1 Ag    1  7i2-         2.566300     1.000000
  125.1 Ag    1  7i5+         2.566300     1.000000
  126.1 Ag    1  7i4+         2.566300     1.000000
  127.1 Ag    1  7i5-         2.566300     1.000000
  128.1 Ag    1  7i2+         2.566300     1.000000
  129.1 Ag    1  7i6-         2.566300     1.000000
  130.1 Ag    1  7i3+         2.566300     1.000000
  131.1 Ag    1  7i4-         2.566300     1.000000
  132.1 Ag    1  7i0          2.566300     1.000000
  133.1 Ag    1  7i3-         2.566300     1.000000
  134.1 Ag    1  7i1-         2.566300     1.000000
  135.1 Ag    1  7i1+         2.566300     1.000000
    1.2 Au    1  2px       1292.490000     0.000079
                            305.016000     0.000538
                             71.156300     0.008075
                             33.559400    -0.033414
                             20.979500    -0.070929
                              7.940490     0.214498
                              4.315010     0.414617
                              2.285770     0.365403
                              1.186340     0.131236
                              0.560165     0.012050
                              0.263905     0.000580
                              0.121571     0.000292
                              0.054486     0.000025
    2.2 Au    1  2py       1292.490000     0.000079
                            305.016000     0.000538
                             71.156300     0.008075
                             33.559400    -0.033414
                             20.979500    -0.070929
                              7.940490     0.214498
                              4.315010     0.414617
                              2.285770     0.365403
                              1.186340     0.131236
                              0.560165     0.012050
                              0.263905     0.000580
                              0.121571     0.000292
                              0.054486     0.000025
    3.2 Au    1  2pz       1292.490000     0.000079
                            305.016000     0.000538
                             71.156300     0.008075
                             33.559400    -0.033414
                             20.979500    -0.070929
                              7.940490     0.214498
                              4.315010     0.414617
                              2.285770     0.365403
                              1.186340     0.131236
                              0.560165     0.012050
                              0.263905     0.000580
                              0.121571     0.000292
                              0.054486     0.000025
    4.2 Au    1  2px       1292.490000     0.000000
                            305.016000     0.000000
                             71.156300     0.000000
                             33.559400     1.000000
                             20.979500     0.000000
                              7.940490     0.000000
                              4.315010     0.000000
                              2.285770     0.000000
                              1.186340     0.000000
                              0.560165     0.000000
                              0.263905     0.000000
                              0.121571     0.000000
                              0.054486     0.000000
    5.2 Au    1  2py       1292.490000     0.000000
                            305.016000     0.000000
                             71.156300     0.000000
                             33.559400     1.000000
                             20.979500     0.000000
                              7.940490     0.000000
                              4.315010     0.000000
                              2.285770     0.000000
                              1.186340     0.000000
                              0.560165     0.000000
                              0.263905     0.000000
                              0.121571     0.000000
                              0.054486     0.000000
    6.2 Au    1  2pz       1292.490000     0.000000
                            305.016000     0.000000
                             71.156300     0.000000
                             33.559400     1.000000
                             20.979500     0.000000
                              7.940490     0.000000
                              4.315010     0.000000
                              2.285770     0.000000
                              1.186340     0.000000
                              0.560165     0.000000
                              0.263905     0.000000
                              0.121571     0.000000
                              0.054486     0.000000
    7.2 Au    1  2px       1292.490000     0.000000
                            305.016000     0.000000
                             71.156300     0.000000
                             33.559400     0.000000
                             20.979500     0.000000
                              7.940490     0.000000
                              4.315010     0.000000
                              2.285770     0.000000
                              1.186340     1.000000
                              0.560165     0.000000
                              0.263905     0.000000
                              0.121571     0.000000
                              0.054486     0.000000
    8.2 Au    1  2py       1292.490000     0.000000
                            305.016000     0.000000
                             71.156300     0.000000
                             33.559400     0.000000
                             20.979500     0.000000
                              7.940490     0.000000
                              4.315010     0.000000
                              2.285770     0.000000
                              1.186340     1.000000
                              0.560165     0.000000
                              0.263905     0.000000
                              0.121571     0.000000
                              0.054486     0.000000
    9.2 Au    1  2pz       1292.490000     0.000000
                            305.016000     0.000000
                             71.156300     0.000000
                             33.559400     0.000000
                             20.979500     0.000000
                              7.940490     0.000000
                              4.315010     0.000000
                              2.285770     0.000000
                              1.186340     1.000000
                              0.560165     0.000000
                              0.263905     0.000000
                              0.121571     0.000000
                              0.054486     0.000000
   10.2 Au    1  2px       1292.490000     0.000000
                            305.016000     0.000000
                             71.156300     0.000000
                             33.559400     0.000000
                             20.979500     0.000000
                              7.940490     0.000000
                              4.315010     0.000000
                              2.285770     0.000000
                              1.186340     0.000000
                              0.560165     1.000000
                              0.263905     0.000000
                              0.121571     0.000000
                              0.054486     0.000000
   11.2 Au    1  2py       1292.490000     0.000000
                            305.016000     0.000000
                             71.156300     0.000000
                             33.559400     0.000000
                             20.979500     0.000000
                              7.940490     0.000000
                              4.315010     0.000000
                              2.285770     0.000000
                              1.186340     0.000000
                              0.560165     1.000000
                              0.263905     0.000000
                              0.121571     0.000000
                              0.054486     0.000000
   12.2 Au    1  2pz       1292.490000     0.000000
                            305.016000     0.000000
                             71.156300     0.000000
                             33.559400     0.000000
                             20.979500     0.000000
                              7.940490     0.000000
                              4.315010     0.000000
                              2.285770     0.000000
                              1.186340     0.000000
                              0.560165     1.000000
                              0.263905     0.000000
                              0.121571     0.000000
                              0.054486     0.000000
   13.2 Au    1  2px       1292.490000     0.000000
                            305.016000     0.000000
                             71.156300     0.000000
                             33.559400     0.000000
                             20.979500     0.000000
                              7.940490     0.000000
                              4.315010     0.000000
                              2.285770     0.000000
                              1.186340     0.000000
                              0.560165     0.000000
                              0.263905     1.000000
                              0.121571     0.000000
                              0.054486     0.000000
   14.2 Au    1  2py       1292.490000     0.000000
                            305.016000     0.000000
                             71.156300     0.000000
                             33.559400     0.000000
                             20.979500     0.000000
                              7.940490     0.000000
                              4.315010     0.000000
                              2.285770     0.000000
                              1.186340     0.000000
                              0.560165     0.000000
                              0.263905     1.000000
                              0.121571     0.000000
                              0.054486     0.000000
   15.2 Au    1  2pz       1292.490000     0.000000
                            305.016000     0.000000
                             71.156300     0.000000
                             33.559400     0.000000
                             20.979500     0.000000
                              7.940490     0.000000
                              4.315010     0.000000
                              2.285770     0.000000
                              1.186340     0.000000
                              0.560165     0.000000
                              0.263905     1.000000
                              0.121571     0.000000
                              0.054486     0.000000
   16.2 Au    1  2px       1292.490000     0.000000
                            305.016000     0.000000
                             71.156300     0.000000
                             33.559400     0.000000
                             20.979500     0.000000
                              7.940490     0.000000
                              4.315010     0.000000
                              2.285770     0.000000
                              1.186340     0.000000
                              0.560165     0.000000
                              0.263905     0.000000
                              0.121571     1.000000
                              0.054486     0.000000
   17.2 Au    1  2py       1292.490000     0.000000
                            305.016000     0.000000
                             71.156300     0.000000
                             33.559400     0.000000
                             20.979500     0.000000
                              7.940490     0.000000
                              4.315010     0.000000
                              2.285770     0.000000
                              1.186340     0.000000
                              0.560165     0.000000
                              0.263905     0.000000
                              0.121571     1.000000
                              0.054486     0.000000
   18.2 Au    1  2pz       1292.490000     0.000000
                            305.016000     0.000000
                             71.156300     0.000000
                             33.559400     0.000000
                             20.979500     0.000000
                              7.940490     0.000000
                              4.315010     0.000000
                              2.285770     0.000000
                              1.186340     0.000000
                              0.560165     0.000000
                              0.263905     0.000000
                              0.121571     1.000000
                              0.054486     0.000000
   19.2 Au    1  2px       1292.490000     0.000000
                            305.016000     0.000000
                             71.156300     0.000000
                             33.559400     0.000000
                             20.979500     0.000000
                              7.940490     0.000000
                              4.315010     0.000000
                              2.285770     0.000000
                              1.186340     0.000000
                              0.560165     0.000000
                              0.263905     0.000000
                              0.121571     0.000000
                              0.054486     1.000000
   20.2 Au    1  2py       1292.490000     0.000000
                            305.016000     0.000000
                             71.156300     0.000000
                             33.559400     0.000000
                             20.979500     0.000000
                              7.940490     0.000000
                              4.315010     0.000000
                              2.285770     0.000000
                              1.186340     0.000000
                              0.560165     0.000000
                              0.263905     0.000000
                              0.121571     0.000000
                              0.054486     1.000000
   21.2 Au    1  2pz       1292.490000     0.000000
                            305.016000     0.000000
                             71.156300     0.000000
                             33.559400     0.000000
                             20.979500     0.000000
                              7.940490     0.000000
                              4.315010     0.000000
                              2.285770     0.000000
                              1.186340     0.000000
                              0.560165     0.000000
                              0.263905     0.000000
                              0.121571     0.000000
                              0.054486     1.000000
   22.2 Au    1  2px         13.626200     1.000000
   23.2 Au    1  2py         13.626200     1.000000
   24.2 Au    1  2pz         13.626200     1.000000
   25.2 Au    1  2px          7.637300     1.000000
   26.2 Au    1  2py          7.637300     1.000000
   27.2 Au    1  2pz          7.637300     1.000000
   28.2 Au    1  2px          4.280600     1.000000
   29.2 Au    1  2py          4.280600     1.000000
   30.2 Au    1  2pz          4.280600     1.000000
   31.2 Au    1  2px          2.399200     1.000000
   32.2 Au    1  2py          2.399200     1.000000
   33.2 Au    1  2pz          2.399200     1.000000
   34.2 Au    1  2px          0.022700     1.000000
   35.2 Au    1  2py          0.022700     1.000000
   36.2 Au    1  2pz          0.022700     1.000000
   37.2 Au    1  2px          0.007567     1.000000
   38.2 Au    1  2py          0.007567     1.000000
   39.2 Au    1  2pz          0.007567     1.000000
   40.2 Au    1  4f1+         0.844100     1.000000
   41.2 Au    1  4f1-         0.844100     1.000000
   42.2 Au    1  4f0          0.844100     1.000000
   43.2 Au    1  4f3+         0.844100     1.000000
   44.2 Au    1  4f2-         0.844100     1.000000
   45.2 Au    1  4f3-         0.844100     1.000000
   46.2 Au    1  4f2+         0.844100     1.000000
   47.2 Au    1  4f1+         0.423800     1.000000
   48.2 Au    1  4f1-         0.423800     1.000000
   49.2 Au    1  4f0          0.423800     1.000000
   50.2 Au    1  4f3+         0.423800     1.000000
   51.2 Au    1  4f2-         0.423800     1.000000
   52.2 Au    1  4f3-         0.423800     1.000000
   53.2 Au    1  4f2+         0.423800     1.000000
   54.2 Au    1  4f1+         0.212800     1.000000
   55.2 Au    1  4f1-         0.212800     1.000000
   56.2 Au    1  4f0          0.212800     1.000000
   57.2 Au    1  4f3+         0.212800     1.000000
   58.2 Au    1  4f2-         0.212800     1.000000
   59.2 Au    1  4f3-         0.212800     1.000000
   60.2 Au    1  4f2+         0.212800     1.000000
   61.2 Au    1  4f1+        19.822600     1.000000
   62.2 Au    1  4f1-        19.822600     1.000000
   63.2 Au    1  4f0         19.822600     1.000000
   64.2 Au    1  4f3+        19.822600     1.000000
   65.2 Au    1  4f2-        19.822600     1.000000
   66.2 Au    1  4f3-        19.822600     1.000000
   67.2 Au    1  4f2+        19.822600     1.000000
   68.2 Au    1  4f1+         9.076800     1.000000
   69.2 Au    1  4f1-         9.076800     1.000000
   70.2 Au    1  4f0          9.076800     1.000000
   71.2 Au    1  4f3+         9.076800     1.000000
   72.2 Au    1  4f2-         9.076800     1.000000
   73.2 Au    1  4f3-         9.076800     1.000000
   74.2 Au    1  4f2+         9.076800     1.000000
   75.2 Au    1  4f1+         4.156300     1.000000
   76.2 Au    1  4f1-         4.156300     1.000000
   77.2 Au    1  4f0          4.156300     1.000000
   78.2 Au    1  4f3+         4.156300     1.000000
   79.2 Au    1  4f2-         4.156300     1.000000
   80.2 Au    1  4f3-         4.156300     1.000000
   81.2 Au    1  4f2+         4.156300     1.000000
   82.2 Au    1  4f1+         1.903200     1.000000
   83.2 Au    1  4f1-         1.903200     1.000000
   84.2 Au    1  4f0          1.903200     1.000000
   85.2 Au    1  4f3+         1.903200     1.000000
   86.2 Au    1  4f2-         1.903200     1.000000
   87.2 Au    1  4f3-         1.903200     1.000000
   88.2 Au    1  4f2+         1.903200     1.000000
   89.2 Au    1  4f1+         0.094700     1.000000
   90.2 Au    1  4f1-         0.094700     1.000000
   91.2 Au    1  4f0          0.094700     1.000000
   92.2 Au    1  4f3+         0.094700     1.000000
   93.2 Au    1  4f2-         0.094700     1.000000
   94.2 Au    1  4f3-         0.094700     1.000000
   95.2 Au    1  4f2+         0.094700     1.000000
   96.2 Au    1  4f1+         0.031567     1.000000
   97.2 Au    1  4f1-         0.031567     1.000000
   98.2 Au    1  4f0          0.031567     1.000000
   99.2 Au    1  4f3+         0.031567     1.000000
  100.2 Au    1  4f2-         0.031567     1.000000
  101.2 Au    1  4f3-         0.031567     1.000000
  102.2 Au    1  4f2+         0.031567     1.000000
  103.2 Au    1  6h1+         0.736100     1.000000
  104.2 Au    1  6h1-         0.736100     1.000000
  105.2 Au    1  6h2+         0.736100     1.000000
  106.2 Au    1  6h3+         0.736100     1.000000
  107.2 Au    1  6h4-         0.736100     1.000000
  108.2 Au    1  6h3-         0.736100     1.000000
  109.2 Au    1  6h4+         0.736100     1.000000
  110.2 Au    1  6h5-         0.736100     1.000000
  111.2 Au    1  6h0          0.736100     1.000000
  112.2 Au    1  6h5+         0.736100     1.000000
  113.2 Au    1  6h2-         0.736100     1.000000
  114.2 Au    1  6h1+        11.478500     1.000000
  115.2 Au    1  6h1-        11.478500     1.000000
  116.2 Au    1  6h2+        11.478500     1.000000
  117.2 Au    1  6h3+        11.478500     1.000000
  118.2 Au    1  6h4-        11.478500     1.000000
  119.2 Au    1  6h3-        11.478500     1.000000
  120.2 Au    1  6h4+        11.478500     1.000000
  121.2 Au    1  6h5-        11.478500     1.000000
  122.2 Au    1  6h0         11.478500     1.000000
  123.2 Au    1  6h5+        11.478500     1.000000
  124.2 Au    1  6h2-        11.478500     1.000000
  125.2 Au    1  6h1+         2.443300     1.000000
  126.2 Au    1  6h1-         2.443300     1.000000
  127.2 Au    1  6h2+         2.443300     1.000000
  128.2 Au    1  6h3+         2.443300     1.000000
  129.2 Au    1  6h4-         2.443300     1.000000
  130.2 Au    1  6h3-         2.443300     1.000000
  131.2 Au    1  6h4+         2.443300     1.000000
  132.2 Au    1  6h5-         2.443300     1.000000
  133.2 Au    1  6h0          2.443300     1.000000
  134.2 Au    1  6h5+         2.443300     1.000000
  135.2 Au    1  6h2-         2.443300     1.000000
  136.2 Au    1  6h1+         0.390600     1.000000
  137.2 Au    1  6h1-         0.390600     1.000000
  138.2 Au    1  6h2+         0.390600     1.000000
  139.2 Au    1  6h3+         0.390600     1.000000
  140.2 Au    1  6h4-         0.390600     1.000000
  141.2 Au    1  6h3-         0.390600     1.000000
  142.2 Au    1  6h4+         0.390600     1.000000
  143.2 Au    1  6h5-         0.390600     1.000000
  144.2 Au    1  6h0          0.390600     1.000000
  145.2 Au    1  6h5+         0.390600     1.000000
  146.2 Au    1  6h2-         0.390600     1.000000

 NUCLEAR CHARGE:                   24
 NUMBER OF PRIMITIVE AOS:         485
 NUMBER OF SYMMETRY AOS:          348
 NUMBER OF CONTRACTIONS:          281   (  135Ag  +  146Au  )
 NUMBER OF INNER CORE ORBITALS:     0   (    0Ag  +    0Au  )
 NUMBER OF OUTER CORE ORBITALS:     9   (    6Ag  +    3Au  )
 NUMBER OF VALENCE ORBITALS:        4   (    1Ag  +    3Au  )


 LX: Ag           LY: Ag           LZ: Ag 


 NUCLEAR REPULSION ENERGY    0.00000000

 EXTRA SYMMETRY OF AOS IN SYMMETRY 1:   1 1 1 1 1 1 1 1 1 1   1 1 1 2 3 4 5 6 2 3   4 5 6 2 3 4 5 6 2 3   4 5 6 2 3 4 5 6 2 3
                                        4 5 6 2 3 4 5 6 2 3   4 5 6 2 3 4 5 6 2 3   4 5 6 2 3 4 5 6 7 8   9101112131415 7 8 9
                                       101112131415 7 8 910  1112131415 7 8 91011  12131415 7 8 9101112  131415 7 8 910111213
                                       14151617181920212223  2425262728
 EXTRA SYMMETRY OF AOS IN SYMMETRY 2:   1 2 3 1 2 3 1 2 3 1   2 3 1 2 3 1 2 3 1 2   3 1 2 3 1 2 3 1 2 3   1 2 3 1 2 3 1 2 3 4
                                        5 6 7 8 910 4 5 6 7   8 910 4 5 6 7 8 910   4 5 6 7 8 910 4 5 6   7 8 910 4 5 6 7 8 9
                                       10 4 5 6 7 8 910 4 5   6 7 8 910 4 5 6 7 8   9101112131415161718  19202111121314151617
                                       18192021111213141516  17181920211112131415  161718192021


 Eigenvalues of metric

         1 0.492E-04 0.208E-03 0.591E-03 0.126E-02 0.126E-02 0.126E-02 0.126E-02 0.126E-02
         2 0.181E-04 0.181E-04 0.181E-04 0.676E-03 0.676E-03 0.676E-03 0.369E-02 0.369E-02


 Contracted 2-electron integrals neglected if value below      1.0D-12
 AO integral compression algorithm  1   Integral accuracy      1.0D-12

     678.953 MB (compressed) written to integral file ( 13.1%)

     Node minimum: 26.214 MB, node maximum: 56.361 MB


 NUMBER OF SORTED TWO-ELECTRON INTEGRALS:   24679576.     BUFFER LENGTH:  32768
 NUMBER OF SEGMENTS:   2  SEGMENT LENGTH:   15976936      RECORD LENGTH: 524288

 Memory used in sort:      16.53 MW

 SORT1 READ   646821870. AND WROTE     4258524. INTEGRALS IN     14 RECORDS. CPU TIME:     3.13 SEC, REAL TIME:     3.21 SEC
 SORT2 READ    68054582. AND WROTE   395255076. INTEGRALS IN   1600 RECORDS. CPU TIME:     0.50 SEC, REAL TIME:     0.56 SEC

 Node minimum:    24675847.  Node maximum:    24720811. integrals

 OPERATOR DM      FOR CENTER  0  COORDINATES:    0.000000    0.000000    0.000000


 **********************************************************************************************************************************
 DATASETS  * FILE   NREC   LENGTH (MB)   RECORD NAMES
              1      19       30.69       500      610      700      900      950      970     1000      129      960     1100   
                                          VAR    BASINP    GEOM    SYMINP    ZMAT    AOBASIS   BASIS     P2S    ABASIS      S 
                                         1400     1410     1420     1200     1210     1080     1700     1600     1650   
                                           T        V       ECP      H0       H01     AOSYM    OPER      SMH    MOLCAS    

 PROGRAMS   *        TOTAL       INT
 CPU TIMES  *        10.26     10.00
 REAL TIME  *        11.58 SEC
 DISK USED  *        31.11 MB (local),        1.86 GB (total)
 GA USED    *         0.00 MB       (max)       0.00 MB       (current)
 **********************************************************************************************************************************


 Program * Restricted Hartree-Fock


   Atom=SE basis=cc-pVTZ-PP        lmin=0  lmax=2

 Orbital guess generated from atomic densities.

 Initial alpha occupancy:   7   6
 Initial beta  occupancy:   7   3

 NELEC=   23   SYM=2   MS2= 3   THRE=1.0D-08   THRD=3.2D-06   THRG=3.2D-06  HFMA2=F  DIIS_START=2   DIIS_MAX=10   DIIS_INCORE=F

 Level shifts:    0.00 (CLOSED)    0.00 (OPEN)    0.30 (GAP_MIN)

 ITER           ETOT              DE          GRAD        DDIFF     DIIS  NEXP   TIME(IT)  TIME(TOT)  DIAG
   1     -371.48964504    -371.48964504     0.00D+00     0.45D-01     0     0       0.15      0.27    start
   2     -371.54582294      -0.05617790     0.33D-02     0.22D-02     1     0       0.15      0.42    diag2
   3     -371.54856061      -0.00273767     0.21D-02     0.51D-03     2     0       0.15      0.57    diag2
   4     -371.54907608      -0.00051548     0.45D-03     0.30D-03     3     0       0.16      0.73    diag2
   5     -371.54911759      -0.00004151     0.98D-04     0.13D-03     4     0       0.15      0.88    diag2
   6     -371.54911811      -0.00000052     0.14D-04     0.25D-04     5     0       0.15      1.03    diag2
   7     -371.54911812      -0.00000001     0.16D-05     0.27D-05     6     0       0.16      1.19    diag2
   8     -371.54911812      -0.00000000     0.12D-06     0.25D-06     0     0       0.15      1.34    fixocc

 Final alpha occupancy:   7   6
 Final beta  occupancy:   7   3

 !RHF STATE 1.2 Energy               -371.549118117532
  RHF One-electron energy            -646.955422750122
  RHF Two-electron energy             275.406304632591
  RHF Kinetic energy                  263.618022971849
  RHF Nuclear energy                    0.000000000000
  RHF Virial quotient                  -1.409422291879

 !RHF STATE 1.2 Dipole moment           0.00000000     0.00000000     0.00000000
 Dipole moment /Debye                   0.00000000     0.00000000     0.00000000

 ELECTRON ORBITALS
 =================

  Orbital  Occupation    Energy    Cen Mu Typ  Coefficients
    1.1     2.00000    -9.29360     1  1  s    1.00023
    2.1     2.00000    -2.97810     1  1  d0   1.00039
    3.1     2.00000    -2.97810     1  1  d2- -0.27445    1  1  d1+  0.42291    1  1  d2+  0.32115    1  1  d1-  0.80217
    4.1     2.00000    -2.97810     1  1  d2-  0.83356    1  1  d2+ -0.38937    1  1  d1-  0.36669
    5.1     2.00000    -2.97810     1  1  d2-  0.32231    1  1  d1+  0.66178    1  1  d2+  0.51202    1  1  d1- -0.44361
    6.1     2.00000    -2.97810     1  1  d2-  0.35604    1  1  d1+ -0.60339    1  1  d2+  0.69562
    7.1     2.00000    -1.19197     1  1  s   -0.40789    1  5  s    0.57972    1  6  s    0.49051
    1.2     2.00000    -7.17184     1  1  px   1.00002
    2.2     2.00000    -7.17184     1  1  py   0.48414    1  1  pz   0.87501
    3.2     2.00000    -7.17184     1  1  py   0.87501    1  1  pz  -0.48414
    4.2     1.00000    -0.78655     1  1  px  -0.28941    1  4  px   0.31922    1  5  px   0.52791    1  6  px   0.27418
    5.2     1.00000    -0.78655     1  1  py  -0.25316    1  4  py   0.27924    1  5  py   0.46179    1  5  pz   0.25581
    6.2     1.00000    -0.78655     1  1  pz  -0.25316    1  4  pz   0.27924    1  5  py  -0.25581    1  5  pz   0.46179


 HOMO      6.2    -0.786550 =     -21.4031eV
 LUMO      8.1    -0.126635 =      -3.4459eV
 LUMO-HOMO         0.659914 =      17.9572eV

 Orbitals saved in record  2100.2


 **********************************************************************************************************************************
 DATASETS  * FILE   NREC   LENGTH (MB)   RECORD NAMES
              1      19       30.69       500      610      700      900      950      970     1000      129      960     1100   
                                          VAR    BASINP    GEOM    SYMINP    ZMAT    AOBASIS   BASIS     P2S    ABASIS      S 
                                         1400     1410     1420     1200     1210     1080     1700     1600     1650   
                                           T        V       ECP      H0       H01     AOSYM    OPER      SMH    MOLCAS    

              2       4        1.64       700     1000      520     2100   
                                         GEOM     BASIS   MCVARS     RHF  

 PROGRAMS   *        TOTAL   RHF-SCF       INT
 CPU TIMES  *        11.68      1.41     10.00
 REAL TIME  *        14.50 SEC
 DISK USED  *        37.01 MB (local),        1.95 GB (total)
 GA USED    *         0.00 MB       (max)       0.00 MB       (current)
 **********************************************************************************************************************************

 PROGRAM * MULTI (Direct Multiconfiguration SCF)       Authors: P.J. Knowles, H.-J. Werner (1984)
                                                                D.A. Kreplin, P.J. Knowles, H.-J. Werner (2019)

 Number of closed-shell orbitals:   9 (    6    3)
 Number of active  orbitals:        7 (    1    6)
 Number of external orbitals:     265 (  128  137)

 State symmetry 1

 Number of active electrons:   6    Spin symmetry=Triplet   Space symmetry=1
 Number of states:             3
 Number of CSFs:             294   (345 determinants, 735 intermediate states)

 State symmetry 2

 Number of active electrons:   6    Spin symmetry=Singlet   Space symmetry=1
 Number of states:             6
 Number of CSFs:             280   (625 determinants, 1225 intermediate states)

 Molecular orbitals read from record     2100.2  Type=RHF/CANONICAL  
 *** IN SYMMETRY 1 ORBITAL  2 SYMMETRY CONTAMINATION OF 0.530D-02 HAS BEEN REMOVED
 *** IN SYMMETRY 1 ORBITAL  3 SYMMETRY CONTAMINATION OF 0.560D+00 HAS BEEN REMOVED
 *** IN SYMMETRY 1 ORBITAL  4 SYMMETRY CONTAMINATION OF 0.519D+00 HAS BEEN REMOVED
 *** IN SYMMETRY 1 ORBITAL  5 SYMMETRY CONTAMINATION OF 0.659D+00 HAS BEEN REMOVED
 *** IN SYMMETRY 1 ORBITAL  6 SYMMETRY CONTAMINATION OF 0.618D+00 HAS BEEN REMOVED

 EXTRA SYMMETRY OF MOS IN SYMMETRY 1:   1 2 6 3 4 5 1 1 2 3   5 6 4 1 4 6 2 3 5 1   6 4 2 5 31310 7 812  1415 911 4 6 2 5 3 1
                                       1310 712 811 91514 5   3 6 4 2 11310 71514   812 911 5 3 6 4 2 1  1310 7 9111514 812 4
                                        6 5 3 2232620182419  25222728171621 11310   711 91514 812 4 5 6   3 2 1 5 4 6 3 2 911
                                       1415 7131012 8 1 5 6   3 4 2 1 1
 *** IN SYMMETRY 2 ORBITAL  2 SYMMETRY CONTAMINATION OF 0.356D+00 HAS BEEN REMOVED
 *** IN SYMMETRY 2 ORBITAL  3 SYMMETRY CONTAMINATION OF 0.356D+00 HAS BEEN REMOVED
 *** IN SYMMETRY 2 ORBITAL  5 SYMMETRY CONTAMINATION OF 0.356D+00 HAS BEEN REMOVED
 *** IN SYMMETRY 2 ORBITAL  6 SYMMETRY CONTAMINATION OF 0.356D+00 HAS BEEN REMOVED
 *** IN SYMMETRY 2 ORBITAL  8 SYMMETRY CONTAMINATION OF 0.155D+00 HAS BEEN REMOVED
 *** IN SYMMETRY 2 ORBITAL  9 SYMMETRY CONTAMINATION OF 0.155D+00 HAS BEEN REMOVED
 EXTRA SYMMETRY OF MOS IN SYMMETRY 2:   1 3 2 1 2 3 1 2 3 3   1 2 610 5 8 4 7 9 3   1 2 5 4 6 9 710 8 3   2 1 9 7 4 5 810 6 2
                                        1 3 9 7 6 4 5 81016  14121121132018151917   7 9 4 5 810 6 2 1 3  14162018192113121117
                                       15 4 5 810 7 9 6 2 1   3141619211315172018  1211 6 410 5 8 9 7 1   2 310 8 6 9 7 5 415
                                       17182016191214112113   1 3 210 8 6 9 7 5 4   1 3 2 1 3 2

 Wavefunction dump at record             2140.2

 Convergence thresholds  0.10E-04 (gradient)  0.10E-05 (energy)

 Weight factors for state symmetry  1:    0.11111   0.11111   0.11111
 Weight factors for state symmetry  2:    0.11111   0.11111   0.11111   0.11111   0.11111   0.11111
 
 Number of orbital rotations:  2153  ( 24 closed/active, 1179 closed/virtual, 0 active/active, 950 active/virtual )
 Total number of variables:    6938
 
 Second-order MCSCF: L-BFGS accelerated
 
 ITER  MIC  NCI  NEG     ENERGY(VAR)    ENERGY(PROJ) ENERGY CHANGE       GRAD(0)  GRAD(ORB)   GRAD(CI)      STEP      TIME
   1   10   30    0   -371.78984918    -371.83371885   -0.04386967    0.22163766 0.00069940 0.00006499  0.15E+01      4.90
   2    7   21    0   -371.83291481    -371.83297649   -0.00006169    0.00666176 0.00004042 0.00000801  0.78E-01      8.70
   3    8   20    0   -371.83297651    -371.83297651   -0.00000000    0.00001302 0.00000001 0.00000003  0.19E-03     12.58

 CONVERGENCE REACHED!  Final gradient:    0.00000000 ( 0.27E-08)
                       Final energy:   -371.83297651
 
 Results for state 1.1 Triplet
 =============================
 !MCSCF STATE 1.1 Triplet Energy              -371.869501459135
 Nuclear energy                                  0.00000000
 Kinetic energy                                263.86537562
 One electron energy                          -655.67998115
 Two electron energy                           283.81047970
 Virial ratio                                    2.40931526
 
 !MCSCF STATE 1.1 Triplet Dipole moment          0.00000000     0.00000000     0.00000000
 Dipole moment /Debye                            0.00000000     0.00000000     0.00000000
 
 Results for state 2.1 Triplet
 =============================
 !MCSCF STATE 2.1 Triplet Energy              -371.869501459125
 Nuclear energy                                  0.00000000
 Kinetic energy                                263.86537562
 One electron energy                          -655.67998115
 Two electron energy                           283.81047969
 Virial ratio                                    2.40931526
 
 !MCSCF STATE 2.1 Triplet Dipole moment          0.00000000     0.00000000     0.00000000
 Dipole moment /Debye                            0.00000000     0.00000000     0.00000000
 
 Results for state 3.1 Triplet
 =============================
 !MCSCF STATE 3.1 Triplet Energy              -371.869501459115
 Nuclear energy                                  0.00000000
 Kinetic energy                                263.86537562
 One electron energy                          -655.67998115
 Two electron energy                           283.81047969
 Virial ratio                                    2.40931526
 
 !MCSCF STATE 3.1 Triplet Dipole moment          0.00000000     0.00000000     0.00000000
 Dipole moment /Debye                            0.00000000     0.00000000     0.00000000
 
 Results for state 1.1 Singlet
 =============================
 !MCSCF STATE 1.1 Singlet Energy              -371.821849928684
 Nuclear energy                                  0.00000000
 Kinetic energy                                263.80620007
 One electron energy                          -655.48377027
 Two electron energy                           283.66192034
 Virial ratio                                    2.40945076
 
 !MCSCF STATE 1.1 Singlet Dipole moment          0.00000000     0.00000000     0.00000000
 Dipole moment /Debye                            0.00000000     0.00000000     0.00000000
 
 Results for state 2.1 Singlet
 =============================
 !MCSCF STATE 2.1 Singlet Energy              -371.821849928683
 Nuclear energy                                  0.00000000
 Kinetic energy                                263.80620007
 One electron energy                          -655.48377027
 Two electron energy                           283.66192034
 Virial ratio                                    2.40945076
 
 !MCSCF STATE 2.1 Singlet Dipole moment          0.00000000     0.00000000     0.00000000
 Dipole moment /Debye                            0.00000000     0.00000000     0.00000000
 
 Results for state 3.1 Singlet
 =============================
 !MCSCF STATE 3.1 Singlet Energy              -371.821849928671
 Nuclear energy                                  0.00000000
 Kinetic energy                                263.80620007
 One electron energy                          -655.48377027
 Two electron energy                           283.66192034
 Virial ratio                                    2.40945076
 
 !MCSCF STATE 3.1 Singlet Dipole moment          0.00000000     0.00000000     0.00000000
 Dipole moment /Debye                            0.00000000     0.00000000     0.00000000
 
 Results for state 4.1 Singlet
 =============================
 !MCSCF STATE 4.1 Singlet Energy              -371.821849928669
 Nuclear energy                                  0.00000000
 Kinetic energy                                263.80620007
 One electron energy                          -655.48377027
 Two electron energy                           283.66192034
 Virial ratio                                    2.40945076
 
 !MCSCF STATE 4.1 Singlet Dipole moment          0.00000000     0.00000000     0.00000000
 Dipole moment /Debye                            0.00000000     0.00000000     0.00000000
 
 Results for state 5.1 Singlet
 =============================
 !MCSCF STATE 5.1 Singlet Energy              -371.821849928667
 Nuclear energy                                  0.00000000
 Kinetic energy                                263.80620007
 One electron energy                          -655.48377027
 Two electron energy                           283.66192034
 Virial ratio                                    2.40945076
 
 !MCSCF STATE 5.1 Singlet Dipole moment          0.00000000     0.00000000     0.00000000
 Dipole moment /Debye                            0.00000000     0.00000000     0.00000000
 
 Results for state 6.1 Singlet
 =============================
 !MCSCF STATE 6.1 Singlet Energy              -371.779034589753
 Nuclear energy                                  0.00000000
 Kinetic energy                                263.79555670
 One electron energy                          -655.30886694
 Two electron energy                           283.52983235
 Virial ratio                                    2.40934532
 
 !MCSCF STATE 6.1 Singlet Dipole moment          0.00000000     0.00000000     0.00000000
 Dipole moment /Debye                            0.00000000     0.00000000     0.00000000
 
 State-averaged charge density matrix saved on record 2140.2 (density set 1)
 
 No non-zero expectation values
 
 Expectation values for two-electron operators:
 
 ? Warning
 ? Transition properties are only calculated between states of the same symmetry
 ? The problem occurs in mu_properties_expec2

 !MCSCF expec      <1.1 Triplet|LXLX|1.1 Triplet>     0.999999999917
 !MCSCF expec      <2.1 Triplet|LXLX|2.1 Triplet>     0.000000000139
 !MCSCF expec      <3.1 Triplet|LXLX|3.1 Triplet>     0.999999997836
 !MCSCF expec      <1.1 Singlet|LXLX|1.1 Singlet>     1.162003603027
 !MCSCF expec      <2.1 Singlet|LXLX|2.1 Singlet>     1.000000035633
 !MCSCF expec      <3.1 Singlet|LXLX|3.1 Singlet>     3.999988484493
 !MCSCF expec      <4.1 Singlet|LXLX|4.1 Singlet>     1.000012131585
 !MCSCF expec      <5.1 Singlet|LXLX|5.1 Singlet>     2.837995745262
 !MCSCF expec      <6.1 Singlet|LXLX|6.1 Singlet>    -0.000000000000
 
 !MCSCF expec      <1.1 Triplet|LYLY|1.1 Triplet>     0.000000015345
 !MCSCF expec      <2.1 Triplet|LYLY|2.1 Triplet>     0.999999999980
 !MCSCF expec      <3.1 Triplet|LYLY|3.1 Triplet>     0.999999990371
 !MCSCF expec      <1.1 Singlet|LYLY|1.1 Singlet>     3.991677914445
 !MCSCF expec      <2.1 Singlet|LYLY|2.1 Singlet>     3.999999291611
 !MCSCF expec      <3.1 Singlet|LYLY|3.1 Singlet>     1.000000024793
 !MCSCF expec      <4.1 Singlet|LYLY|4.1 Singlet>     1.000000370550
 !MCSCF expec      <5.1 Singlet|LYLY|5.1 Singlet>     0.008322398601
 !MCSCF expec      <6.1 Singlet|LYLY|6.1 Singlet>    -0.000000000000
 
 !MCSCF expec      <1.1 Triplet|LZLZ|1.1 Triplet>     0.999999984738
 !MCSCF expec      <2.1 Triplet|LZLZ|2.1 Triplet>     0.999999999881
 !MCSCF expec      <3.1 Triplet|LZLZ|3.1 Triplet>     0.000000011793
 !MCSCF expec      <1.1 Singlet|LZLZ|1.1 Singlet>     0.846318482527
 !MCSCF expec      <2.1 Singlet|LZLZ|2.1 Singlet>     1.000000672755
 !MCSCF expec      <3.1 Singlet|LZLZ|3.1 Singlet>     1.000011490714
 !MCSCF expec      <4.1 Singlet|LZLZ|4.1 Singlet>     3.999987497865
 !MCSCF expec      <5.1 Singlet|LZLZ|5.1 Singlet>     3.153681856138
 !MCSCF expec      <6.1 Singlet|LZLZ|6.1 Singlet>    -0.000000000000
 
 !MCSCF expec      <1.1 Triplet|L**2|1.1 Triplet>     2.000000000000
 !MCSCF expec      <2.1 Triplet|L**2|2.1 Triplet>     2.000000000000
 !MCSCF expec      <3.1 Triplet|L**2|3.1 Triplet>     2.000000000000
 !MCSCF expec      <1.1 Singlet|L**2|1.1 Singlet>     6.000000000000
 !MCSCF expec      <2.1 Singlet|L**2|2.1 Singlet>     6.000000000000
 !MCSCF expec      <3.1 Singlet|L**2|3.1 Singlet>     6.000000000000
 !MCSCF expec      <4.1 Singlet|L**2|4.1 Singlet>     6.000000000000
 !MCSCF expec      <5.1 Singlet|L**2|5.1 Singlet>     6.000000000000
 !MCSCF expec      <6.1 Singlet|L**2|6.1 Singlet>    -0.000000000000
 
 EXTRA SYMMETRY OF MOS IN SYMMETRY 1:   1 6 3 5 2 4 1 1 6 3   5 4 2 1 6 4 2 3 5 1   6 4 3 5 21310141511   812 7 9 6 5 3 4 2 1
                                       1310151411 812 7 9 3   5 6 4 2 11310141511   812 7 9 5 3 6 4 2 1  1310151411 812 7 9 5
                                        3 6 4 2221618202419  27232617212528 11310  151411 7 812 9 5 6 3   4 2 1 5 4 3 6 2 9 7
                                       15141310 81211 1 5 4   6 3 2 1 1
 EXTRA SYMMETRY OF MOS IN SYMMETRY 2:   2 3 1 3 1 2 1 3 2 2   3 1 2 3 1 5 6 810 4   9 7 9 7 5 4 6 810 2   3 1 9 7 5 810 4 6 2
                                        3 1 7 9 5 810 6 420  18151712141621131911   7 9 5 810 4 6 2 3 1  20181416171512211319
                                       11 7 9 5 810 4 6 2 1   3201815171416122113  1911 7 9 510 8 6 4 2   1 310 8 7 9 6 5 411
                                       15171619141820211312   1 3 210 8 6 4 7 9 5   1 2 3 1 2 3
 
  NATURAL ORBITALS (STATE AVERAGED)
  =================================

  Orbital  Occupation    Energy    Cen Mu Typ  Coefficients
    1.1     2.00000    -8.92612     1  1  s    1.00178
    2.1     2.00000    -2.61165     1  1  d1-  1.00002
    3.1     2.00000    -2.61165     1  1  d2-  1.00002
    4.1     2.00000    -2.61165     1  1  d2+  1.00002
    5.1     2.00000    -2.61165     1  1  d0   1.00002
    6.1     2.00000    -2.61165     1  1  d1+  1.00002
    7.1     1.98945    -0.86655     1  1  s   -0.39055    1  5  s    0.52053    1  6  s    0.48985
    1.2     2.00000    -6.80563     1  1  py   0.99980
    2.2     2.00000    -6.80563     1  1  pz   0.99980
    3.2     2.00000    -6.80563     1  1  px   0.99980
    4.2     1.33149    -0.26943     1  1  pz  -0.26512    1  4  pz   0.27851    1  5  pz   0.42752    1  6  pz   0.34925
    5.2     1.33149    -0.26943     1  1  px  -0.26512    1  4  px   0.27851    1  5  px   0.42752    1  6  px   0.34925
    6.2     1.33149    -0.26943     1  1  py  -0.26512    1  4  py   0.27851    1  5  py   0.42752    1  6  py   0.34925
    7.2     0.00535     0.59645     1  1  px   0.35710    1  4  px  -0.97422    1  6  px   0.81511    1  7  px   0.27668
    8.2     0.00535     0.59645     1  1  pz   0.35710    1  4  pz  -0.97422    1  6  pz   0.81511    1  7  pz   0.27668
    9.2     0.00535     0.59645     1  1  py   0.35710    1  4  py  -0.97422    1  6  py   0.81511    1  7  py   0.27668
 
 Natural orbital dump (state averaged) at molpro section 2140.2 (Orbital set 2)
 
 Transform the CI vectors
 
 CI Coefficients of symmetry 1 (Triplet)
 =======================================
 
 2 a2a000      -0.00000906      0.99559543     -0.00001087
 2 aa2000       0.99559542      0.00000906      0.00012300
 2 2aa000      -0.00012300      0.00001087      0.99559542
 
 Energy:     -371.86950146   -371.86950146   -371.86950146
 
 
 CI Coefficients of symmetry 1 (Singlet)
 =======================================
 
 2 220000      -0.03707753     -0.00007607      0.00000299      0.00043238      0.81203124      0.56623631
 2 022000       0.72177855      0.00002494     -0.00000672     -0.00024463     -0.37390552      0.56623631
 2 ba2000      -0.00001006     -0.70397240      0.00006380      0.00032732     -0.00006658     -0.00000000
 2 ab2000       0.00001006      0.70397240     -0.00006380     -0.00032732      0.00006658      0.00000000
 2 b2a000      -0.00000525     -0.00006316     -0.70397113      0.00137778      0.00000161      0.00000000
 2 a2b000       0.00000525      0.00006316      0.70397113     -0.00137778     -0.00000161     -0.00000000
 2 2ba000      -0.00004550     -0.00032748     -0.00137775     -0.70397096      0.00037274      0.00000000
 2 2ab000       0.00004550      0.00032748      0.00137775      0.70397096     -0.00037274     -0.00000000
 2 202000      -0.68470102      0.00005113      0.00000373     -0.00018775     -0.43812572      0.56623631
 0 222000      -0.00000000      0.00000000     -0.00000000     -0.00000000     -0.00000000     -0.16799059
 
 Energy:     -371.82184993   -371.82184993   -371.82184993   -371.82184993   -371.82184993   -371.77903459
 


 **********************************************************************************************************************************
 DATASETS  * FILE   NREC   LENGTH (MB)   RECORD NAMES
              1      21       94.20       500      610      700      900      950      970     1000      129      960     1100   
                                          VAR    BASINP    GEOM    SYMINP    ZMAT    AOBASIS   BASIS     P2S    ABASIS      S 
                                         1400     1410     1420     1200     1210     1080     1700     1600     1650     1380   
                                           T        V       ECP      H0       H01     AOSYM    OPER      SMH    MOLCAS    JKOP   
                                         1700(1)
                                         OPER   

              2       5        3.11       700     1000      520     2100     2140   
                                         GEOM     BASIS   MCVARS     RHF     MCSCF   

 PROGRAMS   *        TOTAL     MULTI   RHF-SCF       INT
 CPU TIMES  *        24.24     12.56      1.41     10.00
 REAL TIME  *        29.32 SEC
 DISK USED  *        97.43 MB (local),        2.90 GB (total)
 SF USED    *       166.82 MB
 GA USED    *         0.00 MB       (max)       0.00 MB       (current)
 **********************************************************************************************************************************

 Energies and &lt;L**2&gt; values

         ENERGY     LL
    -371.8695015   2.0
    -371.8695015   2.0
    -371.8695015   2.0
    -371.8218499   6.0
    -371.8218499   6.0
    -371.8218499   6.0
    -371.8218499   6.0
    -371.8218499   6.0
    -371.7790346  -0.0
                                                  


 PROGRAM * CI (Multireference internally contracted CI)     Authors: H.-J. Werner, P.J. Knowles, 1987


 Convergence thresholds:  THRVAR = 1.00D-08  THRDEN = 1.00D-06

 Number of optimized states: 3  Roots:    1   2   3
 Number of reference states: 3  Roots:    1   2   3

 Reference symmetry:                   1   Triplet 
 Number of electrons:                 24
 Maximum number of shells:             6
 Maximum number of spin couplings:   297

 Reference space:      196 conf      294 CSFs
 N elec internal:    19609 conf    81480 CSFs
 N-1 el internal:    20264 conf   153948 CSFs
 N-2 el internal:    11240 conf   124860 CSFs

 Number of electrons in valence space:                     24
 Maximum number of open shell orbitals in reference space:  6
 Maximum number of open shell orbitals in internal spaces: 12


 Number of closed-shell orbitals:   9 (   6   3 )
 Number of active  orbitals:        7 (   1   6 )
 Number of external orbitals:     265 ( 128 137 )

 Molecular orbitals read from record     2140.2  Type=MCSCF/NATURAL (state averaged)

 Valence orbitals related to previous ones by unitary transformation. Operators transformed.


 Number of p-space configurations:   3

 Reference wavefunction optimized for reference space (refopt=1)

 State     Reference Energy 
     1      -371.86950146
     2      -371.86950146
     3      -371.86950146

 ?WARNING: SMALL EIGENVALUE OF PAIR OVERLAP MATRIX:  0.1095D-06

 ?WARNING: SMALL EIGENVALUE OF PAIR OVERLAP MATRIX:  0.1095D-06

 ?WARNING: SMALL EIGENVALUE OF PAIR OVERLAP MATRIX:  0.1095D-06

 Number of blocks in overlap matrix:   384   Smallest eigenvalue:  0.11D-06
 Number of N-2 electron functions:     765
 Number of N-1 electron functions:  153948

 Number of internal configurations:                40740
 Number of singly external configurations:      20398758
 Number of doubly external configurations:      13436676
 Total number of contracted configurations:     33876174
 Total number of uncontracted configurations: 2209648584

 Diagonal Coupling coefficients finished.               Storage:  18366965 words, CPU-Time:     16.38 seconds.
 Energy denominators for pairs finished in 1 passes.    Storage:   4909432 words, CPU-time:      2.56 seconds.

  ITER. STATE  ROOT     SQ.NORM     CORR.ENERGY   TOTAL ENERGY   ENERGY CHANGE       DEN1      VAR(S)    VAR(P)      TIME
    1     1     1     1.00000000     0.00000000  -371.86950146     0.00000000    -1.16269871  0.39D-01  0.58D-01    23.35
    1     2     2     1.00000000     0.00000000  -371.86950146    -0.00000000    -1.16251896  0.39D-01  0.58D-01    23.35
    1     3     3     1.00000000     0.00000000  -371.86950146     0.00000000    -1.16228435  0.39D-01  0.58D-01    23.35
    2     1     1     1.07014345    -0.99290062  -372.86240208    -0.99290062    -0.02438880  0.30D-02  0.10D-02   419.94
    2     2     2     1.07028447    -0.99276981  -372.86227127    -0.99276981    -0.02452816  0.31D-02  0.10D-02   419.94
    2     3     3     1.07041517    -0.99264932  -372.86215077    -0.99264932    -0.02465378  0.31D-02  0.11D-02   419.94
    3     1     1     1.06001573    -1.01558079  -372.88508225    -0.02268017    -0.00061756  0.56D-04  0.60D-04   815.77
    3     2     2     1.06001582    -1.01557953  -372.88508099    -0.02280972    -0.00061887  0.56D-04  0.60D-04   815.77
    3     3     3     1.06001362    -1.01557802  -372.88507948    -0.02292871    -0.00062039  0.57D-04  0.60D-04   815.77
    4     1     1     1.06011935    -1.01627832  -372.88577978    -0.00069753    -0.00006176  0.31D-05  0.77D-05  1211.63
    4     2     2     1.06012018    -1.01627827  -372.88577973    -0.00069875    -0.00006181  0.31D-05  0.77D-05  1211.63
    4     3     3     1.06011961    -1.01627812  -372.88577958    -0.00070009    -0.00006193  0.31D-05  0.77D-05  1211.63
    5     1     1     1.06071452    -1.01635812  -372.88585958    -0.00007980    -0.00000683  0.45D-06  0.70D-06  1607.21
    5     2     2     1.06071434    -1.01635811  -372.88585957    -0.00007984    -0.00000684  0.45D-06  0.70D-06  1607.21
    5     3     3     1.06071476    -1.01635811  -372.88585957    -0.00008000    -0.00000684  0.45D-06  0.70D-06  1607.21
    6     1     1     1.06079254    -1.01636634  -372.88586780    -0.00000822    -0.00000065  0.36D-07  0.75D-07  2003.39
    6     2     2     1.06079268    -1.01636634  -372.88586780    -0.00000823    -0.00000065  0.36D-07  0.75D-07  2003.39
    6     3     3     1.06079254    -1.01636634  -372.88586780    -0.00000823    -0.00000065  0.36D-07  0.75D-07  2003.39
    7     1     1     1.06080059    -1.01636708  -372.88586854    -0.00000074    -0.00000008  0.49D-08  0.89D-08  2399.97
    7     2     2     1.06080050    -1.01636708  -372.88586854    -0.00000074    -0.00000008  0.49D-08  0.89D-08  2399.97
    7     3     3     1.06080066    -1.01636708  -372.88586854    -0.00000074    -0.00000008  0.49D-08  0.89D-08  2399.97
    8     1     1     1.06080069    -1.01636717  -372.88586863    -0.00000009    -0.00000001  0.70D-09  0.11D-08  2795.93
    8     2     2     1.06080069    -1.01636717  -372.88586863    -0.00000009    -0.00000001  0.70D-09  0.11D-08  2795.93
    8     3     3     1.06080069    -1.01636717  -372.88586863    -0.00000009    -0.00000001  0.70D-09  0.11D-08  2795.93


 =====================================
 Analysis of CPU times by interactions
 =====================================

       I      S      P

 I   0.4%
 S   0.4%  53.4%
 P   0.2%  28.4%   8.0%

 Initialization:   0.7%
 Other:            8.5%

 Total CPU:     2795.9 seconds
 =====================================



 Wavefunction saved on  5302.2

 Reference coefficients greater than 0.0500000
[...]
                           0.59638736  0.36301712  0.33830473  0.00736197 -0.03493178 -0.39143740 -0.05978955 -0.00151387

   3    1  |1 1>-          0.00000000  0.00000000  0.00000000 -0.00000000 -0.00000000 -0.00000000  0.00000000  0.00000000
                           0.04926610  0.02605762 -0.02989731 -0.60032158  0.35739446 -0.00061221  0.61686548 -0.34010850

   1    1  |0 0>          -0.00032841 -0.01540189 -0.13384803  0.00811411  0.00605012  0.00000002 -0.00000000 -0.00000000
                           0.00000000 -0.00000000 -0.00000000 -0.00000000  0.00000000  0.00000000  0.00000000  0.00000000

   2    1  |0 0>           0.00012905 -0.00037851 -0.00945879 -0.07160191 -0.11418649  0.00000000  0.00000001  0.00000000
                           0.00000000  0.00000000 -0.00000000  0.00000000  0.00000000  0.00000000 -0.00000000 -0.00000000

   3    1  |0 0>           0.00198035 -0.00030684  0.00370528  0.11427536 -0.07196131  0.00000000 -0.00000001  0.00000000
                          -0.00000000  0.00000000  0.00000000 -0.00000000 -0.00000000 -0.00000000  0.00000000  0.00000000

   4    1  |0 0>           0.04466543  0.12667275 -0.01463447  0.00040963  0.00058599  0.00000001  0.00000001 -0.00000000
                          -0.00000000  0.00000000 -0.00000000 -0.00000000 -0.00000000  0.00000000 -0.00000000  0.00000000

   5    1  |0 0>           0.12750160 -0.04440966  0.00473390 -0.00182510  0.00104362  0.00000001  0.00000000 -0.00000000
                          -0.00000001 -0.00000000  0.00000000  0.00000000 -0.00000000  0.00000000 -0.00000000  0.00000000

   6    1  |0 0>           0.00000002  0.00000004  0.00000000  0.00000000 -0.00000000 -0.00000000  0.00000000  0.00000000
                          -0.00000000  0.00000000  0.00000000  0.00000000 -0.00000000  0.00000000 -0.00000000  0.00000000

 State Sym Spin     / Nr.      9          10          11          12          13          14          15

   1    1  |1 1>+          0.02770519  0.00125894 -0.00494418 -0.00104105  0.05483587  0.07810609  0.00372773
                          -0.00000000  0.00000000  0.00000000 -0.00000000  0.00000000  0.00000000 -0.00000000

   2    1  |1 1>+         -0.04150541 -0.00265157  0.00647485  0.00055593 -0.07789690  0.05501214 -0.00558455
                           0.00000000  0.00000000  0.00000000  0.00000000  0.00000000  0.00000000 -0.00000000

   3    1  |1 1>+          0.57001396  0.03249330 -0.10502020 -0.00316702 -0.00722197 -0.00026433  0.07669523
                           0.00000000 -0.00000000  0.00000000  0.00000000  0.00000000 -0.00000000  0.00000000

   1    1  |1 0>           0.00000000  0.00000000  0.00000000 -0.00000000 -0.00000000  0.00000000  0.00000000
                          -0.47587186  0.08904627 -0.01878405 -0.05411508 -0.00039179 -0.00463905 -0.06402846

   2    1  |1 0>           0.00000000  0.00000000 -0.00000000  0.00000000  0.00000000 -0.00000000  0.00000000
                          -0.31772955  0.06036116 -0.01581883  0.07819343  0.00094609  0.00754821 -0.04275045

   3    1  |1 0>          -0.00000000  0.00000000  0.00000000  0.00000000  0.00000000 -0.00000000 -0.00000000
                          -0.00000593  0.00049379  0.00028072  0.00888314 -0.00227106 -0.09509530 -0.00000080

   1    1  |1 1>-         -0.00000000  0.00000000  0.00000000  0.00000000  0.00000000 -0.00000000 -0.00000000
                           0.31651936  0.04212406  0.04257769  0.08029846  0.00478718  0.00076883  0.04258763

   2    1  |1 1>-          0.00000000 -0.00000000 -0.00000000  0.00000000  0.00000000 -0.00000000  0.00000000
                          -0.47405821 -0.06165977 -0.06861499  0.05170515 -0.00572647 -0.00020371 -0.06378446

   3    1  |1 1>-         -0.00000000 -0.00000000  0.00000000  0.00000000  0.00000000  0.00000000  0.00000000
                          -0.04990269 -0.00647755 -0.00600181 -0.00090112  0.09521586 -0.00240948 -0.00671440

   1    1  |0 0>          -0.00000001 -0.00007354  0.00021030  0.99083038  0.00019137 -0.00001707 -0.00000000
                           0.00000000  0.00000000  0.00000000 -0.00000000 -0.00000000  0.00000000  0.00000000

   2    1  |0 0>           0.00000000  0.00002649  0.00003785  0.00001720 -0.00069358  0.99083021 -0.00000000
                          -0.00000000  0.00000000  0.00000000  0.00000000 -0.00000000  0.00000000 -0.00000000

   3    1  |0 0>           0.00000000  0.00000089 -0.00008514 -0.00019134  0.99083018  0.00069359  0.00000000
                          -0.00000000  0.00000000 -0.00000000 -0.00000000 -0.00000000 -0.00000000  0.00000000

   4    1  |0 0>           0.00000012 -0.00555081  0.99081455 -0.00021073  0.00008512 -0.00003764 -0.00000000
                           0.00000000 -0.00000000 -0.00000000  0.00000000 -0.00000000  0.00000000  0.00000000

   5    1  |0 0>          -0.00000008  0.99081455  0.00555082  0.00007236 -0.00000039 -0.00002671  0.00000001
                           0.00000000 -0.00000000 -0.00000000  0.00000000  0.00000000  0.00000000 -0.00000000

   6    1  |0 0>          -0.13334816 -0.00000002  0.00000001  0.00000000  0.00000000  0.00000000  0.99106925
                          -0.00000000 -0.00000000 -0.00000000  0.00000000  0.00000000 -0.00000000  0.00000000


  No SO block in symmetry 2


 Summary of SO results
 =====================

 Eigenvalues of the spin-orbit matrix
 ....................................

     Nr  Sym         E             E-E0         E-E0           E-E(1)      E-E(1)      E-E(1)
                   (au)            (au)        (cm-1)           (au)       (cm-1)        (eV)
     1   1   -372.95322409     -0.00490868    -1077.33      0.00000000        0.00      0.0000
     2   1   -372.95322409     -0.00490868    -1077.33      0.00000000        0.00      0.0000
     3   1   -372.95322408     -0.00490867    -1077.33      0.00000001        0.00      0.0000
     4   1   -372.95322408     -0.00490867    -1077.33      0.00000001        0.00      0.0000
     5   1   -372.95322407     -0.00490867    -1077.33      0.00000001        0.00      0.0000
     6   1   -372.94421582      0.00409959      899.76      0.00900827     1977.09      0.2451
     7   1   -372.94421582      0.00409959      899.76      0.00900827     1977.09      0.2451
     8   1   -372.94421582      0.00409959      899.76      0.00900827     1977.09      0.2451
     9   1   -372.94170845      0.00660695     1450.06      0.01151563     2527.39      0.3134
    10   1   -372.90890393      0.03941148     8649.82      0.04432016     9727.15      1.2060
    11   1   -372.90890387      0.03941154     8649.83      0.04432022     9727.16      1.2060
    12   1   -372.90890295      0.03941245     8650.03      0.04432114     9727.37      1.2060
    13   1   -372.90890292      0.03941248     8650.04      0.04432116     9727.37      1.2060
    14   1   -372.90890291      0.03941250     8650.04      0.04432118     9727.38      1.2060
    15   1   -372.85216574      0.09614967    21102.41      0.10105835    22179.74      2.7499

 E0 =   -372.94831541 is the energy of the lowest zeroth-order state
 E1 =   -372.95322409 is the energy of the lowest SO-state


 Spin-orbit eigenvectors   (columnwise and corresponding to the eigenvalues in ascending order)
 .......................

        Basis states           Eigenvectors (columnwise)

   Total
 Nr Sym  State Sym Spin / Nr.        1           2           3           4           5           6           7           8

  1  1     1    1  |1 1>+      -0.00297243  0.03864350  0.01728918 -0.03638019  0.69866418 -0.04488588 -0.05947340  0.70233598
                                0.00000000  0.00000000 -0.00000000 -0.00000000  0.00000000  0.00000000 -0.00000000 -0.00000000

  2  1     2    1  |1 1>+       0.01038988 -0.05057585  0.05368332  0.69629077  0.03694719 -0.03069669  0.70201739  0.05998499
                               -0.00000000 -0.00000000  0.00000000 -0.00000000 -0.00000000  0.00000000 -0.00000000 -0.00000000

  3  1     3    1  |1 1>+       0.03496749  0.79737830 -0.11363882  0.05062112 -0.02721032 -0.00005352  0.05400793 -0.02976885
                               -0.00000000  0.00000000 -0.00000000 -0.00000000 -0.00000000  0.00000000 -0.00000000 -0.00000000

  4  1     1    1  |1 0>       -0.00000003 -0.00000000  0.00000001  0.00000000 -0.00000000  0.00000000  0.00000000  0.00000000
                               -0.56962421  0.30150866 -0.43367771  0.01742553 -0.01689158 -0.39262324  0.00166384  0.00371606

  5  1     2    1  |1 0>       -0.00000002 -0.00000000 -0.00000001 -0.00000000  0.00000000 -0.00000001 -0.00000000 -0.00000000
                               -0.37667901  0.32201645  0.54336250 -0.00457772  0.02188005  0.58804169 -0.00249834 -0.00557720

  6  1     3    1  |1 0>       -0.00000000 -0.00000000  0.00000000 -0.00000000 -0.00000000 -0.00000000  0.00000000 -0.00000000
                               -0.00305177  0.00471467  0.01628745 -0.35892606 -0.60145455  0.00731817  0.34139629  0.61918915

  7  1     1    1  |1 1>-      -0.00000002 -0.00000000 -0.00000002 -0.00000000  0.00000000  0.00000001  0.00000000  0.00000000
                               -0.39488179 -0.12163973  0.60557571 -0.05869764 -0.00672144 -0.58636146  0.00770725 -0.05588911

  8  1     2    1  |1 1>-       0.00000003 -0.00000000 -0.00000001 -0.00000000  0.00000000  0.00000000  0.00000000  0.00000000
                                0.59638736  0.36301712  0.33830473  0.00736197 -0.03493178 -0.39143740 -0.05978955 -0.00151387

  9  1     3    1  |1 1>-       0.00000000  0.00000000  0.00000000 -0.00000000 -0.00000000 -0.00000000  0.00000000  0.00000000
                                0.04926610  0.02605762 -0.02989731 -0.60032158  0.35739446 -0.00061221  0.61686548 -0.34010850

 10  1     1    1  |0 0>       -0.00032841 -0.01540189 -0.13384803  0.00811411  0.00605012  0.00000002 -0.00000000 -0.00000000
                                0.00000000 -0.00000000 -0.00000000 -0.00000000  0.00000000  0.00000000  0.00000000  0.00000000

 11  1     2    1  |0 0>        0.00012905 -0.00037851 -0.00945879 -0.07160191 -0.11418649  0.00000000  0.00000001  0.00000000
                                0.00000000  0.00000000 -0.00000000  0.00000000  0.00000000  0.00000000 -0.00000000 -0.00000000

 12  1     3    1  |0 0>        0.00198035 -0.00030684  0.00370528  0.11427536 -0.07196131  0.00000000 -0.00000001  0.00000000
                               -0.00000000  0.00000000  0.00000000 -0.00000000 -0.00000000 -0.00000000  0.00000000  0.00000000

 13  1     4    1  |0 0>        0.04466543  0.12667275 -0.01463447  0.00040963  0.00058599  0.00000001  0.00000001 -0.00000000
                               -0.00000000  0.00000000 -0.00000000 -0.00000000 -0.00000000  0.00000000 -0.00000000  0.00000000

 14  1     5    1  |0 0>        0.12750160 -0.04440966  0.00473390 -0.00182510  0.00104362  0.00000001  0.00000000 -0.00000000
                               -0.00000001 -0.00000000  0.00000000  0.00000000 -0.00000000  0.00000000 -0.00000000  0.00000000

 15  1     6    1  |0 0>        0.00000002  0.00000004  0.00000000  0.00000000 -0.00000000 -0.00000000  0.00000000  0.00000000
                               -0.00000000  0.00000000  0.00000000  0.00000000 -0.00000000  0.00000000 -0.00000000  0.00000000


   Total
 Nr Sym  State Sym Spin / Nr.        9          10          11          12          13          14          15

  1  1     1    1  |1 1>+       0.02770519  0.00125894 -0.00494418 -0.00104105  0.05483587  0.07810609  0.00372773
                               -0.00000000  0.00000000  0.00000000 -0.00000000  0.00000000  0.00000000 -0.00000000

  2  1     2    1  |1 1>+      -0.04150541 -0.00265157  0.00647485  0.00055593 -0.07789690  0.05501214 -0.00558455
                                0.00000000  0.00000000  0.00000000  0.00000000  0.00000000  0.00000000 -0.00000000

  3  1     3    1  |1 1>+       0.57001396  0.03249330 -0.10502020 -0.00316702 -0.00722197 -0.00026433  0.07669523
                                0.00000000 -0.00000000  0.00000000  0.00000000  0.00000000 -0.00000000  0.00000000

  4  1     1    1  |1 0>        0.00000000  0.00000000  0.00000000 -0.00000000 -0.00000000  0.00000000  0.00000000
                               -0.47587186  0.08904627 -0.01878405 -0.05411508 -0.00039179 -0.00463905 -0.06402846

  5  1     2    1  |1 0>        0.00000000  0.00000000 -0.00000000  0.00000000  0.00000000 -0.00000000  0.00000000
                               -0.31772955  0.06036116 -0.01581883  0.07819343  0.00094609  0.00754821 -0.04275045

  6  1     3    1  |1 0>       -0.00000000  0.00000000  0.00000000  0.00000000  0.00000000 -0.00000000 -0.00000000
                               -0.00000593  0.00049379  0.00028072  0.00888314 -0.00227106 -0.09509530 -0.00000080

  7  1     1    1  |1 1>-      -0.00000000  0.00000000  0.00000000  0.00000000  0.00000000 -0.00000000 -0.00000000
                                0.31651936  0.04212406  0.04257769  0.08029846  0.00478718  0.00076883  0.04258763

  8  1     2    1  |1 1>-       0.00000000 -0.00000000 -0.00000000  0.00000000  0.00000000 -0.00000000  0.00000000
                               -0.47405821 -0.06165977 -0.06861499  0.05170515 -0.00572647 -0.00020371 -0.06378446

  9  1     3    1  |1 1>-      -0.00000000 -0.00000000  0.00000000  0.00000000  0.00000000  0.00000000  0.00000000
                               -0.04990269 -0.00647755 -0.00600181 -0.00090112  0.09521586 -0.00240948 -0.00671440

 10  1     1    1  |0 0>       -0.00000001 -0.00007354  0.00021030  0.99083038  0.00019137 -0.00001707 -0.00000000
                                0.00000000  0.00000000  0.00000000 -0.00000000 -0.00000000  0.00000000  0.00000000

 11  1     2    1  |0 0>        0.00000000  0.00002649  0.00003785  0.00001720 -0.00069358  0.99083021 -0.00000000
                               -0.00000000  0.00000000  0.00000000  0.00000000 -0.00000000  0.00000000 -0.00000000

 12  1     3    1  |0 0>        0.00000000  0.00000089 -0.00008514 -0.00019134  0.99083018  0.00069359  0.00000000
                               -0.00000000  0.00000000 -0.00000000 -0.00000000 -0.00000000 -0.00000000  0.00000000

 13  1     4    1  |0 0>        0.00000012 -0.00555081  0.99081455 -0.00021073  0.00008512 -0.00003764 -0.00000000
                                0.00000000 -0.00000000 -0.00000000  0.00000000 -0.00000000  0.00000000  0.00000000

 14  1     5    1  |0 0>       -0.00000008  0.99081455  0.00555082  0.00007236 -0.00000039 -0.00002671  0.00000001
                                0.00000000 -0.00000000 -0.00000000  0.00000000  0.00000000  0.00000000 -0.00000000

 15  1     6    1  |0 0>       -0.13334816 -0.00000002  0.00000001  0.00000000  0.00000000  0.00000000  0.99106925
                               -0.00000000 -0.00000000 -0.00000000  0.00000000  0.00000000 -0.00000000  0.00000000



 Composition of spin-orbit eigenvectors
 ======================================
   Total
 Nr Sym  State Sym Spin / Nr.      1        2        3        4        5        6        7        8

  1  1     1    1  |1 1>+         0.00%    0.15%    0.03%    0.13%   48.81%    0.20%    0.35%   49.33%
  2  1     2    1  |1 1>+         0.01%    0.26%    0.29%   48.48%    0.14%    0.09%   49.28%    0.36%
  3  1     3    1  |1 1>+         0.12%   63.58%    1.29%    0.26%    0.07%    0.00%    0.29%    0.09%
  4  1     1    1  |1 0>         32.45%    9.09%   18.81%    0.03%    0.03%   15.42%    0.00%    0.00%
  5  1     2    1  |1 0>         14.19%   10.37%   29.52%    0.00%    0.05%   34.58%    0.00%    0.00%
  6  1     3    1  |1 0>          0.00%    0.00%    0.03%   12.88%   36.17%    0.01%   11.66%   38.34%
  7  1     1    1  |1 1>-        15.59%    1.48%   36.67%    0.34%    0.00%   34.38%    0.01%    0.31%
  8  1     2    1  |1 1>-        35.57%   13.18%   11.45%    0.01%    0.12%   15.32%    0.36%    0.00%
  9  1     3    1  |1 1>-         0.24%    0.07%    0.09%   36.04%   12.77%    0.00%   38.05%   11.57%
 10  1     1    1  |0 0>          0.00%    0.02%    1.79%    0.01%    0.00%    0.00%    0.00%    0.00%
 11  1     2    1  |0 0>          0.00%    0.00%    0.01%    0.51%    1.30%    0.00%    0.00%    0.00%
 12  1     3    1  |0 0>          0.00%    0.00%    0.00%    1.31%    0.52%    0.00%    0.00%    0.00%
 13  1     4    1  |0 0>          0.20%    1.60%    0.02%    0.00%    0.00%    0.00%    0.00%    0.00%
 14  1     5    1  |0 0>          1.63%    0.20%    0.00%    0.00%    0.00%    0.00%    0.00%    0.00%
 15  1     6    1  |0 0>          0.00%    0.00%    0.00%    0.00%    0.00%    0.00%    0.00%    0.00%

   Total
 Nr Sym  State Sym Spin / Nr.      9       10       11       12       13       14       15

  1  1     1    1  |1 1>+         0.08%    0.00%    0.00%    0.00%    0.30%    0.61%    0.00%
  2  1     2    1  |1 1>+         0.17%    0.00%    0.00%    0.00%    0.61%    0.30%    0.00%
  3  1     3    1  |1 1>+        32.49%    0.11%    1.10%    0.00%    0.01%    0.00%    0.59%
  4  1     1    1  |1 0>         22.65%    0.79%    0.04%    0.29%    0.00%    0.00%    0.41%
  5  1     2    1  |1 0>         10.10%    0.36%    0.03%    0.61%    0.00%    0.01%    0.18%
  6  1     3    1  |1 0>          0.00%    0.00%    0.00%    0.01%    0.00%    0.90%    0.00%
  7  1     1    1  |1 1>-        10.02%    0.18%    0.18%    0.64%    0.00%    0.00%    0.18%
  8  1     2    1  |1 1>-        22.47%    0.38%    0.47%    0.27%    0.00%    0.00%    0.41%
  9  1     3    1  |1 1>-         0.25%    0.00%    0.00%    0.00%    0.91%    0.00%    0.00%
 10  1     1    1  |0 0>          0.00%    0.00%    0.00%   98.17%    0.00%    0.00%    0.00%
 11  1     2    1  |0 0>          0.00%    0.00%    0.00%    0.00%    0.00%   98.17%    0.00%
 12  1     3    1  |0 0>          0.00%    0.00%    0.00%    0.00%   98.17%    0.00%    0.00%
 13  1     4    1  |0 0>          0.00%    0.00%   98.17%    0.00%    0.00%    0.00%    0.00%
 14  1     5    1  |0 0>          0.00%   98.17%    0.00%    0.00%    0.00%    0.00%    0.00%
 15  1     6    1  |0 0>          1.78%    0.00%    0.00%    0.00%    0.00%    0.00%   98.22%



 **********************************************************************************************************************************
 DATASETS  * FILE   NREC   LENGTH (MB)   RECORD NAMES
              1      21       94.20       500      610      700      900      950      970     1000      129      960     1100   
                                          VAR    BASINP    GEOM    SYMINP    ZMAT    AOBASIS   BASIS     P2S    ABASIS      S 
                                         1400     1410     1420     1200     1210     1080     1700     1600     1650     1380   
                                           T        V       ECP      H0       H01     AOSYM    OPER      SMH    MOLCAS    JKOP   
                                         1700(1)
                                         OPER   

              2       7     2515.39       700     1000      520     2100     2140     5302     5102   
                                         GEOM     BASIS   MCVARS     RHF     MCSCF    MRCI     MRCI   

 PROGRAMS   *        TOTAL        CI        CI        CI     MULTI   RHF-SCF       INT
 CPU TIMES  *     14493.62   6330.34   5304.62   2834.39     12.56      1.41     10.00
 REAL TIME  *     14834.99 SEC
 DISK USED  *         2.55 GB (local),       42.15 GB (total)
 SF USED    *        17.04 GB
 GA USED    *         0.00 MB       (max)       0.00 MB       (current)
 **********************************************************************************************************************************

 CI/USERDEF energy=   -372.852165739075

              CI              CI           MULTI         RHF-SCF
   -372.79269172   -372.88586863   -371.77903459   -371.54911812
 **********************************************************************************************************************************
 Molpro calculation terminated with 1 warning(s)
