
 Working directory              : /wrk/irikura/molpro.NR3omDjvo6/
 Global scratch directory       : /wrk/irikura/molpro.NR3omDjvo6/
 Wavefunction directory         : /home/irikura/wfu/
 Main file repository           : /wrk/irikura/molpro.NR3omDjvo6/

 id        : nistki

 Nodes            nprocs
 pn112695.nist.gov   12
 GA implementation: MPI file
 GA implementation (serial work in mppx): MPI file

 Using customized tuning parameters: mindgm=1; mindgv=20; mindgc=4; mindgr=1; noblas=0; minvec=7
 default implementation of scratch files=sf  


 Variables initialized (1040), CPU time= 0.01 sec
 ***,F SO-CI
 memory,1000,M;
 
 gprint,orbitals,civector;
 
 symmetry,xyz
 geometry={F};
 
 basis=aug-cc-pwCV5Z-DK
 
 set,dkho=101
 
                                                                                 ! start with dication to get better 3s3p orbitals
 {rhf,so-sci;wf,nelec=7,sym=2,spin=3}
 
                                                                                 ! Active space (7/8) to get 3p orbs
 {multi
     closed,1,0;
     occ,3,6
     wf,nelec=9,sym=2,spin=1;state,8;
     wf,nelec=9,sym=2,spin=3;state,8;
     expec2,lxx,lyy,lzz;
 }
 table, energy, ll
 title, Energies and &lt;L**2&gt; values
 
 {ci;wf,sym=2,spin=1;state,8; save,5201.2}
 hlsdiag = energd4
 {ci;wf,sym=2,spin=3;state,8; save,5203.2}
 hlsdiag(9) = energd4
 
 table,hlsdiag
 
 {ci;hlsmat,ls,5201.2,5203.2;print,vls=0,hls=0}                                  !compute and diagonalize SO matrix
 Commands initialized (846), CPU time= 0.02 sec, 717 directives.
 Default parameters read. Elapsed time= 0.20 sec

 Checking input...
 Passed
1


                                         ***  PROGRAM SYSTEM MOLPRO  ***
                                       Copyright, TTI GmbH Stuttgart, 2015
                                    Version 2023.2 linked Fri Sep 22 03:27:09 2023


 **********************************************************************************************************************************
 LABEL *   F SO-CI                                                                                                                                                       
  (32 PROC) 64 bit mpp version                                                           DATE: 29-Feb-24          TIME: 17:00:37  
 **********************************************************************************************************************************

 SHA1:             3c61bfe44d37c8635c785372c339f5cbdd4e4b59
 **********************************************************************************************************************************

 Memory per process:      1000 MW
 Total memory per node:  12000 MW

 GA preallocation disabled
 GA check disabled

 Variable memory set to 1000.0 MW


 ZSYMEL=XYZ

 SETTING BASIS          =    AUG-CC-PWCV5Z-DK
 SETTING DKHO           =       101.00000000                                  


 Recomputing integrals since basis changed


 Using spherical harmonics

 Library entry F      S aug-cc-pwCV5Z-DK     selected for orbital group  1
 Library entry F      P aug-cc-pwCV5Z-DK     selected for orbital group  1
 Library entry F      D aug-cc-pwCV5Z-DK     selected for orbital group  1
 Library entry F      F aug-cc-pwCV5Z-DK     selected for orbital group  1
 Library entry F      G aug-cc-pwCV5Z-DK     selected for orbital group  1
 Library entry F      H aug-cc-pwCV5Z-DK     selected for orbital group  1


 PROGRAM * SEWARD (Integral evaluation for generally contracted gaussian basis sets)     Author: Roland Lindh, 1990

 Geometry written to block  1 of record 700

 Orientation using atomic masses  
 Molecule type: Atom
 User-specified symmetry elements: XYZ
 Symmetry elements: XYZ
 Rotational constants:       0.0000000      0.0000000      0.0000000 GHz  (calculated with average atomic masses)

 Point group  Ci  



 ATOMIC COORDINATES

 NR  ATOM    CHARGE       X              Y              Z

   1  F       9.00    0.000000000    0.000000000    0.000000000

 NUCLEAR CHARGE:                    9
 NUMBER OF PRIMITIVE AOS:         268
 NUMBER OF SYMMETRY AOS:          198
 NUMBER OF CONTRACTIONS:          181   (   87Ag  +   94Au  )
 NUMBER OF INNER CORE ORBITALS:     0   (    0Ag  +    0Au  )
 NUMBER OF OUTER CORE ORBITALS:     1   (    1Ag  +    0Au  )
 NUMBER OF VALENCE ORBITALS:        4   (    1Ag  +    3Au  )


 NUCLEAR REPULSION ENERGY    0.00000000

 One-electron integrals computed with SEWARD

 eXact-2-Component (X2C) method activated

 Computing Douglas-Kroll / X2C integrals

 AO integral compression algorithm  1   Integral accuracy      1.0D-11

     115.606 MB (compressed) written to integral file ( 12.5%)

     Node minimum: 6.816 MB, node maximum: 12.059 MB


 NUMBER OF SORTED TWO-ELECTRON INTEGRALS:    5717064.     BUFFER LENGTH:  32768
 NUMBER OF SEGMENTS:   1  SEGMENT LENGTH:    5717064      RECORD LENGTH: 524288

 Memory used in sort:       6.27 MW

 SORT1 READ   116167465. AND WROTE      980139. INTEGRALS IN      3 RECORDS. CPU TIME:     0.53 SEC, REAL TIME:     0.54 SEC
 SORT2 READ    12192376. AND WROTE    68575111. INTEGRALS IN    444 RECORDS. CPU TIME:     0.14 SEC, REAL TIME:     0.16 SEC

 Node minimum:     5710154.  Node maximum:     5725412. integrals

 OPERATOR DM      FOR CENTER  0  COORDINATES:    0.000000    0.000000    0.000000

 EXTRA SYMMETRY OF AOS IN SYMMETRY 1:   1 1 1 1 1 1 1 1 1 1   1 2 3 4 5 6 2 3 4 5   6 2 3 4 5 6 2 3 4 5   6 2 3 4 5 6 2 3 4 5
                                        6 2 3 4 5 6 2 3 4 5   6 7 8 9101112131415   7 8 9101112131415 7   8 9101112131415 7 8
                                        9101112131415
 EXTRA SYMMETRY OF AOS IN SYMMETRY 2:   1 2 3 1 2 3 1 2 3 1   2 3 1 2 3 1 2 3 1 2   3 1 2 3 1 2 3 1 2 3   4 5 6 7 8 910 4 5 6
                                        7 8 910 4 5 6 7 8 9  10 4 5 6 7 8 910 4 5   6 7 8 910 4 5 6 7 8   9101112131415161718
                                       19202111121314151617  18192021

 Eigenvalues of metric

         1 0.578E-05 0.405E-03 0.391E-02 0.886E-02 0.376E-01 0.376E-01 0.376E-01 0.376E-01
         2 0.317E-03 0.317E-03 0.317E-03 0.260E-01 0.260E-01 0.260E-01 0.387E-01 0.387E-01


 **********************************************************************************************************************************
 DATASETS  * FILE   NREC   LENGTH (MB)   RECORD NAMES
              1      22       29.71       500      610      700      900      950      970     1000      129      960     1700   
                                          VAR    BASINP    GEOM    SYMINP    ZMAT    AOBASIS   BASIS     P2S    ABASIS    OPER   
                                         1101     1401     1411     1412     1650     1100     1400     1410     1200     1210   
                                          SR      EKINR    POTR     PVPR    MOLCAS      S      EKIN      POT      H0       H01  
                                         1080     1600   
                                         AOSYM     SMH  

 PROGRAMS   *        TOTAL       INT
 CPU TIMES  *         2.17      1.82
 REAL TIME  *         2.89 SEC
 DISK USED  *        30.07 MB (local),      580.39 MB (total)
 GA USED    *         0.00 MB       (max)       0.00 MB       (current)
 **********************************************************************************************************************************


 Program * Restricted Hartree-Fock

 Orbital guess generated from atomic densities. Full valence occupancy:    2   3

 Initial alpha occupancy:   2   3
 Initial beta  occupancy:   2   0
 
 SO-SCI SOLVER WITH NELEC=7 SYM=2 MS2=3 THRE=1.0D-08 THRG=3.2D-06
 
 Authors: D.A. Kreplin, H.-J. Werner (2022)
 
 Number of closed-shell orbitals:                 2   (    2    0)
 Number of singly occupied active orbitals:       3   (    0    3)
 Number of virtual orbitals:                    176   (   85   91)
 
 ITER.  MIC  NCI          ENERGY    ENERGY CHANGE          GRAD      ORB GRAD        CI RES  NQN        STEP      TIME
    1    1    0     -97.27540119     -97.27540119    1.22796274    1.22796274    0.00000000    0    0.37E+00      0.12
    2    1    0     -97.68936100      -0.41395981    0.22771920    0.22771920    0.00000000    0    0.53E-01      0.24
    3    1    0     -97.69672853      -0.00736753    0.02385613    0.02385613    0.00000000    0    0.35E-02      0.36
    4    1    0     -97.69679861      -0.00007008    0.00414609    0.00414609    0.00000000    1    0.66E-03      0.47
    5    1    0     -97.69680076      -0.00000215    0.00018634    0.00018634    0.00000000    2    0.34E-04      0.58
    6    1    0     -97.69680077      -0.00000001    0.00002612    0.00002612    0.00000000    3    0.53E-05      0.71

 CONVERGENCE REACHED!  Final gradient:     0.00000123 ( 0.12E-05)
                       Final energy:     -97.69680077
 

 Final alpha occupancy:   2   3
 Final beta  occupancy:   2   0

 !RHF STATE 1.2 Energy                -97.696800765952
  RHF One-electron energy            -126.307861040824
  RHF Two-electron energy              28.611060274871
  RHF Kinetic energy                   98.281917689973
  RHF Nuclear energy                    0.000000000000
  RHF Virial quotient                  -0.994046545511

 !RHF STATE 1.2 Dipole moment           0.00000000     0.00000000     0.00000000
 Dipole moment /Debye                   0.00000000     0.00000000     0.00000000

 ELECTRON ORBITALS
 =================

  Orbital  Occupation    Energy    Cen Mu Typ  Coefficients
    1.1     2.00000   -28.10648     1  1  s    0.99042
    2.1     2.00000    -2.92101     1  2  s    1.08066
    1.2     1.00000    -2.34359     1  1  px   1.17761    1  1  pz  -0.30608
    2.2     1.00000    -2.34359     1  1  py   0.99582    1  1  pz  -0.66516
    3.2     1.00000    -2.34359     1  1  py   0.69914    1  1  pz   0.97360


 HOMO      3.2    -2.343588 =     -63.7723eV
 LUMO      3.1    -0.466855 =     -12.7038eV
 LUMO-HOMO         1.876733 =      51.0685eV

 Orbitals saved in record  2100.2


 **********************************************************************************************************************************
 DATASETS  * FILE   NREC   LENGTH (MB)   RECORD NAMES
              1      23       31.09       500      610      700      900      950      970     1000      129      960     1700   
                                          VAR    BASINP    GEOM    SYMINP    ZMAT    AOBASIS   BASIS     P2S    ABASIS    OPER   
                                         1101     1401     1411     1412     1650     1100     1400     1410     1200     1210   
                                          SR      EKINR    POTR     PVPR    MOLCAS      S      EKIN      POT      H0       H01  
                                         1080     1600     1380   
                                         AOSYM     SMH     JKOP   

              2       4        0.84       700     1000      520     2100   
                                         GEOM     BASIS   MCVARS     RHF  

 PROGRAMS   *        TOTAL   RHF-SCF       INT
 CPU TIMES  *         2.94      0.77      1.82
 REAL TIME  *         3.74 SEC
 DISK USED  *        32.03 MB (local),      603.90 MB (total)
 SF USED    *         5.61 MB
 GA USED    *         0.00 MB       (max)       0.00 MB       (current)
 **********************************************************************************************************************************

 PROGRAM * MULTI (Direct Multiconfiguration SCF)       Authors: P.J. Knowles, H.-J. Werner (1984)
                                                                D.A. Kreplin, P.J. Knowles, H.-J. Werner (2019)

 Number of closed-shell orbitals:   1 (    1    0)
 Number of active  orbitals:        8 (    2    6)
 Number of external orbitals:     172 (   84   88)

 State symmetry 1

 Number of active electrons:   7    Spin symmetry=Doublet   Space symmetry=2
 Number of states:             8
 Number of CSFs:            1204   (1980 determinants, 3920 intermediate states)

 State symmetry 2

 Number of active electrons:   7    Spin symmetry=Quartet   Space symmetry=2
 Number of states:             8
 Number of CSFs:             656   (776 determinants, 1568 intermediate states)

 Molecular orbitals read from record     2100.2  Type=RHF/CANONICAL (state 1.2)

 EXTRA SYMMETRY OF MOS IN SYMMETRY 1:   1 1 1 4 6 3 5 2 1 6   4 3 5 2 112 8 71514  11 91013 4 6 3 5 2 8  12 711 915141310 2 4
                                        6 5 3 1 7 911131014  15 812 2 4 3 6 5 1 4   6 5 3 2 111 912 8 7  10131415 4 5 6 3 2 1
                                        1 5 3 4 6 2 1
 *** IN SYMMETRY 2 ORBITAL  1 SYMMETRY CONTAMINATION OF 0.237D+00 HAS BEEN REMOVED
 *** IN SYMMETRY 2 ORBITAL  2 SYMMETRY CONTAMINATION OF 0.472D+00 HAS BEEN REMOVED
 *** IN SYMMETRY 2 ORBITAL  3 SYMMETRY CONTAMINATION OF 0.485D+00 HAS BEEN REMOVED
 *** IN SYMMETRY 2 ORBITAL  4 SYMMETRY CONTAMINATION OF 0.391D-01 HAS BEEN REMOVED
 *** IN SYMMETRY 2 ORBITAL  5 SYMMETRY CONTAMINATION OF 0.208D+00 HAS BEEN REMOVED
 *** IN SYMMETRY 2 ORBITAL  6 SYMMETRY CONTAMINATION OF 0.187D+00 HAS BEEN REMOVED
 EXTRA SYMMETRY OF MOS IN SYMMETRY 2:   1 2 3 3 2 1 3 2 1 4   5 7 9 6 810 3 2 1 6   7 9 810 5 4 3 1 221  13141618201517111219
                                       10 8 9 7 6 5 4 3 2 1  14161211171521131920  18 7 9 810 4 5 6 3 2   110 8 6 4 5 9 7 3 2
                                        110 8 9 7 6 4 5 3 2   1 1 3 2

 Wavefunction dump at record             2140.2

 Convergence thresholds  0.10E-04 (gradient)  0.10E-05 (energy)

 Weight factors for state symmetry  1:    0.06250   0.06250   0.06250   0.06250   0.06250   0.06250   0.06250   0.06250
 Weight factors for state symmetry  2:    0.06250   0.06250   0.06250   0.06250   0.06250   0.06250   0.06250   0.06250
 
 Number of orbital rotations:  782  ( 2 closed/active, 84 closed/virtual, 0 active/active, 696 active/virtual )
 Total number of variables:    22830
 
 Second-order MCSCF: L-BFGS accelerated
 
 ITER  MIC  NCI  NEG     ENERGY(VAR)    ENERGY(PROJ) ENERGY CHANGE       GRAD(0)  GRAD(ORB)   GRAD(CI)      STEP      TIME
   1    6   30    0    -98.98493039     -99.09405723   -0.10912684    0.63148346 0.00257158 0.00274889  0.87E+00      1.85
   2    7   28    0    -99.09825461     -99.09875612   -0.00050151    0.03801724 0.00001639 0.00002184  0.48E-01      3.67
   3    6   23    0    -99.09875798     -99.09875800   -0.00000002    0.00021625 0.00000925 0.00000448  0.27E-03      5.67
   4    4   12    0    -99.09875800     -99.09875800   -0.00000000    0.00000143 0.00000000 0.00000006  0.30E-05      6.60

 CONVERGENCE REACHED!  Final gradient:    0.00000000 ( 0.24E-08)
                       Final energy:    -99.09875800
 
 Results for state 1.2 Doublet
 =============================
 !MCSCF STATE 1.2 Doublet Energy               -99.475418024068
 Nuclear energy                                  0.00000000
 Kinetic energy                                100.93964142
 One electron energy                          -139.89274992
 Two electron energy                            40.41733189
 Virial ratio                                    1.98549407
 
 !MCSCF STATE 1.2 Doublet Dipole moment          0.00000000     0.00000000     0.00000000
 Dipole moment /Debye                            0.00000000     0.00000000     0.00000000
 
 Results for state 2.2 Doublet
 =============================
 !MCSCF STATE 2.2 Doublet Energy               -99.475418024068
 Nuclear energy                                  0.00000000
 Kinetic energy                                100.93964142
 One electron energy                          -139.89274992
 Two electron energy                            40.41733189
 Virial ratio                                    1.98549407
 
 !MCSCF STATE 2.2 Doublet Dipole moment          0.00000000     0.00000000     0.00000000
 Dipole moment /Debye                            0.00000000     0.00000000     0.00000000
 
 Results for state 3.2 Doublet
 =============================
 !MCSCF STATE 3.2 Doublet Energy               -99.475418024068
 Nuclear energy                                  0.00000000
 Kinetic energy                                100.93964142
 One electron energy                          -139.89274992
 Two electron energy                            40.41733189
 Virial ratio                                    1.98549407
 
 !MCSCF STATE 3.2 Doublet Dipole moment          0.00000000     0.00000000     0.00000000
 Dipole moment /Debye                            0.00000000     0.00000000     0.00000000
 
 Results for state 4.2 Doublet
 =============================
 !MCSCF STATE 4.2 Doublet Energy               -99.006409071222
 Nuclear energy                                  0.00000000
 Kinetic energy                                 99.49557112
 One electron energy                          -135.19771812
 Two electron energy                            36.19130905
 Virial ratio                                    1.99508358
 
 !MCSCF STATE 4.2 Doublet Dipole moment          0.00000000     0.00000000     0.00000000
 Dipole moment /Debye                            0.00000000     0.00000000     0.00000000
 
 Results for state 5.2 Doublet
 =============================
 !MCSCF STATE 5.2 Doublet Energy               -99.006409071222
 Nuclear energy                                  0.00000000
 Kinetic energy                                 99.49557112
 One electron energy                          -135.19771812
 Two electron energy                            36.19130905
 Virial ratio                                    1.99508358
 
 !MCSCF STATE 5.2 Doublet Dipole moment          0.00000000     0.00000000     0.00000000
 Dipole moment /Debye                            0.00000000     0.00000000     0.00000000
 
 Results for state 6.2 Doublet
 =============================
 !MCSCF STATE 6.2 Doublet Energy               -99.006409071222
 Nuclear energy                                  0.00000000
 Kinetic energy                                 99.49557112
 One electron energy                          -135.19771812
 Two electron energy                            36.19130905
 Virial ratio                                    1.99508358
 
 !MCSCF STATE 6.2 Doublet Dipole moment          0.00000000     0.00000000     0.00000000
 Dipole moment /Debye                            0.00000000     0.00000000     0.00000000
 
 Results for state 7.2 Doublet
 =============================
 !MCSCF STATE 7.2 Doublet Energy               -99.006409071205
 Nuclear energy                                  0.00000000
 Kinetic energy                                 99.49557112
 One electron energy                          -135.19771812
 Two electron energy                            36.19130905
 Virial ratio                                    1.99508358
 
 !MCSCF STATE 7.2 Doublet Dipole moment          0.00000000     0.00000000     0.00000000
 Dipole moment /Debye                            0.00000000     0.00000000     0.00000000
 
 Results for state 8.2 Doublet
 =============================
 !MCSCF STATE 8.2 Doublet Energy               -99.006409071205
 Nuclear energy                                  0.00000000
 Kinetic energy                                 99.49557112
 One electron energy                          -135.19771812
 Two electron energy                            36.19130905
 Virial ratio                                    1.99508358
 
 !MCSCF STATE 8.2 Doublet Dipole moment          0.00000000     0.00000000     0.00000000
 Dipole moment /Debye                            0.00000000     0.00000000     0.00000000
 
 Results for state 1.2 Quartet
 =============================
 !MCSCF STATE 1.2 Quartet Energy               -99.020647698694
 Nuclear energy                                  0.00000000
 Kinetic energy                                 99.44105774
 One electron energy                          -135.14275266
 Two electron energy                            36.12210496
 Virial ratio                                    1.99577227
 
 !MCSCF STATE 1.2 Quartet Dipole moment          0.00000000     0.00000000     0.00000000
 Dipole moment /Debye                            0.00000000     0.00000000     0.00000000
 
 Results for state 2.2 Quartet
 =============================
 !MCSCF STATE 2.2 Quartet Energy               -99.020647698694
 Nuclear energy                                  0.00000000
 Kinetic energy                                 99.44105774
 One electron energy                          -135.14275266
 Two electron energy                            36.12210496
 Virial ratio                                    1.99577227
 
 !MCSCF STATE 2.2 Quartet Dipole moment          0.00000000     0.00000000     0.00000000
 Dipole moment /Debye                            0.00000000     0.00000000     0.00000000
 
 Results for state 3.2 Quartet
 =============================
 !MCSCF STATE 3.2 Quartet Energy               -99.020647698694
 Nuclear energy                                  0.00000000
 Kinetic energy                                 99.44105774
 One electron energy                          -135.14275266
 Two electron energy                            36.12210496
 Virial ratio                                    1.99577227
 
 !MCSCF STATE 3.2 Quartet Dipole moment          0.00000000     0.00000000     0.00000000
 Dipole moment /Debye                            0.00000000     0.00000000     0.00000000
 
 Results for state 4.2 Quartet
 =============================
 !MCSCF STATE 4.2 Quartet Energy               -99.011977080212
 Nuclear energy                                  0.00000000
 Kinetic energy                                 99.46100945
 One electron energy                          -135.16357204
 Two electron energy                            36.15159496
 Virial ratio                                    1.99548534
 
 !MCSCF STATE 4.2 Quartet Dipole moment          0.00000000     0.00000000     0.00000000
 Dipole moment /Debye                            0.00000000     0.00000000     0.00000000
 
 Results for state 5.2 Quartet
 =============================
 !MCSCF STATE 5.2 Quartet Energy               -99.011977080212
 Nuclear energy                                  0.00000000
 Kinetic energy                                 99.46100945
 One electron energy                          -135.16357204
 Two electron energy                            36.15159496
 Virial ratio                                    1.99548534
 
 !MCSCF STATE 5.2 Quartet Dipole moment          0.00000000     0.00000000     0.00000000
 Dipole moment /Debye                            0.00000000     0.00000000     0.00000000
 
 Results for state 6.2 Quartet
 =============================
 !MCSCF STATE 6.2 Quartet Energy               -99.011977080207
 Nuclear energy                                  0.00000000
 Kinetic energy                                 99.46100945
 One electron energy                          -135.16357204
 Two electron energy                            36.15159496
 Virial ratio                                    1.99548534
 
 !MCSCF STATE 6.2 Quartet Dipole moment          0.00000000     0.00000000     0.00000000
 Dipole moment /Debye                            0.00000000     0.00000000     0.00000000
 
 Results for state 7.2 Quartet
 =============================
 !MCSCF STATE 7.2 Quartet Energy               -99.011977080207
 Nuclear energy                                  0.00000000
 Kinetic energy                                 99.46100945
 One electron energy                          -135.16357204
 Two electron energy                            36.15159496
 Virial ratio                                    1.99548534
 
 !MCSCF STATE 7.2 Quartet Dipole moment          0.00000000     0.00000000     0.00000000
 Dipole moment /Debye                            0.00000000     0.00000000     0.00000000
 
 Results for state 8.2 Quartet
 =============================
 !MCSCF STATE 8.2 Quartet Energy               -99.011977080207
 Nuclear energy                                  0.00000000
 Kinetic energy                                 99.46100945
 One electron energy                          -135.16357204
 Two electron energy                            36.15159496
 Virial ratio                                    1.99548534
 
 !MCSCF STATE 8.2 Quartet Dipole moment          0.00000000     0.00000000     0.00000000
 Dipole moment /Debye                            0.00000000     0.00000000     0.00000000
 
 State-averaged charge density matrix saved on record 2140.2 (density set 1)
 
 No non-zero expectation values
 
 Expectation values for two-electron operators:
 
 ? Warning
 ? Transition properties are only calculated between states of the same symmetry
 ? The problem occurs in mu_properties_expec2

 !MCSCF expec      <1.2 Doublet|LXLX|1.2 Doublet>     0.993194871164
 !MCSCF expec      <2.2 Doublet|LXLX|2.2 Doublet>     0.121814289378
 !MCSCF expec      <3.2 Doublet|LXLX|3.2 Doublet>     0.884990839458
 !MCSCF expec      <4.2 Doublet|LXLX|4.2 Doublet>     1.001417992905
 !MCSCF expec      <5.2 Doublet|LXLX|5.2 Doublet>     1.589155782560
 !MCSCF expec      <6.2 Doublet|LXLX|6.2 Doublet>     3.409425863912
 !MCSCF expec      <7.2 Doublet|LXLX|7.2 Doublet>     3.547632397997
 !MCSCF expec      <8.2 Doublet|LXLX|8.2 Doublet>     0.452367962626
 !MCSCF expec      <1.2 Quartet|LXLX|1.2 Quartet>     0.068109392419
 !MCSCF expec      <2.2 Quartet|LXLX|2.2 Quartet>     0.962899819529
 !MCSCF expec      <3.2 Quartet|LXLX|3.2 Quartet>     0.968990788052
 !MCSCF expec      <4.2 Quartet|LXLX|4.2 Quartet>     3.364502851190
 !MCSCF expec      <5.2 Quartet|LXLX|5.2 Quartet>     0.635514340016
 !MCSCF expec      <6.2 Quartet|LXLX|6.2 Quartet>     1.075785000493
 !MCSCF expec      <7.2 Quartet|LXLX|7.2 Quartet>     2.094694957374
 !MCSCF expec      <8.2 Quartet|LXLX|8.2 Quartet>     2.829502850927
 
 !MCSCF expec      <1.2 Doublet|LYLY|1.2 Doublet>     0.887094862686
 !MCSCF expec      <2.2 Doublet|LYLY|2.2 Doublet>     0.879925018930
 !MCSCF expec      <3.2 Doublet|LYLY|3.2 Doublet>     0.232980118384
 !MCSCF expec      <4.2 Doublet|LYLY|4.2 Doublet>     1.030857730929
 !MCSCF expec      <5.2 Doublet|LYLY|5.2 Doublet>     3.380533201024
 !MCSCF expec      <6.2 Doublet|LYLY|6.2 Doublet>     1.588609255797
 !MCSCF expec      <7.2 Doublet|LYLY|7.2 Doublet>     0.129086347359
 !MCSCF expec      <8.2 Doublet|LYLY|8.2 Doublet>     3.870913464890
 !MCSCF expec      <1.2 Quartet|LYLY|1.2 Quartet>     0.995343662354
 !MCSCF expec      <2.2 Quartet|LYLY|2.2 Quartet>     0.298487079685
 !MCSCF expec      <3.2 Quartet|LYLY|3.2 Quartet>     0.706169257961
 !MCSCF expec      <4.2 Quartet|LYLY|4.2 Quartet>     2.584073061480
 !MCSCF expec      <5.2 Quartet|LYLY|5.2 Quartet>     1.415900830820
 !MCSCF expec      <6.2 Quartet|LYLY|6.2 Quartet>     3.492587990383
 !MCSCF expec      <7.2 Quartet|LYLY|7.2 Quartet>     1.137539154675
 !MCSCF expec      <8.2 Quartet|LYLY|8.2 Quartet>     1.369898962642
 
 !MCSCF expec      <1.2 Doublet|LZLZ|1.2 Doublet>     0.119710266150
 !MCSCF expec      <2.2 Doublet|LZLZ|2.2 Doublet>     0.998260691693
 !MCSCF expec      <3.2 Doublet|LZLZ|3.2 Doublet>     0.882029042157
 !MCSCF expec      <4.2 Doublet|LZLZ|4.2 Doublet>     3.967724276165
 !MCSCF expec      <5.2 Doublet|LZLZ|5.2 Doublet>     1.030311016415
 !MCSCF expec      <6.2 Doublet|LZLZ|6.2 Doublet>     1.001964880291
 !MCSCF expec      <7.2 Doublet|LZLZ|7.2 Doublet>     2.323281254644
 !MCSCF expec      <8.2 Doublet|LZLZ|8.2 Doublet>     1.676718572484
 !MCSCF expec      <1.2 Quartet|LZLZ|1.2 Quartet>     0.936546945228
 !MCSCF expec      <2.2 Quartet|LZLZ|2.2 Quartet>     0.738613100785
 !MCSCF expec      <3.2 Quartet|LZLZ|3.2 Quartet>     0.324839953987
 !MCSCF expec      <4.2 Quartet|LZLZ|4.2 Quartet>     0.051424087330
 !MCSCF expec      <5.2 Quartet|LZLZ|5.2 Quartet>     3.948584829165
 !MCSCF expec      <6.2 Quartet|LZLZ|6.2 Quartet>     1.431627009124
 !MCSCF expec      <7.2 Quartet|LZLZ|7.2 Quartet>     2.767765887950
 !MCSCF expec      <8.2 Quartet|LZLZ|8.2 Quartet>     1.800598186431
 
 !MCSCF expec      <1.2 Doublet|L**2|1.2 Doublet>     2.000000000000
 !MCSCF expec      <2.2 Doublet|L**2|2.2 Doublet>     2.000000000000
 !MCSCF expec      <3.2 Doublet|L**2|3.2 Doublet>     2.000000000000
 !MCSCF expec      <4.2 Doublet|L**2|4.2 Doublet>     6.000000000000
 !MCSCF expec      <5.2 Doublet|L**2|5.2 Doublet>     6.000000000000
 !MCSCF expec      <6.2 Doublet|L**2|6.2 Doublet>     6.000000000000
 !MCSCF expec      <7.2 Doublet|L**2|7.2 Doublet>     6.000000000000
 !MCSCF expec      <8.2 Doublet|L**2|8.2 Doublet>     6.000000000000
 !MCSCF expec      <1.2 Quartet|L**2|1.2 Quartet>     2.000000000000
 !MCSCF expec      <2.2 Quartet|L**2|2.2 Quartet>     2.000000000000
 !MCSCF expec      <3.2 Quartet|L**2|3.2 Quartet>     2.000000000000
 !MCSCF expec      <4.2 Quartet|L**2|4.2 Quartet>     6.000000000000
 !MCSCF expec      <5.2 Quartet|L**2|5.2 Quartet>     6.000000000000
 !MCSCF expec      <6.2 Quartet|L**2|6.2 Quartet>     6.000000000000
 !MCSCF expec      <7.2 Quartet|L**2|7.2 Quartet>     6.000000000000
 !MCSCF expec      <8.2 Quartet|L**2|8.2 Quartet>     6.000000000000
 
 EXTRA SYMMETRY OF MOS IN SYMMETRY 1:   1 1 1 1 4 5 3 6 2 3   5 4 6 2 112 8 71514   9111013 4 3 5 6 2 8  12 71415 9111013 2 4
                                        3 5 6 1 713101514 9  11 812 2 5 4 3 6 1 5   4 3 6 2 112 811 9 7  10131415 5 4 6 3 2 1
                                        1 5 3 4 6 2 1
 EXTRA SYMMETRY OF MOS IN SYMMETRY 2:   2 3 1 2 3 1 1 2 3 4   5 6 7 910 8 3 1 2 6  10 8 7 9 4 5 2 3 121  13141620181915171112
                                        9 7 810 6 4 5 3 2 1  14161112182019211317  15 9 7 810 4 5 6 3 2   110 8 7 9 4 5 6 3 2
                                        110 8 7 9 6 4 5 3 2   1 1 3 2
 
  NATURAL ORBITALS (STATE AVERAGED)
  =================================

  Orbital  Occupation    Energy    Cen Mu Typ  Coefficients
    1.1     2.00000   -26.83103     1  1  s    0.98995
    2.1     1.99630    -1.88792     1  2  s    1.04328
    3.1     0.00398     1.29067     1  2  s   -1.83839    1  4  s   -0.59540    1  5  s    1.44341    1  6  s    1.21961
    1.2     1.39175    -0.82317     1  1  py   1.07709
    2.2     1.39175    -0.82317     1  1  pz   1.07709
    3.2     1.39175    -0.82317     1  1  px   1.07709
    4.2     0.27482     0.08792     1  1  py  -0.29578    1 10  py   1.04592
    5.2     0.27482     0.08792     1  1  pz  -0.29578    1 10  pz   1.04592
    6.2     0.27482     0.08792     1  1  px  -0.29578    1 10  px   1.04592
 
 Natural orbital dump (state averaged) at molpro section 2140.2 (Orbital set 2)
 
 Transform the CI vectors
 
 CI Coefficients of symmetry 2 (Doublet)
 =======================================

 State:              1               2               3               4               5               6               7
 20 2a2000      0.91338928     -0.04060050      0.33437257     -0.00000000     -0.00000000      0.00000000      0.00000000
 20 22a000     -0.08030845      0.91229706      0.33014848     -0.00000000      0.00000000     -0.00000000      0.00000000
 20 a22000     -0.32711461     -0.33734118      0.85260211     -0.00000000     -0.00000000     -0.00000000      0.00000000
 20 2aab00      0.00000000      0.00000000     -0.00000000     -0.00045166     -0.00011815     -0.00018315      0.65352687
 20 aa200b      0.00000000      0.00000000     -0.00000000      0.00014446      0.00021371      0.00051472     -0.22340959
 20 aa2b00     -0.10312401      0.00458390     -0.03775153      0.57222724      0.05783029      0.01472077      0.00040662
 20 2aa00b      0.10312401     -0.00458390      0.03775153      0.57222724      0.05783029      0.01472077      0.00040662
 20 a2ab00      0.00906703     -0.10300070     -0.03727462     -0.01250262      0.25495991     -0.51560085     -0.00004809
 20 2aa0b0      0.00906703     -0.10300070     -0.03727462      0.01250262     -0.25495991      0.51560085      0.00004809
 20 a2a00b     -0.03693209     -0.03808669      0.09626098     -0.05835010      0.51250003      0.25484127      0.00005985
 20 aa20b0     -0.03693209     -0.03808669      0.09626098      0.05835010     -0.51250003     -0.25484127     -0.00005985
 20 a2a0b0     -0.00000000      0.00000000      0.00000000     -0.00030719      0.00009556      0.00033157      0.43011729
 20 2aba00     -0.00000000     -0.00000000      0.00000000      0.00022711      0.00005664      0.00008492     -0.32838813
 20 2baa00     -0.00000000     -0.00000000     -0.00000000      0.00022455      0.00006150      0.00009822     -0.32513875
 20 ba200a     -0.00000000     -0.00000000      0.00000000     -0.00006627     -0.00010668     -0.00025853      0.10318752
 20 ab200a     -0.00000000     -0.00000000      0.00000000     -0.00007820     -0.00010703     -0.00025619      0.12022207
 20 2ba00a     -0.02171027      0.00096503     -0.00794767     -0.29061124     -0.02936968     -0.00747609     -0.00020650
 20 ab2a00      0.02171027     -0.00096503      0.00794767     -0.29061124     -0.02936968     -0.00747609     -0.00020650
 20 ba2a00      0.08141374     -0.00361887      0.02980386     -0.28161600     -0.02846061     -0.00724468     -0.00020011
 20 2ab00a     -0.08141374      0.00361887     -0.02980386     -0.28161600     -0.02846061     -0.00724468     -0.00020011
 20 a2ba00     -0.00190884      0.02168431      0.00784727      0.00634958     -0.12948390      0.26185297      0.00002442
 20 2ab0a0     -0.00190884      0.02168431      0.00784727     -0.00634958      0.12948390     -0.26185297     -0.00002442
 20 b2a00a      0.00777516      0.00801823     -0.02026543      0.02963367     -0.26027819     -0.12942365     -0.00003040
 20 ba20a0      0.00777516      0.00801823     -0.02026543     -0.02963367      0.26027819      0.12942365      0.00003040
 20 b2a0a0      0.00000000     -0.00000000      0.00000000      0.00014891     -0.00005039     -0.00017127     -0.20816606
 20 b2aa00     -0.00715819      0.08131639      0.02942735      0.00615304     -0.12547601      0.25374788      0.00002367
 20 2ba0a0     -0.00715819      0.08131639      0.02942735     -0.00615304      0.12547601     -0.25374788     -0.00002367
 20 a2b00a      0.02915693      0.03006846     -0.07599556      0.02871643     -0.25222185     -0.12541762     -0.00002945
 20 ab20a0      0.02915693      0.03006846     -0.07599556     -0.02871643      0.25222185      0.12541762      0.00002945
 20 a2b0a0      0.00000000      0.00000000     -0.00000000      0.00015828     -0.00004517     -0.00016030     -0.22195123
 ab 2a2000      0.05336182     -0.00237195      0.01953464     -0.00000000     -0.00000000     -0.00000000      0.00000000
 ab 22a000     -0.00469176      0.05329801      0.01928786     -0.00000000      0.00000000     -0.00000000      0.00000000
 20 2020a0      0.05025263     -0.00223375      0.01839643     -0.00000000     -0.00000000      0.00000000      0.00000000
 20 22000a     -0.00441839      0.05019254      0.01816403     -0.00000000      0.00000000     -0.00000000     -0.00000000
 
 Energy:      -99.47541802    -99.47541802    -99.47541802    -99.00640907    -99.00640907    -99.00640907    -99.00640907

 State:              8
 20 2a2000     -0.00000000
 20 22a000     -0.00000000
 20 a22000      0.00000000
 20 2aab00     -0.11934265
 20 aa200b      0.62564216
 20 aa2b00     -0.00001879
 20 2aa00b     -0.00001879
 20 a2ab00      0.00032281
 20 2aa0b0     -0.00032281
 20 a2a00b     -0.00034988
 20 aa20b0      0.00034988
 20 a2a0b0      0.50629952
 20 2aba00      0.05077444
 20 2baa00      0.06856821
 20 ba200a     -0.31586250
 20 ab200a     -0.30977966
 20 2ba00a      0.00000955
 20 ab2a00      0.00000955
 20 ba2a00      0.00000925
 20 2ab00a      0.00000925
 20 a2ba00     -0.00016394
 20 2ab0a0      0.00016394
 20 b2a00a      0.00017769
 20 ba20a0     -0.00017769
 20 b2a0a0     -0.25900522
 20 b2aa00     -0.00015887
 20 2ba0a0      0.00015887
 20 a2b00a      0.00017219
 20 ab20a0     -0.00017219
 20 a2b0a0     -0.24729429
 ab 2a2000     -0.00000000
 ab 22a000     -0.00000000
 20 2020a0     -0.00000000
 20 22000a      0.00000000
 
 Energy:      -99.00640907
 
 
 CI Coefficients of symmetry 2 (Quartet)
 =======================================

 State:              1               2               3               4               5               6               7
 20 a2a0a0      0.00000000     -0.00000000      0.00000000      0.80913604      0.09232791      0.00002723     -0.00187508
 20 aa200a      0.00000000     -0.00000000      0.00000000      0.32460758      0.74689885      0.00005467     -0.00151899
 20 a2aa00      0.68085807     -0.13585078      0.12419940      0.00190765      0.00077064      0.11209704      0.42603794
 20 2aa0a0      0.68085807     -0.13585078      0.12419940     -0.00190765     -0.00077064     -0.11209704     -0.42603794
 20 2aaa00      0.00000000      0.00000000      0.00000000      0.48452846     -0.65457094     -0.00002744     -0.00035608
 20 aa20a0      0.04812784      0.59073398      0.38231623     -0.00012458     -0.00001921      0.64287681      0.15100404
 20 a2a00a      0.04812784      0.59073398      0.38231623      0.00012458      0.00001921     -0.64287681     -0.15100404
 20 2aa00a      0.17766439      0.36059195     -0.57953209      0.00054947      0.00039134     -0.26752034      0.54139630
 20 aa2a00     -0.17766439     -0.36059195      0.57953209      0.00054947      0.00039134     -0.26752034      0.54139630
 
 Energy:      -99.02064770    -99.02064770    -99.02064770    -99.01197708    -99.01197708    -99.01197708    -99.01197708

 State:              8
 20 a2a0a0     -0.00148683
 20 aa200a     -0.00100551
 20 a2aa00      0.55076780
 20 2aa0a0     -0.55076780
 20 2aaa00     -0.00048132
 20 aa20a0     -0.24765025
 20 a2a00a      0.24765025
 20 2aa00a     -0.36434315
 20 aa2a00     -0.36434315
 
 Energy:      -99.01197708
 


 **********************************************************************************************************************************
 DATASETS  * FILE   NREC   LENGTH (MB)   RECORD NAMES
              1      24       38.80       500      610      700      900      950      970     1000      129      960     1700   
                                          VAR    BASINP    GEOM    SYMINP    ZMAT    AOBASIS   BASIS     P2S    ABASIS    OPER   
                                         1101     1401     1411     1412     1650     1100     1400     1410     1200     1210   
                                          SR      EKINR    POTR     PVPR    MOLCAS      S      EKIN      POT      H0       H01  
                                         1080     1600     1380     1700(1)
                                         AOSYM     SMH     JKOP     OPER   

              2       5        1.58       700     1000      520     2100     2140   
                                         GEOM     BASIS   MCVARS     RHF     MCSCF   

 PROGRAMS   *        TOTAL     MULTI   RHF-SCF       INT
 CPU TIMES  *         6.52      3.56      0.77      1.82
 REAL TIME  *        12.24 SEC
 DISK USED  *        40.47 MB (local),      705.17 MB (total)
 SF USED    *        32.16 MB
 GA USED    *         0.00 MB       (max)       0.00 MB       (current)
 **********************************************************************************************************************************

 Energies and &lt;L**2&gt; values

        ENERGY      LL
    -99.47541802   2.0
    -99.47541802   2.0
    -99.47541802   2.0
    -99.00640907   6.0
    -99.00640907   6.0
    -99.00640907   6.0
    -99.00640907   6.0
    -99.00640907   6.0
    -99.02064770   2.0
    -99.02064770   2.0
    -99.02064770   2.0
    -99.01197708   6.0
    -99.01197708   6.0
    -99.01197708   6.0
    -99.01197708   6.0
    -99.01197708   6.0
                                                  


 PROGRAM * CI (Multireference internally contracted CI)     Authors: H.-J. Werner, P.J. Knowles, 1987


 Convergence thresholds:  THRVAR = 1.00D-08  THRDEN = 1.00D-06

 Number of optimized states: 8  Roots:    1   2   3   4   5   6   7   8
 Number of reference states: 8  Roots:    1   2   3   4   5   6   7   8

 Reference symmetry:                   2   Doublet 
 Number of electrons:                  9
 Maximum number of shells:             4
 Maximum number of spin couplings:    14

 Reference space:      554 conf     1204 CSFs
 N elec internal:     1016 conf     2352 CSFs
 N-1 el internal:      784 conf     2688 CSFs
 N-2 el internal:      504 conf     2520 CSFs

 Number of electrons in valence space:                      7
 Maximum number of open shell orbitals in reference space:  7
 Maximum number of open shell orbitals in internal spaces:  7


 Number of core orbitals:           1 (   1   0 )
 Number of active  orbitals:        8 (   2   6 )
 Number of external orbitals:     172 (  84  88 )

 Molecular orbitals read from record     2140.2  Type=MCSCF/NATURAL (state averaged)

 Valence orbitals related to previous ones by unitary transformation. Operators transformed.


 Number of p-space configurations:  12

 Reference wavefunction optimized for reference space (refopt=1)

 State     Reference Energy 
     1       -99.47541802
     2       -99.47541802
     3       -99.47541802
     4       -99.00640907
     5       -99.00640907
     6       -99.00640907
     7       -99.00640907
     8       -99.00640907

 Number of blocks in overlap matrix:    12   Smallest eigenvalue:  0.14D-06
 Number of N-2 electron functions:     479
 Number of N-1 electron functions:    2688

 Number of internal configurations:                 1204
 Number of singly external configurations:        231232
 Number of doubly external configurations:       3545730
 Total number of contracted configurations:      3778166
 Total number of uncontracted configurations:   18850280

 Diagonal Coupling coefficients finished.               Storage:   1342717 words, CPU-Time:      0.57 seconds.
 Energy denominators for pairs finished in 1 passes.    Storage:    672497 words, CPU-time:      0.07 seconds.

  ITER. STATE  ROOT     SQ.NORM     CORR.ENERGY   TOTAL ENERGY   ENERGY CHANGE       DEN1      VAR(S)    VAR(P)      TIME
    1     1     1     1.00000000     0.00000000   -99.47541802     0.00000000    -0.26868401  0.56D-01  0.12D-01     1.19
    1     2     2     1.00000000     0.00000000   -99.47541802     0.00000000    -0.26858968  0.56D-01  0.12D-01     1.19
    1     3     3     1.00000000     0.00000000   -99.47541802     0.00000000    -0.26828163  0.56D-01  0.12D-01     1.19
    1     4     4     1.00000000     0.00000000   -99.00640907     0.00000000    -0.18527498  0.19D-01  0.98D-02     1.19
    1     5     5     1.00000000     0.00000000   -99.00640907     0.00000000    -0.18536852  0.19D-01  0.98D-02     1.19
    1     6     6     1.00000000     0.00000000   -99.00640907     0.00000000    -0.18551259  0.19D-01  0.98D-02     1.19
    1     7     7     1.00000000     0.00000000   -99.00640907     0.00000000    -0.18711592  0.20D-01  0.10D-01     1.19
    1     8     8     1.00000000     0.00000000   -99.00640907     0.00000000    -0.18533297  0.20D-01  0.97D-02     1.19
    2     1     1     1.05618857    -0.24661680   -99.72203482    -0.24661680    -0.01496274  0.14D-02  0.12D-02    55.34
    2     2     2     1.05618642    -0.24656757   -99.72198559    -0.24656757    -0.01498346  0.14D-02  0.12D-02    55.34
    2     3     3     1.05620311    -0.24644088   -99.72185891    -0.24644088    -0.01504657  0.14D-02  0.12D-02    55.34
    2     4     4     1.02829596    -0.18163686   -99.18804593    -0.18163686    -0.00506461  0.26D-03  0.45D-03    55.34
    2     5     5     1.02807958    -0.18163557   -99.18804465    -0.18163557    -0.00503617  0.25D-03  0.44D-03    55.34
    2     6     6     1.02809957    -0.18163411   -99.18804318    -0.18163411    -0.00503989  0.25D-03  0.44D-03    55.34
    2     7     7     1.02808838    -0.18161220   -99.18802127    -0.18161220    -0.00505546  0.25D-03  0.44D-03    55.34
    2     8     8     1.02836154    -0.18157183   -99.18798091    -0.18157183    -0.00511105  0.28D-03  0.44D-03    55.34
    3     1     1     1.05577594    -0.26262939   -99.73804742    -0.01601260    -0.00106389  0.58D-04  0.93D-04   109.21
    3     2     2     1.05576648    -0.26262385   -99.73804187    -0.01605628    -0.00106599  0.59D-04  0.93D-04   109.21
    3     3     3     1.05576056    -0.26260306   -99.73802108    -0.01616218    -0.00107843  0.59D-04  0.94D-04   109.21
    3     4     4     1.02934816    -0.18717769   -99.19358676    -0.00554083    -0.00038597  0.30D-04  0.36D-04   109.21
    3     5     5     1.02934853    -0.18717665   -99.19358572    -0.00554108    -0.00038733  0.30D-04  0.36D-04   109.21
    3     6     6     1.02934512    -0.18717352   -99.19358259    -0.00553941    -0.00038758  0.30D-04  0.36D-04   109.21
    3     7     7     1.02936491    -0.18716637   -99.19357544    -0.00555417    -0.00039068  0.31D-04  0.36D-04   109.21
    3     8     8     1.02932869    -0.18716053   -99.19356960    -0.00558869    -0.00039777  0.31D-04  0.38D-04   109.21
    4     1     1     1.05795315    -0.26396834   -99.73938636    -0.00133895    -0.00010277  0.47D-05  0.92D-05   163.87
    4     2     2     1.05794904    -0.26396731   -99.73938533    -0.00134346    -0.00010337  0.48D-05  0.92D-05   163.87
    4     3     3     1.05794436    -0.26396447   -99.73938249    -0.00136141    -0.00010504  0.48D-05  0.94D-05   163.87
    4     4     4     1.03067435    -0.18768756   -99.19409663    -0.00050987    -0.00005543  0.43D-05  0.55D-05   163.87
    4     5     5     1.03067431    -0.18768750   -99.19409657    -0.00051085    -0.00005541  0.43D-05  0.55D-05   163.87
    4     6     6     1.03067600    -0.18768633   -99.19409540    -0.00051281    -0.00005587  0.43D-05  0.56D-05   163.87
    4     7     7     1.03070022    -0.18768368   -99.19409276    -0.00051732    -0.00005735  0.43D-05  0.57D-05   163.87
    4     8     8     1.03069524    -0.18768303   -99.19409210    -0.00052251    -0.00005848  0.42D-05  0.61D-05   163.87
    5     1     1     1.05879279    -0.26409675   -99.73951478    -0.00012841    -0.00001241  0.71D-06  0.11D-05   218.20
    5     2     2     1.05879408    -0.26409658   -99.73951460    -0.00012927    -0.00001250  0.71D-06  0.11D-05   218.20
    5     3     3     1.05879497    -0.26409618   -99.73951421    -0.00013172    -0.00001279  0.73D-06  0.11D-05   218.20
    5     4     4     1.03087807    -0.18776338   -99.19417245    -0.00007583    -0.00001018  0.60D-06  0.10D-05   218.20
    5     5     5     1.03087898    -0.18776337   -99.19417244    -0.00007587    -0.00001018  0.60D-06  0.10D-05   218.20
    5     6     6     1.03087911    -0.18776306   -99.19417213    -0.00007673    -0.00001032  0.61D-06  0.10D-05   218.20
    5     7     7     1.03088520    -0.18776224   -99.19417131    -0.00007855    -0.00001071  0.64D-06  0.11D-05   218.20
    5     8     8     1.03088822    -0.18776173   -99.19417080    -0.00007869    -0.00001097  0.61D-06  0.11D-05   218.20
    6     1     1     1.05870539    -0.26411268   -99.73953070    -0.00001593    -0.00000174  0.86D-07  0.16D-06   272.27
    6     2     2     1.05870534    -0.26411264   -99.73953066    -0.00001606    -0.00000176  0.87D-07  0.16D-06   272.27
    6     3     3     1.05870449    -0.26411263   -99.73953066    -0.00001645    -0.00000181  0.90D-07  0.16D-06   272.27
    6     4     4     1.03086993    -0.18777714   -99.19418621    -0.00001375    -0.00000230  0.11D-06  0.23D-06   272.27
    6     5     5     1.03087007    -0.18777712   -99.19418619    -0.00001375    -0.00000229  0.11D-06  0.22D-06   272.27
    6     6     6     1.03086965    -0.18777703   -99.19418610    -0.00001397    -0.00000234  0.11D-06  0.23D-06   272.27
    6     7     7     1.03086742    -0.18777678   -99.19418585    -0.00001454    -0.00000247  0.12D-06  0.24D-06   272.27
    6     8     8     1.03086487    -0.18777653   -99.19418560    -0.00001481    -0.00000252  0.12D-06  0.24D-06   272.27
    7     1     1     1.05873460    -0.26411489   -99.73953292    -0.00000221    -0.00000029  0.16D-07  0.25D-07   326.58
    7     2     2     1.05873547    -0.26411485   -99.73953288    -0.00000222    -0.00000028  0.15D-07  0.24D-07   326.58
    7     3     3     1.05873505    -0.26411483   -99.73953286    -0.00000220    -0.00000028  0.15D-07  0.24D-07   326.58
    7     4     4     1.03090035    -0.18778021   -99.19418928    -0.00000307    -0.00000060  0.45D-07  0.57D-07   326.58
    7     5     5     1.03090019    -0.18778019   -99.19418926    -0.00000307    -0.00000060  0.45D-07  0.56D-07   326.58
    7     6     6     1.03090021    -0.18778017   -99.19418924    -0.00000313    -0.00000061  0.45D-07  0.58D-07   326.58
    7     7     7     1.03090041    -0.18778009   -99.19418916    -0.00000331    -0.00000064  0.50D-07  0.60D-07   326.58
    7     8     8     1.03089974    -0.18777988   -99.19418895    -0.00000335    -0.00000066  0.51D-07  0.64D-07   326.58
    8     1     1     1.05875094    -0.26411523   -99.73953326    -0.00000034    -0.00000005  0.21D-08  0.43D-08   381.33
    8     2     2     1.05875107    -0.26411518   -99.73953320    -0.00000032    -0.00000005  0.19D-08  0.42D-08   381.33
    8     3     3     1.05875103    -0.26411516   -99.73953318    -0.00000033    -0.00000005  0.20D-08  0.42D-08   381.33
    8     4     4     1.03089849    -0.18778096   -99.19419003    -0.00000075    -0.00000016  0.10D-07  0.16D-07   381.33
    8     5     5     1.03089846    -0.18778094   -99.19419001    -0.00000075    -0.00000016  0.10D-07  0.16D-07   381.33
    8     6     6     1.03089835    -0.18778093   -99.19419000    -0.00000077    -0.00000016  0.11D-07  0.16D-07   381.33
    8     7     7     1.03089760    -0.18778090   -99.19418997    -0.00000081    -0.00000017  0.11D-07  0.17D-07   381.33
    8     8     8     1.03089781    -0.18778070   -99.19418978    -0.00000082    -0.00000018  0.10D-07  0.19D-07   381.33
    9     1     1     1.05875095    -0.26411523   -99.73953326    -0.00000000    -0.00000005  0.21D-08  0.43D-08   417.10
    9     2     2     1.05875108    -0.26411518   -99.73953320    -0.00000000    -0.00000005  0.19D-08  0.42D-08   417.10
    9     3     3     1.05875104    -0.26411516   -99.73953318    -0.00000000    -0.00000005  0.20D-08  0.42D-08   417.10
    9     4     4     1.03090294    -0.18778119   -99.19419027    -0.00000023    -0.00000002  0.12D-08  0.21D-08   417.10
    9     5     5     1.03090306    -0.18778118   -99.19419025    -0.00000024    -0.00000002  0.13D-08  0.21D-08   417.10
    9     6     6     1.03089877    -0.18778116   -99.19419024    -0.00000023    -0.00000005  0.23D-08  0.47D-08   417.10
    9     7     7     1.03089876    -0.18778114   -99.19419021    -0.00000024    -0.00000005  0.24D-08  0.47D-08   417.10
    9     8     8     1.03090321    -0.18778099   -99.19419007    -0.00000029    -0.00000002  0.13D-08  0.23D-08   417.10


 =====================================
 Analysis of CPU times by interactions
 =====================================

       I      S      P

 I   0.1%
 S   0.1%   0.4%
 P   0.3%   5.2%  63.6%

 Initialization:   0.2%
 Other:           30.2%

 Total CPU:      417.1 seconds
 =====================================



 Wavefunction saved on  5201.2

 Reference coefficients greater than 0.0500000
 =============================================
 202/2000           0.9615609   0.0000000   0.0000034   0.0000176   0.0000000   0.0000000   0.0000000  -0.0000000
 2022/000          -0.0000000   0.9615608  -0.0000174   0.0000000   0.0000000  -0.0000007  -0.0000000   0.0000000
 20/22000          -0.0000034   0.0000174   0.9615608   0.0000000  -0.0000000   0.0000000  -0.0000237   0.0000000
 20/2/0\0           0.0000000  -0.0000000  -0.0000000  -0.0000000   0.0247824   0.0000166   0.0000065   0.8010022
 202//\00          -0.0000000   0.0000000   0.0000000  -0.0000000   0.7058724   0.0001716   0.0000000   0.3788538
 20//20\0          -0.0000003   0.0000014   0.0763379  -0.0000265   0.0000031  -0.0000155   0.6940864  -0.0000057
 20//2\00          -0.0763379  -0.0000000  -0.0000003   0.6940336  -0.0000000   0.0000007   0.0000265  -0.0000000
 202//0\0           0.0000000  -0.0763378   0.0000014   0.0000007   0.0001637  -0.6938952  -0.0000155   0.0000093
 20/2/\00           0.0000000  -0.0763379   0.0000014  -0.0000007  -0.0001637   0.6938827   0.0000155  -0.0000093
 202//00\           0.0763379   0.0000000   0.0000003   0.6937420  -0.0000000   0.0000007   0.0000265  -0.0000000
 20/2/00\          -0.0000003   0.0000014   0.0763380   0.0000265  -0.0000031   0.0000154  -0.6936914   0.0000057
 20//200\          -0.0000000   0.0000000   0.0000000  -0.0000000  -0.6812417  -0.0001551   0.0000065   0.4216909
 /\22/000          -0.0000000   0.0592995  -0.0000011   0.0000000  -0.0000000   0.0000002   0.0000000   0.0000000
 /\/22000          -0.0000002   0.0000011   0.0592995   0.0000000  -0.0000000   0.0000000  -0.0000051   0.0000000
 /\2/2000           0.0592994   0.0000000   0.0000002   0.0000040   0.0000000   0.0000000   0.0000000   0.0000000

 Coefficients of singly external configurations greater than 0.0500000
 =====================================================================

 20/2\000   8.2    -0.0000000   0.0872512  -0.0000016  -0.0000000  -0.0000078   0.0331847   0.0000007  -0.0000004
 20/2\000   7.2    -0.0000003   0.0000016   0.0872509  -0.0000013   0.0000001  -0.0000007   0.0331585  -0.0000003
 202/\000   7.2     0.0872500   0.0000000   0.0000003  -0.0331554   0.0000000  -0.0000000  -0.0000013   0.0000000
 20/\2000   8.2     0.0872498   0.0000000   0.0000003   0.0331956  -0.0000000   0.0000000   0.0000013   0.0000000
 202/\000   9.2     0.0000000  -0.0872494   0.0000016  -0.0000000  -0.0000078   0.0331880   0.0000007  -0.0000004
 20/\2000   9.2    -0.0000003   0.0000016   0.0872494   0.0000013  -0.0000001   0.0000007  -0.0332140   0.0000003

 Coefficients of fixed reference functions:
 ==========================================

 State      Coefficients
 1          -0.000000   -0.000003    0.967775    0.000000   -0.000000    0.000000   -0.000000    0.000000
 2           0.967775    0.000017    0.000000    0.000000   -0.000000   -0.000000   -0.000000    0.000000
 3          -0.000017    0.967775    0.000003   -0.000000    0.000000   -0.000000    0.000000    0.000000
 4          -0.000000   -0.000000   -0.000022    0.984874   -0.000001   -0.000038   -0.000000    0.000000
 5          -0.000000    0.000000   -0.000000   -0.000000   -0.000232    0.000004   -0.004889    0.984862
 6           0.000001   -0.000000   -0.000000    0.000001    0.984876   -0.000022    0.000012    0.000232
 7          -0.000000    0.000030   -0.000000    0.000038    0.000022    0.984876    0.000008   -0.000004
 8          -0.000000   -0.000000    0.000000   -0.000000   -0.000013   -0.000008    0.984862    0.004889

 Coefficients of rotated reference functions:
 ============================================

 State      Coefficients
 1           0.967775    0.000000    0.000000   -0.000011    0.000000   -0.000000   -0.000000   -0.000000
 2           0.000000    0.967775   -0.000000   -0.000000   -0.000000    0.000001    0.000000   -0.000000
 3           0.000000   -0.000000    0.967775   -0.000000    0.000000   -0.000000    0.000015   -0.000000
 4          -0.000011   -0.000000   -0.000000    0.984874   -0.000000    0.000000   -0.000000   -0.000000
 5           0.000000   -0.000000    0.000000   -0.000000    0.984874   -0.000000    0.000000   -0.000000
 6          -0.000000    0.000001   -0.000000    0.000000   -0.000000    0.984876   -0.000000   -0.000000
 7          -0.000000    0.000000    0.000015   -0.000000    0.000000   -0.000000    0.984876   -0.000000
 8          -0.000000   -0.000000   -0.000000   -0.000000   -0.000000   -0.000000   -0.000000    0.984874


 RESULTS FOR STATE 1.2
 =====================

 Maximum overlap with reference state  3

 Coefficient of reference function:   C(0) = 0.96777471 (fixed)   0.97185863 (relaxed)   0.96777471 (rotated)

 Energy contributions of configuration classes

 CLASS          SQ.NORM        ECORR1        ECORR2
 +++++++++++++++++++++++++++++++++++++++++++++++++++
 Internals    0.00845762   -0.00000000   -0.14659306
 Singles      0.04055265   -0.10983081   -0.11289519
 Pairs        0.01869520    0.00000000   -0.00462698
 Total        1.06770547   -0.10983081   -0.26411523
 +++++++++++++++++++++++++++++++++++++++++++++++++++


 Reference energy                     -99.47541802
 Nuclear energy                         0.00000000
 Kinetic energy                       100.40238772
 One electron energy                 -139.18509001
 Two electron energy                   39.44555676
 Virial quotient                       -0.99339802
 Correlation energy                    -0.26411523
 !MRCI STATE 1.2 Energy               -99.739533257764

 Properties without orbital relaxation:

 !MRCI STATE 1.2 Dipole moment          0.00000000     0.00000000     0.00000000
 Dipole moment /Debye                   0.00000000     0.00000000     0.00000000

 Cluster corrected energies           -99.75741530 (Davidson, fixed reference)
 Cluster corrected energies           -99.75505028 (Davidson, relaxed reference)
 Cluster corrected energies           -99.75741530 (Davidson, rotated reference)

 Cluster corrected energies           -99.75171690 (Pople, fixed reference)
 Cluster corrected energies           -99.75007617 (Pople, relaxed reference)
 Cluster corrected energies           -99.75171690 (Pople, rotated reference)



 RESULTS FOR STATE 2.2
 =====================

 Maximum overlap with reference state  1

 Coefficient of reference function:   C(0) = 0.96777461 (fixed)   0.97185856 (relaxed)   0.96777461 (rotated)

 Energy contributions of configuration classes

 CLASS          SQ.NORM        ECORR1        ECORR2
 +++++++++++++++++++++++++++++++++++++++++++++++++++
 Internals    0.00845770   -0.00000000   -0.14659316
 Singles      0.04055262   -0.10983063   -0.11289512
 Pairs        0.01869536   -0.00000000   -0.00462689
 Total        1.06770569   -0.10983063   -0.26411518
 +++++++++++++++++++++++++++++++++++++++++++++++++++


 Reference energy                     -99.47541802
 Nuclear energy                         0.00000000
 Kinetic energy                       100.40239465
 One electron energy                 -139.18509428
 Two electron energy                   39.44556108
 Virial quotient                       -0.99339795
 Correlation energy                    -0.26411518
 !MRCI STATE 2.2 Energy               -99.739533199795

 Properties without orbital relaxation:

 !MRCI STATE 2.2 Dipole moment          0.00000000     0.00000000     0.00000000
 Dipole moment /Debye                   0.00000000     0.00000000     0.00000000

 Cluster corrected energies           -99.75741530 (Davidson, fixed reference)
 Cluster corrected energies           -99.75505025 (Davidson, relaxed reference)
 Cluster corrected energies           -99.75741530 (Davidson, rotated reference)

 Cluster corrected energies           -99.75171688 (Pople, fixed reference)
 Cluster corrected energies           -99.75007613 (Pople, relaxed reference)
 Cluster corrected energies           -99.75171688 (Pople, rotated reference)



 RESULTS FOR STATE 3.2
 =====================

 Maximum overlap with reference state  2

 Coefficient of reference function:   C(0) = 0.96777465 (fixed)   0.97185858 (relaxed)   0.96777465 (rotated)

 Energy contributions of configuration classes

 CLASS          SQ.NORM        ECORR1        ECORR2
 +++++++++++++++++++++++++++++++++++++++++++++++++++
 Internals    0.00845766   -0.00000000   -0.14659313
 Singles      0.04055260   -0.10983065   -0.11289509
 Pairs        0.01869534   -0.00000000   -0.00462694
 Total        1.06770560   -0.10983065   -0.26411516
 +++++++++++++++++++++++++++++++++++++++++++++++++++


 Reference energy                     -99.47541802
 Nuclear energy                         0.00000000
 Kinetic energy                       100.40239161
 One electron energy                 -139.18509270
 Two electron energy                   39.44555952
 Virial quotient                       -0.99339798
 Correlation energy                    -0.26411516
 !MRCI STATE 3.2 Energy               -99.739533183616

 Properties without orbital relaxation:

 !MRCI STATE 3.2 Dipole moment          0.00000000     0.00000000     0.00000000
 Dipole moment /Debye                   0.00000000     0.00000000     0.00000000

 Cluster corrected energies           -99.75741526 (Davidson, fixed reference)
 Cluster corrected energies           -99.75505022 (Davidson, relaxed reference)
 Cluster corrected energies           -99.75741526 (Davidson, rotated reference)

 Cluster corrected energies           -99.75171685 (Pople, fixed reference)
 Cluster corrected energies           -99.75007611 (Pople, relaxed reference)
 Cluster corrected energies           -99.75171685 (Pople, rotated reference)



 RESULTS FOR STATE 4.2
 =====================

 Coefficient of reference function:   C(0) = 0.98487392 (fixed)   0.98489767 (relaxed)   0.98487392 (rotated)

 Energy contributions of configuration classes

 CLASS          SQ.NORM        ECORR1        ECORR2
 +++++++++++++++++++++++++++++++++++++++++++++++++++
 Internals    0.00004824    0.00000000   -0.11106759
 Singles      0.01802376   -0.07328482   -0.07436333
 Pairs        0.01288067   -0.00000000   -0.00235028
 Total        1.03095267   -0.07328482   -0.18778119
 +++++++++++++++++++++++++++++++++++++++++++++++++++


 Reference energy                     -99.00640907
 Nuclear energy                         0.00000000
 Kinetic energy                        99.86475089
 One electron energy                 -135.13803103
 Two electron energy                   35.94384077
 Virial quotient                       -0.99328531
 Correlation energy                    -0.18778119
 !MRCI STATE 4.2 Energy               -99.194190265345

 Properties without orbital relaxation:

 !MRCI STATE 4.2 Dipole moment          0.00000000     0.00000000     0.00000000
 Dipole moment /Debye                   0.00000000     0.00000000     0.00000000

 Cluster corrected energies           -99.20000259 (Davidson, fixed reference)
 Cluster corrected energies           -99.19999326 (Davidson, relaxed reference)
 Cluster corrected energies           -99.20000259 (Davidson, rotated reference)

 Cluster corrected energies           -99.19810470 (Pople, fixed reference)
 Cluster corrected energies           -99.19809834 (Pople, relaxed reference)
 Cluster corrected energies           -99.19810470 (Pople, rotated reference)



 RESULTS FOR STATE 5.2
 =====================

 Maximum overlap with reference state  8

 Coefficient of reference function:   C(0) = 0.98486172 (fixed)   0.98489761 (relaxed)   0.98487388 (rotated)

 Energy contributions of configuration classes

 CLASS          SQ.NORM        ECORR1        ECORR2
 +++++++++++++++++++++++++++++++++++++++++++++++++++
 Internals    0.00004820    0.00000000   -0.00001014
 Singles      0.01802392   -0.07328504   -0.07436325
 Pairs        0.01288063   -0.11449474   -0.11340779
 Total        1.03095276   -0.18777978   -0.18778118
 +++++++++++++++++++++++++++++++++++++++++++++++++++


 Reference energy                     -99.00640907
 Nuclear energy                         0.00000000
 Kinetic energy                        99.86474274
 One electron energy                 -135.13802387
 Two electron energy                   35.94383362
 Virial quotient                       -0.99328539
 Correlation energy                    -0.18778118
 !MRCI STATE 5.2 Energy               -99.194190247532

 Properties without orbital relaxation:

 !MRCI STATE 5.2 Dipole moment          0.00000000     0.00000000     0.00000000
 Dipole moment /Debye                   0.00000000     0.00000000     0.00000000

 Cluster corrected energies           -99.20000259 (Davidson, fixed reference)
 Cluster corrected energies           -99.19999326 (Davidson, relaxed reference)
 Cluster corrected energies           -99.20000259 (Davidson, rotated reference)

 Cluster corrected energies           -99.19810469 (Pople, fixed reference)
 Cluster corrected energies           -99.19809834 (Pople, relaxed reference)
 Cluster corrected energies           -99.19810469 (Pople, rotated reference)



 RESULTS FOR STATE 6.2
 =====================

 Maximum overlap with reference state  5

 Coefficient of reference function:   C(0) = 0.98487594 (fixed)   0.98489967 (relaxed)   0.98487597 (rotated)

 Energy contributions of configuration classes

 CLASS          SQ.NORM        ECORR1        ECORR2
 +++++++++++++++++++++++++++++++++++++++++++++++++++
 Internals    0.00004812    0.00000000   -0.11104593
 Singles      0.01802276   -0.07328056   -0.07436450
 Pairs        0.01287749   -0.00002702   -0.00237073
 Total        1.03094838   -0.07330758   -0.18778116
 +++++++++++++++++++++++++++++++++++++++++++++++++++


 Reference energy                     -99.00640907
 Nuclear energy                         0.00000000
 Kinetic energy                        99.86491350
 One electron energy                 -135.13805459
 Two electron energy                   35.94386436
 Virial quotient                       -0.99328369
 Correlation energy                    -0.18778116
 !MRCI STATE 6.2 Energy               -99.194190235983

 Properties without orbital relaxation:

 !MRCI STATE 6.2 Dipole moment          0.00000000     0.00000000     0.00000000
 Dipole moment /Debye                   0.00000000     0.00000000     0.00000000

 Cluster corrected energies           -99.20000176 (Davidson, fixed reference)
 Cluster corrected energies           -99.19999244 (Davidson, relaxed reference)
 Cluster corrected energies           -99.20000176 (Davidson, rotated reference)

 Cluster corrected energies           -99.19810412 (Pople, fixed reference)
 Cluster corrected energies           -99.19809778 (Pople, relaxed reference)
 Cluster corrected energies           -99.19810412 (Pople, rotated reference)



 RESULTS FOR STATE 7.2
 =====================

 Maximum overlap with reference state  6

 Coefficient of reference function:   C(0) = 0.98487593 (fixed)   0.98489967 (relaxed)   0.98487593 (rotated)

 Energy contributions of configuration classes

 CLASS          SQ.NORM        ECORR1        ECORR2
 +++++++++++++++++++++++++++++++++++++++++++++++++++
 Internals    0.00004820   -0.00000000   -0.11107261
 Singles      0.01802274   -0.07328056   -0.07436449
 Pairs        0.01287751    0.00000050   -0.00234404
 Total        1.03094845   -0.07328005   -0.18778114
 +++++++++++++++++++++++++++++++++++++++++++++++++++


 Reference energy                     -99.00640907
 Nuclear energy                         0.00000000
 Kinetic energy                        99.86491623
 One electron energy                 -135.13805626
 Two electron energy                   35.94386605
 Virial quotient                       -0.99328367
 Correlation energy                    -0.18778114
 !MRCI STATE 7.2 Energy               -99.194190209875

 Properties without orbital relaxation:

 !MRCI STATE 7.2 Dipole moment          0.00000000     0.00000000     0.00000000
 Dipole moment /Debye                   0.00000000     0.00000000     0.00000000

 Cluster corrected energies           -99.20000175 (Davidson, fixed reference)
 Cluster corrected energies           -99.19999242 (Davidson, relaxed reference)
 Cluster corrected energies           -99.20000175 (Davidson, rotated reference)

 Cluster corrected energies           -99.19810410 (Pople, fixed reference)
 Cluster corrected energies           -99.19809776 (Pople, relaxed reference)
 Cluster corrected energies           -99.19810410 (Pople, rotated reference)



 RESULTS FOR STATE 8.2
 =====================

 Maximum overlap with reference state  7

 Coefficient of reference function:   C(0) = 0.98486168 (fixed)   0.98489754 (relaxed)   0.98487381 (rotated)

 Energy contributions of configuration classes

 CLASS          SQ.NORM        ECORR1        ECORR2
 +++++++++++++++++++++++++++++++++++++++++++++++++++
 Internals    0.00004818   -0.00000000   -0.11051478
 Singles      0.01802432   -0.07328622   -0.07436359
 Pairs        0.01288038   -0.00056829   -0.00290262
 Total        1.03095289   -0.07385451   -0.18778099
 +++++++++++++++++++++++++++++++++++++++++++++++++++


 Reference energy                     -99.00640907
 Nuclear energy                         0.00000000
 Kinetic energy                        99.86473302
 One electron energy                 -135.13802649
 Two electron energy                   35.94383642
 Virial quotient                       -0.99328549
 Correlation energy                    -0.18778099
 !MRCI STATE 8.2 Energy               -99.194190065955

 Properties without orbital relaxation:

 !MRCI STATE 8.2 Dipole moment          0.00000000     0.00000000     0.00000000
 Dipole moment /Debye                   0.00000000     0.00000000     0.00000000

 Cluster corrected energies           -99.20000243 (Davidson, fixed reference)
 Cluster corrected energies           -99.19999310 (Davidson, relaxed reference)
 Cluster corrected energies           -99.20000243 (Davidson, rotated reference)

 Cluster corrected energies           -99.19810452 (Pople, fixed reference)
 Cluster corrected energies           -99.19809818 (Pople, relaxed reference)
 Cluster corrected energies           -99.19810452 (Pople, rotated reference)



 **********************************************************************************************************************************
 DATASETS  * FILE   NREC   LENGTH (MB)   RECORD NAMES
              1      24       38.80       500      610      700      900      950      970     1000      129      960     1700   
                                          VAR    BASINP    GEOM    SYMINP    ZMAT    AOBASIS   BASIS     P2S    ABASIS    OPER   
                                         1101     1401     1411     1412     1650     1100     1400     1410     1200     1210   
                                          SR      EKINR    POTR     PVPR    MOLCAS      S      EKIN      POT      H0       H01  
                                         1080     1600     1380     1700(1)
                                         AOSYM     SMH     JKOP     OPER   

              2       6      236.44       700     1000      520     2100     2140     5201   
                                         GEOM     BASIS   MCVARS     RHF     MCSCF    MRCI   

 PROGRAMS   *        TOTAL        CI     MULTI   RHF-SCF       INT
 CPU TIMES  *       431.16    424.63      3.56      0.77      1.82
 REAL TIME  *       458.06 SEC
 DISK USED  *       275.33 MB (local),        3.44 GB (total)
 SF USED    *         2.18 GB
 GA USED    *         0.00 MB       (max)       0.00 MB       (current)
 **********************************************************************************************************************************
 SETTING HLSDIAG(1)     =       -99.75741530  AU                              
 SETTING HLSDIAG(2)     =       -99.75741530  AU                              
 SETTING HLSDIAG(3)     =       -99.75741526  AU                              
 SETTING HLSDIAG(4)     =       -99.20000259  AU                              
 SETTING HLSDIAG(5)     =       -99.20000259  AU                              
 SETTING HLSDIAG(6)     =       -99.20000176  AU                              
 SETTING HLSDIAG(7)     =       -99.20000175  AU                              
 SETTING HLSDIAG(8)     =       -99.20000243  AU                              


 PROGRAM * CI (Multireference internally contracted CI)     Authors: H.-J. Werner, P.J. Knowles, 1987


 Convergence thresholds:  THRVAR = 1.00D-08  THRDEN = 1.00D-06

 Number of optimized states: 8  Roots:    1   2   3   4   5   6   7   8
 Number of reference states: 8  Roots:    1   2   3   4   5   6   7   8

 Reference symmetry:                   2   Quartet 
 Number of electrons:                  9
 Maximum number of shells:             3
 Maximum number of spin couplings:    14

 Reference space:      344 conf      656 CSFs
 N elec internal:      736 conf     1344 CSFs
 N-1 el internal:      728 conf     1932 CSFs
 N-2 el internal:      492 conf     2060 CSFs

 Number of electrons in valence space:                      7
 Maximum number of open shell orbitals in reference space:  7
 Maximum number of open shell orbitals in internal spaces:  7


 Number of core orbitals:           1 (   1   0 )
 Number of active  orbitals:        8 (   2   6 )
 Number of external orbitals:     172 (  84  88 )

 Molecular orbitals read from record     2140.2  Type=MCSCF/NATURAL (state averaged)

 Coulomb and exchange operators available. No transformation done.


 Number of p-space configurations:   9

 Reference wavefunction optimized for reference space (refopt=1)

 State     Reference Energy 
     1       -99.02064770
     2       -99.02064770
     3       -99.02064770
     4       -99.01197708
     5       -99.01197708
     6       -99.01197708
     7       -99.01197708
     8       -99.01197708

 ?WARNING: SMALL EIGENVALUE OF PAIR OVERLAP MATRIX:  0.4828D-07

 Number of blocks in overlap matrix:    10   Smallest eigenvalue:  0.48D-07
 Number of N-2 electron functions:     445
 Number of N-1 electron functions:    1932

 Number of internal configurations:                  656
 Number of singly external configurations:        166064
 Number of doubly external configurations:       3291206
 Total number of contracted configurations:      3457926
 Total number of uncontracted configurations:   15355708

 Diagonal Coupling coefficients finished.               Storage:    889048 words, CPU-Time:      0.20 seconds.
 Energy denominators for pairs finished in 1 passes.    Storage:    666088 words, CPU-time:      0.06 seconds.

  ITER. STATE  ROOT     SQ.NORM     CORR.ENERGY   TOTAL ENERGY   ENERGY CHANGE       DEN1      VAR(S)    VAR(P)      TIME
    1     1     1     1.00000000     0.00000000   -99.02064770     0.00000000    -0.18254893  0.18D-01  0.93D-02     0.60
    1     2     2     1.00000000     0.00000000   -99.02064770     0.00000000    -0.18273591  0.18D-01  0.93D-02     0.60
    1     3     3     1.00000000     0.00000000   -99.02064770     0.00000000    -0.18274784  0.18D-01  0.94D-02     0.60
    1     4     4     1.00000000     0.00000000   -99.01197708     0.00000000    -0.18363361  0.18D-01  0.95D-02     0.60
    1     5     5     1.00000000     0.00000000   -99.01197708     0.00000000    -0.18616882  0.19D-01  0.10D-01     0.60
    1     6     6     1.00000000     0.00000000   -99.01197708     0.00000000    -0.18304562  0.19D-01  0.93D-02     0.60
    1     7     7     1.00000000     0.00000000   -99.01197708    -0.00000000    -0.18321444  0.19D-01  0.94D-02     0.60
    1     8     8     1.00000000     0.00000000   -99.01197708     0.00000000    -0.18321871  0.19D-01  0.94D-02     0.60
    2     1     1     1.02655970    -0.17976886   -99.20041656    -0.17976886    -0.00531511  0.25D-03  0.45D-03    47.29
    2     2     2     1.02656721    -0.17971762   -99.20036532    -0.17971762    -0.00534782  0.25D-03  0.45D-03    47.29
    2     3     3     1.02654603    -0.17969547   -99.20034317    -0.17969547    -0.00534970  0.25D-03  0.45D-03    47.29
    2     4     4     1.02695580    -0.18054680   -99.19252388    -0.18054680    -0.00513126  0.23D-03  0.45D-03    47.29
    2     5     5     1.02697445    -0.18038536   -99.19236244    -0.18038536    -0.00523115  0.25D-03  0.44D-03    47.29
    2     6     6     1.02703892    -0.18018269   -99.19215977    -0.18018269    -0.00537895  0.26D-03  0.45D-03    47.29
    2     7     7     1.02704998    -0.18013042   -99.19210750    -0.18013042    -0.00541192  0.26D-03  0.45D-03    47.29
    2     8     8     1.02702821    -0.18012042   -99.19209750    -0.18012042    -0.00541210  0.26D-03  0.45D-03    47.29
    3     1     1     1.02798234    -0.18575201   -99.20639971    -0.00598315    -0.00042668  0.24D-04  0.38D-04    94.44
    3     2     2     1.02797822    -0.18574478   -99.20639248    -0.00602716    -0.00043096  0.24D-04  0.38D-04    94.44
    3     3     3     1.02797491    -0.18573827   -99.20638597    -0.00604280    -0.00043514  0.24D-04  0.38D-04    94.44
    3     4     4     1.02821917    -0.18629353   -99.19827061    -0.00574673    -0.00041349  0.23D-04  0.37D-04    94.44
    3     5     5     1.02826962    -0.18628055   -99.19825763    -0.00589518    -0.00041921  0.22D-04  0.38D-04    94.44
    3     6     6     1.02827400    -0.18625899   -99.19823607    -0.00607630    -0.00043603  0.23D-04  0.39D-04    94.44
    3     7     7     1.02826970    -0.18625150   -99.19822858    -0.00612108    -0.00044058  0.23D-04  0.39D-04    94.44
    3     8     8     1.02826626    -0.18624848   -99.19822556    -0.00612806    -0.00044253  0.23D-04  0.39D-04    94.44
    4     1     1     1.02900396    -0.18631509   -99.20696279    -0.00056308    -0.00005746  0.51D-05  0.52D-05   141.32
    4     2     2     1.02900361    -0.18631436   -99.20696206    -0.00056958    -0.00005804  0.51D-05  0.52D-05   141.32
    4     3     3     1.02900386    -0.18631425   -99.20696195    -0.00057598    -0.00005822  0.51D-05  0.52D-05   141.32
    4     4     4     1.02934665    -0.18684967   -99.19882675    -0.00055614    -0.00006061  0.48D-05  0.55D-05   141.32
    4     5     5     1.02935410    -0.18684922   -99.19882630    -0.00056867    -0.00006045  0.49D-05  0.56D-05   141.32
    4     6     6     1.02933861    -0.18684753   -99.19882461    -0.00058854    -0.00006244  0.50D-05  0.57D-05   141.32
    4     7     7     1.02933784    -0.18684681   -99.19882389    -0.00059531    -0.00006302  0.50D-05  0.57D-05   141.32
    4     8     8     1.02933869    -0.18684655   -99.19882363    -0.00059807    -0.00006327  0.51D-05  0.57D-05   141.32
    5     1     1     1.02910058    -0.18639311   -99.20704081    -0.00007802    -0.00000963  0.90D-06  0.87D-06   187.75
    5     2     2     1.02910344    -0.18639296   -99.20704065    -0.00007860    -0.00000968  0.90D-06  0.88D-06   187.75
    5     3     3     1.02910270    -0.18639291   -99.20704061    -0.00007867    -0.00000972  0.90D-06  0.88D-06   187.75
    5     4     4     1.02944929    -0.18693603   -99.19891311    -0.00008636    -0.00001158  0.90D-06  0.11D-05   187.75
    5     5     5     1.02944499    -0.18693564   -99.19891272    -0.00008642    -0.00001189  0.91D-06  0.11D-05   187.75
    5     6     6     1.02944681    -0.18693560   -99.19891268    -0.00008807    -0.00001186  0.92D-06  0.11D-05   187.75
    5     7     7     1.02944607    -0.18693555   -99.19891263    -0.00008874    -0.00001191  0.92D-06  0.11D-05   187.75
    5     8     8     1.02945907    -0.18693521   -99.19891229    -0.00008866    -0.00001208  0.93D-06  0.11D-05   187.75
    6     1     1     1.02910464    -0.18640637   -99.20705407    -0.00001326    -0.00000205  0.85D-07  0.19D-06   235.12
    6     2     2     1.02910436    -0.18640631   -99.20705401    -0.00001335    -0.00000209  0.86D-07  0.19D-06   235.12
    6     3     3     1.02910473    -0.18640630   -99.20705400    -0.00001339    -0.00000209  0.85D-07  0.19D-06   235.12
    6     4     4     1.02943379    -0.18695280   -99.19892988    -0.00001677    -0.00000288  0.13D-06  0.25D-06   235.12
    6     5     5     1.02943170    -0.18695270   -99.19892978    -0.00001706    -0.00000292  0.14D-06  0.25D-06   235.12
    6     6     6     1.02943231    -0.18695268   -99.19892976    -0.00001708    -0.00000293  0.14D-06  0.25D-06   235.12
    6     7     7     1.02943192    -0.18695267   -99.19892975    -0.00001712    -0.00000294  0.14D-06  0.25D-06   235.12
    6     8     8     1.02943061    -0.18695257   -99.19892965    -0.00001736    -0.00000300  0.14D-06  0.26D-06   235.12
[...]
   32    8.2  1.5  0.5   0.038%   0.000%   0.000%   0.068%   0.003%   0.000%   0.011%   0.000%   0.047%   0.000%
   33    1.2  1.5 -0.5  36.960%   0.000%   0.000%  41.988%   4.510%   0.000%   8.324%   0.000%   0.000%   0.000%
   34    2.2  1.5 -0.5   0.179%   0.000%   0.000%   1.383%  45.114%   0.000%   8.324%   0.000%   0.000%   0.000%
   35    3.2  1.5 -0.5   0.000%  42.279%   1.758%   0.000%   0.000%   4.885%   0.000%  33.296%   0.000%   0.000%
   36    4.2  1.5 -0.5   0.079%   0.000%   0.000%   0.052%   0.019%   0.000%   0.017%   0.000%  17.380%   0.089%
   37    5.2  1.5 -0.5   0.000%   0.049%   0.052%   0.000%   0.000%   0.019%   0.000%   0.000%   0.001%   0.106%
   38    6.2  1.5 -0.5   0.000%   0.002%   0.003%   0.000%   0.000%   0.068%   0.000%   0.012%   0.064%  12.472%
   39    7.2  1.5 -0.5   0.039%   0.000%   0.000%   0.052%   0.019%   0.000%   0.017%   0.000%   1.098%   0.006%
   40    8.2  1.5 -0.5   0.000%   0.038%   0.068%   0.000%   0.000%   0.003%   0.000%   0.011%   0.000%   0.047%
   41    1.2  1.5 -1.5   0.000%   8.797%   5.274%   0.000%   0.000%  14.654%   0.000%  24.972%   0.000%   0.000%
   42    2.2  1.5 -1.5   0.000%   0.621%   5.274%   0.000%   0.000%  14.653%   0.000%  24.971%   0.000%   0.000%
   43    3.2  1.5 -1.5  10.666%   0.000%   0.000%  43.961%  15.823%   0.000%   0.000%   0.000%   0.000%   0.000%
   44    4.2  1.5 -1.5   0.000%   0.040%   0.019%   0.000%   0.000%   0.052%   0.000%   0.006%   0.021%   4.125%
   45    5.2  1.5 -1.5   0.028%   0.000%   0.000%   0.019%   0.052%   0.000%   0.023%   0.000%  23.895%   0.122%
   46    6.2  1.5 -1.5   0.004%   0.000%   0.000%   0.068%   0.003%   0.000%   0.011%   0.000%  34.629%   0.177%
   47    7.2  1.5 -1.5   0.000%   0.088%   0.019%   0.000%   0.000%   0.052%   0.000%   0.006%   0.000%   0.052%
   48    8.2  1.5 -1.5   0.086%   0.000%   0.000%   0.003%   0.068%   0.000%   0.012%   0.000%   5.687%   0.029%

   Nr   State  S   Sz      21       22       23       24       25       26       27       28       29       30

    1    1.2  0.5  0.5   0.000%   0.000%   0.000%   0.000%   0.000%   0.000%   0.000%   0.000%   0.000%   0.000%
    2    2.2  0.5  0.5   0.000%   0.000%   0.000%   0.000%   0.000%   0.000%   0.000%   0.000%   0.000%   0.000%
    3    3.2  0.5  0.5   0.000%   0.000%   0.000%   0.000%   0.000%   0.000%   0.000%   0.000%   0.000%   0.000%
    4    4.2  0.5  0.5   0.000%   0.000%   0.000%   0.000%   0.000%   0.000%   0.171%   0.256%   0.529%   0.000%
    5    5.2  0.5  0.5   0.000%   0.000%   0.000%   0.000%   0.000%   0.000%   0.009%   0.013%   0.760%   0.000%
    6    6.2  0.5  0.5   0.000%   0.000%   0.000%   0.000%   0.000%   0.000%   0.480%   0.320%   0.000%   0.189%
    7    7.2  0.5  0.5   0.000%   0.000%   0.000%   0.000%   0.000%   0.000%   0.294%   0.196%   0.000%   0.032%
    8    8.2  0.5  0.5   0.000%   0.000%   0.000%   0.000%   0.000%   0.000%   0.010%   0.016%   0.254%   0.000%
    9    1.2  0.5 -0.5   0.000%   0.000%   0.000%   0.000%   0.000%   0.000%   0.000%   0.000%   0.000%   0.000%
   10    2.2  0.5 -0.5   0.000%   0.000%   0.000%   0.000%   0.000%   0.000%   0.000%   0.000%   0.000%   0.000%
   11    3.2  0.5 -0.5   0.000%   0.000%   0.000%   0.000%   0.000%   0.000%   0.000%   0.000%   0.000%   0.000%
   12    4.2  0.5 -0.5   0.000%   0.000%   0.000%   0.000%   0.000%   0.000%   0.256%   0.171%   0.000%   0.529%
   13    5.2  0.5 -0.5   0.000%   0.000%   0.000%   0.000%   0.000%   0.000%   0.013%   0.009%   0.000%   0.760%
   14    6.2  0.5 -0.5   0.000%   0.000%   0.000%   0.000%   0.000%   0.000%   0.320%   0.480%   0.189%   0.000%
   15    7.2  0.5 -0.5   0.000%   0.000%   0.000%   0.000%   0.000%   0.000%   0.196%   0.294%   0.032%   0.000%
   16    8.2  0.5 -0.5   0.000%   0.000%   0.000%   0.000%   0.000%   0.000%   0.016%   0.010%   0.000%   0.254%
   17    1.2  1.5  1.5   0.000%   0.000%   0.000%   0.000%   0.000%   0.000%   0.004%   0.006%   0.207%   0.000%
   18    2.2  1.5  1.5   0.000%   0.000%   0.000%   0.000%   0.000%   0.000%   0.009%   0.013%   0.095%   0.000%
   19    3.2  1.5  1.5   0.000%   0.000%   0.000%   0.000%   0.000%   0.000%   0.089%   0.059%   0.000%   0.004%
   20    4.2  1.5  1.5  18.413%   0.351%  11.223%   0.043%   0.000%   0.105%   1.516%   2.279%   2.621%   0.000%
   21    5.2  1.5  1.5   0.416%  21.821%   0.020%   5.143%   0.012%   0.000%   0.133%   0.089%   0.000%   2.232%
   22    6.2  1.5  1.5   0.044%   2.325%   0.005%   1.215%   1.079%   0.000%  12.380%   8.239%   0.000%   0.061%
   23    7.2  1.5  1.5   2.501%   0.048%  18.026%   0.069%   0.000%  13.588%   0.115%   0.174%  37.210%   0.000%
   24    8.2  1.5  1.5   0.187%   9.795%   0.049%  12.748%  12.032%   0.000%  14.936%   9.941%   0.000%   3.345%
   25    1.2  1.5  0.5   0.000%   0.000%   0.000%   0.000%   0.000%   0.000%   0.083%   0.056%   0.000%   0.033%
   26    2.2  1.5  0.5   0.000%   0.000%   0.000%   0.000%   0.000%   0.000%   0.051%   0.034%   0.000%   0.006%
   27    3.2  1.5  0.5   0.000%   0.000%   0.000%   0.000%   0.000%   0.000%   0.003%   0.004%   0.065%   0.000%
   28    4.2  1.5  0.5   0.222%  11.597%   0.062%  16.307%   0.055%   0.000%   1.946%   1.296%   0.000%   5.463%
   29    5.2  1.5  0.5   4.056%   0.077%  24.216%   0.092%   0.000%   0.027%   3.721%   5.589%  26.821%   0.000%
   30    6.2  1.5  0.5  25.618%   0.489%   0.030%   0.000%   0.000%   1.853%   5.616%   8.440%  13.389%   0.000%
   31    7.2  1.5  0.5   0.032%   1.658%   0.024%   6.189%  36.707%   0.000%   0.118%   0.078%   0.000%   3.902%
   32    8.2  1.5  0.5   0.343%   0.007%   4.522%   0.017%   0.000%  34.542%   8.479%  12.741%   2.783%   0.000%
   33    1.2  1.5 -0.5   0.000%   0.000%   0.000%   0.000%   0.000%   0.000%   0.056%   0.083%   0.033%   0.000%
   34    2.2  1.5 -0.5   0.000%   0.000%   0.000%   0.000%   0.000%   0.000%   0.034%   0.051%   0.006%   0.000%
   35    3.2  1.5 -0.5   0.000%   0.000%   0.000%   0.000%   0.000%   0.000%   0.004%   0.003%   0.000%   0.065%
   36    4.2  1.5 -0.5  11.597%   0.222%  16.307%   0.062%   0.000%   0.055%   1.296%   1.946%   5.463%   0.000%
   37    5.2  1.5 -0.5   0.077%   4.056%   0.092%  24.216%   0.027%   0.000%   5.589%   3.721%   0.000%  26.821%
   38    6.2  1.5 -0.5   0.489%  25.618%   0.000%   0.030%   1.853%   0.000%   8.440%   5.616%   0.000%  13.389%
   39    7.2  1.5 -0.5   1.658%   0.032%   6.189%   0.024%   0.000%  36.707%   0.078%   0.118%   3.902%   0.000%
   40    8.2  1.5 -0.5   0.007%   0.343%   0.017%   4.522%  34.542%   0.000%  12.741%   8.479%   0.000%   2.783%
   41    1.2  1.5 -1.5   0.000%   0.000%   0.000%   0.000%   0.000%   0.000%   0.006%   0.004%   0.000%   0.207%
   42    2.2  1.5 -1.5   0.000%   0.000%   0.000%   0.000%   0.000%   0.000%   0.013%   0.009%   0.000%   0.095%
   43    3.2  1.5 -1.5   0.000%   0.000%   0.000%   0.000%   0.000%   0.000%   0.059%   0.089%   0.004%   0.000%
   44    4.2  1.5 -1.5   0.351%  18.413%   0.043%  11.223%   0.105%   0.000%   2.279%   1.516%   0.000%   2.621%
   45    5.2  1.5 -1.5  21.821%   0.416%   5.143%   0.020%   0.000%   0.012%   0.089%   0.133%   2.232%   0.000%
   46    6.2  1.5 -1.5   2.325%   0.044%   1.215%   0.005%   0.000%   1.079%   8.239%  12.380%   0.061%   0.000%
   47    7.2  1.5 -1.5   0.048%   2.501%   0.069%  18.026%  13.588%   0.000%   0.174%   0.115%   0.000%  37.210%
   48    8.2  1.5 -1.5   9.795%   0.187%  12.748%   0.049%   0.000%  12.032%   9.941%  14.936%   3.345%   0.000%

   Nr   State  S   Sz      31       32       33       34       35       36       37       38       39       40

    1    1.2  0.5  0.5   0.000%   0.000%   0.000%   0.000%   0.000%   0.000%   0.000%   0.000%   0.000%   0.000%
    2    2.2  0.5  0.5   0.000%   0.000%   0.000%   0.000%   0.000%   0.000%   0.000%   0.000%   0.000%   0.000%
    3    3.2  0.5  0.5   0.000%   0.000%   0.000%   0.000%   0.000%   0.000%   0.000%   0.000%   0.000%   0.000%
    4    4.2  0.5  0.5   0.102%   0.000%   0.193%   0.000%   0.127%   0.000%   0.000%   0.000%  25.183%  18.461%
    5    5.2  0.5  0.5   0.274%   0.000%   0.203%   0.000%   0.116%   0.000%   0.000%   0.000%  28.693%  21.026%
    6    6.2  0.5  0.5   0.000%   0.071%   0.000%   0.279%   0.000%   0.041%   0.000%   0.000%   0.055%   0.075%
    7    7.2  0.5  0.5   0.001%   0.535%   0.000%   0.008%   0.000%   0.311%   0.000%   0.000%   0.767%   1.047%
    8    8.2  0.5  0.5   0.774%   0.001%   0.117%   0.000%   0.202%   0.000%   0.000%   0.000%   1.664%   1.223%
    9    1.2  0.5 -0.5   0.000%   0.000%   0.000%   0.000%   0.000%   0.000%   0.000%   0.000%   0.000%   0.000%
   10    2.2  0.5 -0.5   0.000%   0.000%   0.000%   0.000%   0.000%   0.000%   0.000%   0.000%   0.000%   0.000%
   11    3.2  0.5 -0.5   0.000%   0.000%   0.000%   0.000%   0.000%   0.000%   0.000%   0.000%   0.000%   0.000%
   12    4.2  0.5 -0.5   0.000%   0.102%   0.000%   0.193%   0.000%   0.127%   0.000%   0.000%  18.461%  25.183%
   13    5.2  0.5 -0.5   0.000%   0.274%   0.000%   0.203%   0.000%   0.116%   0.000%   0.000%  21.026%  28.693%
   14    6.2  0.5 -0.5   0.071%   0.000%   0.279%   0.000%   0.041%   0.000%   0.000%   0.000%   0.075%   0.055%
   15    7.2  0.5 -0.5   0.535%   0.001%   0.008%   0.000%   0.311%   0.000%   0.000%   0.000%   1.047%   0.767%
   16    8.2  0.5 -0.5   0.001%   0.774%   0.000%   0.117%   0.000%   0.202%   0.000%   0.000%   1.223%   1.664%
   17    1.2  1.5  1.5   0.008%   0.000%   0.027%   0.000%   0.042%   0.000%   0.028%   0.000%   0.021%   0.015%
   18    2.2  1.5  1.5   0.109%   0.000%   0.027%   0.000%   0.042%   0.000%   0.028%   0.000%   0.027%   0.020%
   19    3.2  1.5  1.5   0.000%   0.013%   0.000%   0.125%   0.000%   0.082%   0.000%   0.000%   0.000%   0.000%
   20    4.2  1.5  1.5  33.375%   0.041%   7.829%   0.001%  11.947%   0.001%   4.994%   0.000%   0.285%   0.209%
   21    5.2  1.5  1.5   0.007%   5.927%   0.001%   7.824%   0.001%  11.943%   0.000%  19.976%   0.002%   0.003%
   22    6.2  1.5  1.5   0.012%   9.619%   0.000%   0.321%   0.001%  19.451%   0.000%   9.529%   0.005%   0.006%
   23    7.2  1.5  1.5   2.325%   0.003%   7.829%   0.001%  11.942%   0.001%   4.995%   0.000%   0.135%   0.099%
   24    8.2  1.5  1.5   0.000%   0.164%   0.002%  19.443%   0.000%   0.321%   0.000%  10.449%   0.000%   0.000%
   25    1.2  1.5  0.5   0.000%   0.012%   0.000%   0.000%   0.000%   0.161%   0.000%   0.009%   0.000%   0.000%
   26    2.2  1.5  0.5   0.000%   0.093%   0.000%   0.156%   0.000%   0.005%   0.000%   0.009%   0.001%   0.001%
   27    3.2  1.5  0.5   0.174%   0.000%   0.009%   0.000%   0.014%   0.000%   0.038%   0.000%   0.001%   0.001%
   28    4.2  1.5  0.5   0.013%  10.152%   0.001%  11.944%   0.001%   7.832%   0.000%  14.978%   0.004%   0.005%
   29    5.2  1.5  0.5  14.159%   0.017%  11.943%   0.001%   7.829%   0.001%   0.000%   0.000%   0.311%   0.228%
   30    6.2  1.5  0.5   0.939%   0.001%  19.450%   0.002%   0.321%   0.000%  10.443%   0.000%   0.086%   0.063%
   31    7.2  1.5  0.5   0.018%  14.751%   0.001%  11.941%   0.001%   7.824%   0.000%  14.988%   0.006%   0.008%
   32    8.2  1.5  0.5   6.300%   0.008%   0.321%   0.000%  19.441%   0.001%   9.534%   0.000%   0.151%   0.111%
   33    1.2  1.5 -0.5   0.012%   0.000%   0.000%   0.000%   0.161%   0.000%   0.009%   0.000%   0.000%   0.000%
   34    2.2  1.5 -0.5   0.093%   0.000%   0.156%   0.000%   0.005%   0.000%   0.009%   0.000%   0.001%   0.001%
   35    3.2  1.5 -0.5   0.000%   0.174%   0.000%   0.009%   0.000%   0.014%   0.000%   0.038%   0.001%   0.001%
   36    4.2  1.5 -0.5  10.152%   0.013%  11.944%   0.001%   7.832%   0.001%  14.978%   0.000%   0.005%   0.004%
   37    5.2  1.5 -0.5   0.017%  14.159%   0.001%  11.943%   0.001%   7.829%   0.000%   0.000%   0.228%   0.311%
   38    6.2  1.5 -0.5   0.001%   0.939%   0.002%  19.450%   0.000%   0.321%   0.000%  10.443%   0.063%   0.086%
   39    7.2  1.5 -0.5  14.751%   0.018%  11.941%   0.001%   7.824%   0.001%  14.988%   0.000%   0.008%   0.006%
   40    8.2  1.5 -0.5   0.008%   6.300%   0.000%   0.321%   0.001%  19.441%   0.000%   9.534%   0.111%   0.151%
   41    1.2  1.5 -1.5   0.000%   0.008%   0.000%   0.027%   0.000%   0.042%   0.000%   0.028%   0.015%   0.021%
   42    2.2  1.5 -1.5   0.000%   0.109%   0.000%   0.027%   0.000%   0.042%   0.000%   0.028%   0.020%   0.027%
   43    3.2  1.5 -1.5   0.013%   0.000%   0.125%   0.000%   0.082%   0.000%   0.000%   0.000%   0.000%   0.000%
   44    4.2  1.5 -1.5   0.041%  33.375%   0.001%   7.829%   0.001%  11.947%   0.000%   4.994%   0.209%   0.285%
   45    5.2  1.5 -1.5   5.927%   0.007%   7.824%   0.001%  11.943%   0.001%  19.976%   0.000%   0.003%   0.002%
   46    6.2  1.5 -1.5   9.619%   0.012%   0.321%   0.000%  19.451%   0.001%   9.529%   0.000%   0.006%   0.005%
   47    7.2  1.5 -1.5   0.003%   2.325%   0.001%   7.829%   0.001%  11.942%   0.000%   4.995%   0.099%   0.135%
   48    8.2  1.5 -1.5   0.164%   0.000%  19.443%   0.002%   0.321%   0.000%  10.449%   0.000%   0.000%   0.000%

   Nr   State  S   Sz      41       42       43       44       45       46       47       48

    1    1.2  0.5  0.5   0.000%   0.000%   0.000%   0.000%   0.000%   0.000%   0.000%   0.000%
    2    2.2  0.5  0.5   0.000%   0.000%   0.000%   0.000%   0.000%   0.000%   0.000%   0.000%
    3    3.2  0.5  0.5   0.000%   0.000%   0.000%   0.000%   0.000%   0.000%   0.000%   0.000%
    4    4.2  0.5  0.5   3.147%   0.049%  11.389%   0.692%   1.634%  35.873%   2.153%   0.012%
    5    5.2  0.5  0.5   1.572%   0.024%   7.178%   0.436%   1.607%  35.305%   2.739%   0.016%
    6    6.2  0.5  0.5   0.192%  12.427%   2.644%  43.497%   3.061%   0.139%   0.212%  36.291%
    7    7.2  0.5  0.5   0.390%  25.215%   1.805%  29.668%  18.005%   0.819%   0.121%  20.759%
    8    8.2  0.5  0.5  54.338%   0.840%   0.833%   0.051%   0.120%   2.635%  36.679%   0.214%
    9    1.2  0.5 -0.5   0.000%   0.000%   0.000%   0.000%   0.000%   0.000%   0.000%   0.000%
   10    2.2  0.5 -0.5   0.000%   0.000%   0.000%   0.000%   0.000%   0.000%   0.000%   0.000%
   11    3.2  0.5 -0.5   0.000%   0.000%   0.000%   0.000%   0.000%   0.000%   0.000%   0.000%
   12    4.2  0.5 -0.5   0.049%   3.147%   0.692%  11.389%  35.873%   1.634%   0.012%   2.153%
   13    5.2  0.5 -0.5   0.024%   1.572%   0.436%   7.178%  35.305%   1.607%   0.016%   2.739%
   14    6.2  0.5 -0.5  12.427%   0.192%  43.497%   2.644%   0.139%   3.061%  36.291%   0.212%
   15    7.2  0.5 -0.5  25.215%   0.390%  29.668%   1.805%   0.819%  18.005%  20.759%   0.121%
   16    8.2  0.5 -0.5   0.840%  54.338%   0.051%   0.833%   2.635%   0.120%   0.214%  36.679%
   17    1.2  1.5  1.5   0.011%   0.000%   0.000%   0.000%   0.000%   0.000%   0.003%   0.000%
   18    2.2  1.5  1.5   0.000%   0.000%   0.000%   0.000%   0.000%   0.000%   0.003%   0.000%
   19    3.2  1.5  1.5   0.000%   0.000%   0.002%   0.032%   0.009%   0.000%   0.000%   0.001%
   20    4.2  1.5  1.5   0.188%   0.003%   0.011%   0.001%   0.000%   0.008%   0.147%   0.001%
   21    5.2  1.5  1.5   0.002%   0.137%   0.000%   0.002%   0.008%   0.000%   0.001%   0.148%
   22    6.2  1.5  1.5   0.002%   0.113%   0.023%   0.382%   0.113%   0.005%   0.000%   0.039%
   23    7.2  1.5  1.5   0.459%   0.007%   0.002%   0.000%   0.000%   0.008%   0.148%   0.001%
   24    8.2  1.5  1.5   0.001%   0.036%   0.027%   0.437%   0.038%   0.002%   0.001%   0.118%
   25    1.2  1.5  0.5   0.000%   0.008%   0.002%   0.029%   0.005%   0.000%   0.000%   0.002%
   26    2.2  1.5  0.5   0.000%   0.017%   0.001%   0.020%   0.001%   0.000%   0.000%   0.006%
   27    3.2  1.5  0.5   0.049%   0.001%   0.001%   0.000%   0.000%   0.000%   0.001%   0.000%
   28    4.2  1.5  0.5   0.004%   0.265%   0.003%   0.049%   0.142%   0.006%   0.000%   0.009%
   29    5.2  1.5  0.5   0.004%   0.000%   0.320%   0.019%   0.006%   0.142%   0.009%   0.000%
   30    6.2  1.5  0.5   0.173%   0.003%   0.164%   0.010%   0.002%   0.038%   0.117%   0.001%
   31    7.2  1.5  0.5   0.005%   0.306%   0.000%   0.006%   0.143%   0.006%   0.000%   0.009%
   32    8.2  1.5  0.5   0.010%   0.000%   0.247%   0.015%   0.005%   0.113%   0.040%   0.000%
   33    1.2  1.5 -0.5   0.008%   0.000%   0.029%   0.002%   0.000%   0.005%   0.002%   0.000%
   34    2.2  1.5 -0.5   0.017%   0.000%   0.020%   0.001%   0.000%   0.001%   0.006%   0.000%
   35    3.2  1.5 -0.5   0.001%   0.049%   0.000%   0.001%   0.000%   0.000%   0.000%   0.001%
   36    4.2  1.5 -0.5   0.265%   0.004%   0.049%   0.003%   0.006%   0.142%   0.009%   0.000%
   37    5.2  1.5 -0.5   0.000%   0.004%   0.019%   0.320%   0.142%   0.006%   0.000%   0.009%
   38    6.2  1.5 -0.5   0.003%   0.173%   0.010%   0.164%   0.038%   0.002%   0.001%   0.117%
   39    7.2  1.5 -0.5   0.306%   0.005%   0.006%   0.000%   0.006%   0.143%   0.009%   0.000%
   40    8.2  1.5 -0.5   0.000%   0.010%   0.015%   0.247%   0.113%   0.005%   0.000%   0.040%
   41    1.2  1.5 -1.5   0.000%   0.011%   0.000%   0.000%   0.000%   0.000%   0.000%   0.003%
   42    2.2  1.5 -1.5   0.000%   0.000%   0.000%   0.000%   0.000%   0.000%   0.000%   0.003%
   43    3.2  1.5 -1.5   0.000%   0.000%   0.032%   0.002%   0.000%   0.009%   0.001%   0.000%
   44    4.2  1.5 -1.5   0.003%   0.188%   0.001%   0.011%   0.008%   0.000%   0.001%   0.147%
   45    5.2  1.5 -1.5   0.137%   0.002%   0.002%   0.000%   0.000%   0.008%   0.148%   0.001%
   46    6.2  1.5 -1.5   0.113%   0.002%   0.382%   0.023%   0.005%   0.113%   0.039%   0.000%
   47    7.2  1.5 -1.5   0.007%   0.459%   0.000%   0.002%   0.008%   0.000%   0.001%   0.148%
   48    8.2  1.5 -1.5   0.036%   0.001%   0.437%   0.027%   0.002%   0.038%   0.118%   0.001%


 Property matrices transformed in SO basis (not sym. adapted)
 ============================================================

 No matrix element <i|DMX|i> larger than 5E-7
 No matrix element <i|DMX|1> larger than 5E-7

 No matrix element <i|DMY|i> larger than 5E-7
 No matrix element <i|DMY|1> larger than 5E-7

 No matrix element <i|DMZ|i> larger than 5E-7
 No matrix element <i|DMZ|1> larger than 5E-7


 **********************************************************************************************************************************
 DATASETS  * FILE   NREC   LENGTH (MB)   RECORD NAMES
              1      24     1275.05       500      610      700      900      950      970     1000      129      960     1700   
                                          VAR    BASINP    GEOM    SYMINP    ZMAT    AOBASIS   BASIS     P2S    ABASIS    OPER   
                                         1101     1401     1411     1412     1650     1100     1400     1410     1200     1210   
                                          SR      EKINR    POTR     PVPR    MOLCAS      S      EKIN      POT      H0       H01  
                                         1080     1600     1380     1700(1)
                                         AOSYM     SMH     JKOP     OPER   

              2       7      450.38       700     1000      520     2100     2140     5201     5203   
                                         GEOM     BASIS   MCVARS     RHF     MCSCF    MRCI     MRCI   

 PROGRAMS   *        TOTAL        CI        CI        CI     MULTI   RHF-SCF       INT
 CPU TIMES  *      4493.41   3649.11    413.13    424.63      3.56      0.77      1.82
 REAL TIME  *      4638.79 SEC
 DISK USED  *       489.47 MB (local),       10.14 GB (total)
 SF USED    *         2.18 GB
 GA USED    *         0.00 MB       (max)       0.00 MB       (current)
 **********************************************************************************************************************************

 CI/aug-cc-pWCV5Z-DK energy=    -99.199189312099

              CI              CI           MULTI         RHF-SCF
    -99.19893541    -99.19419007    -99.01197708    -97.69680077
 **********************************************************************************************************************************
 Molpro calculation terminated with 1 warning(s)
