
 Working directory              : /wrk/irikura/molpro.4Q5E9Hlv93/
 Global scratch directory       : /wrk/irikura/molpro.4Q5E9Hlv93/
 Wavefunction directory         : /home/irikura/wfu/
 Main file repository           : /wrk/irikura/molpro.4Q5E9Hlv93/

 id        : nistki

 Nodes            nprocs
 pn112695.nist.gov   12
 GA implementation: MPI file
 GA implementation (serial work in mppx): MPI file

 Using customized tuning parameters: mindgm=1; mindgv=20; mindgc=4; mindgr=1; noblas=0; minvec=7
 default implementation of scratch files=sf  


 Variables initialized (1009), CPU time= 0.01 sec
 ***,F SO-CI
 memory,1000,M;
 
 gprint,orbitals,civector;
 
 symmetry,xyz
 geometry={F};
 
 basis=aug-cc-pwCVTZ-DK
 
 set,dkho=101
 
                                                                                 ! start with dication to get better 3s3p orbitals
 {rhf,so-sci;wf,nelec=7,sym=2,spin=3}
 
                                                                                 ! Active space (7/8) to get 3p orbs
 {multi
     closed,1,0;
     occ,3,6
     wf,nelec=9,sym=2,spin=1;state,8;
     wf,nelec=9,sym=2,spin=3;state,8;
     expec2,lxx,lyy,lzz;
 }
 table, energy, ll
 title, Energies and &lt;L**2&gt; values
 
 {ci;wf,sym=2,spin=1;state,8; save,5201.2}
 hlsdiag = energd4
 {ci;wf,sym=2,spin=3;state,8; save,5203.2}
 hlsdiag(9) = energd4
 
 table,hlsdiag
 
 {ci;hlsmat,ls,5201.2,5203.2;print,vls=0,hls=0}                                  !compute and diagonalize SO matrix
 Commands initialized (810), CPU time= 0.02 sec, 661 directives.
 Default parameters read. Elapsed time= 0.10 sec

 Checking input...
 Passed
1


                                         ***  PROGRAM SYSTEM MOLPRO  ***
                                       Copyright, TTI GmbH Stuttgart, 2015
                                    Version 2021.2 linked Jun  2 2021 00:13:23


 **********************************************************************************************************************************
 LABEL *   F SO-CI                                                                       
  64 bit mpp version                                                                     DATE: 29-Feb-24          TIME: 16:18:04  
 **********************************************************************************************************************************

 SHA1:             1987c3f1b0c3ae76932bc24993909f2d7ae6b1f1
 **********************************************************************************************************************************

 Memory per process:      1000 MW
 Total memory per node:  12000 MW

 GA preallocation disabled
 GA check disabled

 Variable memory set to 1000.0 MW


 ZSYMEL=XYZ

 SETTING BASIS          =    AUG-CC-PWCVTZ-DK
 SETTING DKHO           =       101.00000000                                  


 Recomputing integrals since basis changed


 Using spherical harmonics

 Library entry F      S aug-cc-pwCVTZ-DK     selected for orbital group  1
 Library entry F      P aug-cc-pwCVTZ-DK     selected for orbital group  1
 Library entry F      D aug-cc-pwCVTZ-DK     selected for orbital group  1
 Library entry F      F aug-cc-pwCVTZ-DK     selected for orbital group  1


 PROGRAM * SEWARD (Integral evaluation for generally contracted gaussian basis sets)     Author: Roland Lindh, 1990

 Geometry written to block  1 of record 700

 Orientation using atomic masses  
 Molecule type: Atom
 User-specified symmetry elements: XYZ
 Symmetry elements: XYZ
 Rotational constants:       0.0000000      0.0000000      0.0000000 GHz  (calculated with average atomic masses)

 Point group  Ci  



 ATOMIC COORDINATES

 NR  ATOM    CHARGE       X              Y              Z

   1  F       9.00    0.000000000    0.000000000    0.000000000

 NUCLEAR CHARGE:                    9
 NUMBER OF PRIMITIVE AOS:          81
 NUMBER OF SYMMETRY AOS:           71
 NUMBER OF CONTRACTIONS:           59   (   27Ag  +   32Au  )
 NUMBER OF INNER CORE ORBITALS:     0   (    0Ag  +    0Au  )
 NUMBER OF OUTER CORE ORBITALS:     1   (    1Ag  +    0Au  )
 NUMBER OF VALENCE ORBITALS:        4   (    1Ag  +    3Au  )


 NUCLEAR REPULSION ENERGY    0.00000000

 One-electron integrals computed with SEWARD

 eXact-2-Component (X2C) method activated

 Computing Douglas-Kroll / X2C integrals

 AO integral compression algorithm  1   Integral accuracy      1.0D-11

     3.408 MB (compressed) written to integral file ( 29.7%)

     Node minimum: 0.262 MB, node maximum: 0.524 MB


 NUMBER OF SORTED TWO-ELECTRON INTEGRALS:      67728.     BUFFER LENGTH:  32768
 NUMBER OF SEGMENTS:   1  SEGMENT LENGTH:      67728      RECORD LENGTH: 524288

 Memory used in sort:       0.62 MW

 SORT1 READ     1711873. AND WROTE       15143. INTEGRALS IN      1 RECORDS. CPU TIME:     0.03 SEC, REAL TIME:     0.02 SEC
 SORT2 READ      173263. AND WROTE      810039. INTEGRALS IN     12 RECORDS. CPU TIME:     0.00 SEC, REAL TIME:     0.01 SEC

 Node minimum:       67276.  Node maximum:       67728. integrals

 OPERATOR DM      FOR CENTER  0  COORDINATES:    0.000000    0.000000    0.000000

 EXTRA SYMMETRY OF AOS IN SYMMETRY 1:   1 1 1 1 1 1 1 2 3 4   5 6 2 3 4 5 6 2 3 4   5 6 2 3 4 5 6
 EXTRA SYMMETRY OF AOS IN SYMMETRY 2:   1 2 3 1 2 3 1 2 3 1   2 3 1 2 3 1 2 3 4 5   6 7 8 910 4 5 6 7 8   910

 Eigenvalues of metric

         1 0.531E-02 0.200E-01 0.649E-01 0.199E+00 0.237E+00 0.237E+00 0.237E+00 0.237E+00
         2 0.200E-01 0.200E-01 0.200E-01 0.204E+00 0.204E+00 0.204E+00 0.393E+00 0.393E+00


 **********************************************************************************************************************************
 DATASETS  * FILE   NREC   LENGTH (MB)   RECORD NAMES
              1      22       28.68       500      610      700      900      950      970     1000      129      960     1700   
                                          VAR    BASINP    GEOM    SYMINP    ZMAT    AOBASIS   BASIS     P2S    ABASIS    OPER   
                                         1101     1401     1411     1412     1650     1100     1400     1410     1200     1210   
                                          SR      EKINR    POTR     PVPR    MOLCAS      S      EKIN      POT      H0       H01  
                                         1080     1600   
                                         AOSYM     SMH  

 PROGRAMS   *        TOTAL       INT
 CPU TIMES  *         0.51      0.32
 REAL TIME  *         1.09 SEC
 DISK USED  *        28.94 MB (local),      396.66 MB (total)
 GA USED    *         0.00 MB       (max)       0.00 MB       (current)
 **********************************************************************************************************************************


 Program * Restricted Hartree-Fock

 Orbital guess generated from atomic densities. Full valence occupancy:    2   3

 Initial alpha occupancy:   2   3
 Initial beta  occupancy:   2   0
 
 SO-SCI SOLVER WITH NELEC=7 SYM=2 MS2=3 THRE=1.0D-08 THRG=3.2D-06
 
 Number of closed-shell orbitals:                 2   (   2   0)
 Number of singly occupied active orbitals:       3   (   0   3)
 Number of virtual orbitals:                     54   (  25  29)
 
 Number of orbital rotations:  137  ( 0 closed/active, 50 closed/virtual, 0 active/active, 87 active/virtual )
 Total number of variables:    138
 
 ITER.  MIC  NCI          ENERGY    ENERGY CHANGE          GRAD      ORB GRAD        CI RES  NQN        STEP      TIME
    1    1    0     -97.26662956     -97.26662956    1.22955574    1.22955574    0.00000000    0    0.37E+00      0.01
    2    1    0     -97.68029253      -0.41366298    0.22718929    0.22718929    0.00000000    0    0.51E-01      0.03
    3    1    0     -97.68751708      -0.00722455    0.02375093    0.02375093    0.00000000    0    0.34E-02      0.04
    4    1    0     -97.68758330      -0.00006622    0.00405769    0.00405769    0.00000000    1    0.65E-03      0.06
    5    1    0     -97.68758533      -0.00000203    0.00019107    0.00019107    0.00000000    2    0.33E-04      0.08
    6    1    0     -97.68758534      -0.00000001    0.00002611    0.00002611    0.00000000    3    0.49E-05      0.10

 CONVERGENCE REACHED!  Final gradient:     0.00000128 ( 0.13E-05)
                       Final energy:     -97.68758534
 

 Final alpha occupancy:   2   3
 Final beta  occupancy:   2   0

 !RHF STATE 1.2 Energy                -97.687585335127
  RHF One-electron energy            -126.288628141949
  RHF Two-electron energy              28.601042806823
  RHF Kinetic energy                   98.260101999277
  RHF Nuclear energy                    0.000000000000
  RHF Virial quotient                  -0.994173457461

 !RHF STATE 1.2 Dipole moment           0.00000000     0.00000000     0.00000000
 Dipole moment /Debye                   0.00000000     0.00000000     0.00000000

 ELECTRON ORBITALS
 =================

  Orbital  Occupation    Energy    Cen Mu Typ  Coefficients
    1.1     2.00000   -28.10815     1  1  s    0.99980
    2.1     2.00000    -2.92205     1  2  s    1.18147
    1.2     1.00000    -2.34205     1  1  px   1.24622    1  3  px  -0.29056
    2.2     1.00000    -2.34205     1  1  py   1.24534    1  3  py  -0.29035
    3.2     1.00000    -2.34205     1  1  pz   1.24989    1  3  pz  -0.29141


 HOMO      3.2    -2.342048 =     -63.7304eV
 LUMO      3.1    -0.464570 =     -12.6416eV
 LUMO-HOMO         1.877478 =      51.0888eV

 Orbitals saved in record  2100.2


 **********************************************************************************************************************************
 DATASETS  * FILE   NREC   LENGTH (MB)   RECORD NAMES
              1      23       28.83       500      610      700      900      950      970     1000      129      960     1700   
                                          VAR    BASINP    GEOM    SYMINP    ZMAT    AOBASIS   BASIS     P2S    ABASIS    OPER   
                                         1101     1401     1411     1412     1650     1100     1400     1410     1200     1210   
                                          SR      EKINR    POTR     PVPR    MOLCAS      S      EKIN      POT      H0       H01  
                                         1080     1600     1380   
                                         AOSYM     SMH     JKOP   

              2       4        2.66       700     1000      520     2100   
                                         GEOM     BASIS   MCVARS     RHF  

 PROGRAMS   *        TOTAL   RHF-SCF       INT
 CPU TIMES  *         0.64      0.12      0.32
 REAL TIME  *         1.25 SEC
 DISK USED  *        31.54 MB (local),      427.89 MB (total)
 SF USED    *         0.45 MB
 GA USED    *         0.00 MB       (max)       0.00 MB       (current)
 **********************************************************************************************************************************

 PROGRAM * MULTI (Direct Multiconfiguration SCF)       Authors: P.J. Knowles, H.-J. Werner (1984)
                                                                D.A. Kreplin, P.J. Knowles, H.-J. Werner (2019)

 Number of closed-shell orbitals:   1 (   1   0 )
 Number of active  orbitals:        8 (   2   6 )
 Number of external orbitals:      50 (  24  26 )

 State symmetry 1

 Number of active electrons:   7    Spin symmetry=Doublet   Space symmetry=2
 Number of states:             8
 Number of CSFs:            1204   (1980 determinants, 3920 intermediate states)

 State symmetry 2

 Number of active electrons:   7    Spin symmetry=Quartet   Space symmetry=2
 Number of states:             8
 Number of CSFs:             656   (776 determinants, 1568 intermediate states)

 Molecular orbitals read from record     2100.2  Type=RHF/CANONICAL (state 1.2)

 EXTRA SYMMETRY OF MOS IN SYMMETRY 1:   1 1 1 6 4 5 3 2 1 4   6 5 3 2 1 2 4 6 5 3   1 2 6 4 3 5 1
 *** IN SYMMETRY 2 ORBITAL  1 SYMMETRY CONTAMINATION OF 0.818D-01 HAS BEEN REMOVED
 *** IN SYMMETRY 2 ORBITAL  2 SYMMETRY CONTAMINATION OF 0.110D+00 HAS BEEN REMOVED
 *** IN SYMMETRY 2 ORBITAL  3 SYMMETRY CONTAMINATION OF 0.367D-01 HAS BEEN REMOVED
 *** IN SYMMETRY 2 ORBITAL  4 SYMMETRY CONTAMINATION OF 0.725D-01 HAS BEEN REMOVED
 *** IN SYMMETRY 2 ORBITAL  5 SYMMETRY CONTAMINATION OF 0.990D-02 HAS BEEN REMOVED
 *** IN SYMMETRY 2 ORBITAL  6 SYMMETRY CONTAMINATION OF 0.676D-01 HAS BEEN REMOVED
 EXTRA SYMMETRY OF MOS IN SYMMETRY 2:   1 2 3 3 1 2 3 1 2 6   5 4 9 710 8 3 2 1 6  10 8 5 4 9 7 3 1 2 2   3 1

 Wavefunction dump at record             2140.2

 Convergence thresholds  0.10E-04 (gradient)  0.10E-05 (energy)

 Weight factors for state symmetry  1:    0.06250   0.06250   0.06250   0.06250   0.06250   0.06250   0.06250   0.06250
 Weight factors for state symmetry  2:    0.06250   0.06250   0.06250   0.06250   0.06250   0.06250   0.06250   0.06250
 
 Number of orbital rotations:  230  ( 2 closed/active, 24 closed/virtual, 0 active/active, 204 active/virtual )
 Total number of variables:    22278
 
  Second-order MCSCF: L-BFGS accelerated
 
 ITER  MIC  NCI  NEG     ENERGY(VAR)    ENERGY(PROJ) ENERGY CHANGE       GRAD(0)  GRAD(ORB)   GRAD(CI)      STEP      TIME
   1    5   26    0    -98.97235826     -99.07067768   -0.09831942    0.62532871 0.00299780 0.00891309  0.76E+00      0.58
   2    7   28    0    -99.07380374     -99.07410478   -0.00030104    0.03250654 0.00000660 0.00001787  0.34E-01      1.26
   3    5   21    0    -99.07410552     -99.07410552   -0.00000000    0.00012222 0.00000487 0.00000223  0.12E-03      1.78
   4    2    7    0    -99.07410552     -99.07410552   -0.00000000    0.00000071 0.00000001 0.00000022  0.12E-05      2.02

 CONVERGENCE REACHED!  Final gradient:    0.00000007 ( 0.75E-07)
                       Final energy:    -99.07410552
 
 Results for state 1.2 Doublet
 =============================
 !MCSCF STATE 1.2 Doublet Energy               -99.477645893065
 Nuclear energy                                  0.00000000
 Kinetic energy                                100.73686841
 One electron energy                          -139.66050696
 Two electron energy                            40.18286107
 Virial ratio                                    1.98749988
 
 !MCSCF STATE 1.2 Doublet Dipole moment          0.00000000     0.00000000     0.00000000
 Dipole moment /Debye                            0.00000000     0.00000000     0.00000000
 
 Results for state 2.2 Doublet
 =============================
 !MCSCF STATE 2.2 Doublet Energy               -99.477645893065
 Nuclear energy                                  0.00000000
 Kinetic energy                                100.73686841
 One electron energy                          -139.66050696
 Two electron energy                            40.18286107
 Virial ratio                                    1.98749988
 
 !MCSCF STATE 2.2 Doublet Dipole moment          0.00000000     0.00000000     0.00000000
 Dipole moment /Debye                            0.00000000     0.00000000     0.00000000
 
 Results for state 3.2 Doublet
 =============================
 !MCSCF STATE 3.2 Doublet Energy               -99.477645893064
 Nuclear energy                                  0.00000000
 Kinetic energy                                100.73686841
 One electron energy                          -139.66050696
 Two electron energy                            40.18286107
 Virial ratio                                    1.98749988
 
 !MCSCF STATE 3.2 Doublet Dipole moment          0.00000000     0.00000000     0.00000000
 Dipole moment /Debye                            0.00000000     0.00000000     0.00000000
 
 Results for state 4.2 Doublet
 =============================
 !MCSCF STATE 4.2 Doublet Energy               -98.973318529395
 Nuclear energy                                  0.00000000
 Kinetic energy                                 99.58895819
 One electron energy                          -135.43756624
 Two electron energy                            36.46424771
 Virial ratio                                    1.99381819
 
 !MCSCF STATE 4.2 Doublet Dipole moment          0.00000000     0.00000000     0.00000000
 Dipole moment /Debye                            0.00000000     0.00000000     0.00000000
 
 Results for state 5.2 Doublet
 =============================
 !MCSCF STATE 5.2 Doublet Energy               -98.973318529395
 Nuclear energy                                  0.00000000
 Kinetic energy                                 99.58895819
 One electron energy                          -135.43756624
 Two electron energy                            36.46424771
 Virial ratio                                    1.99381819
 
 !MCSCF STATE 5.2 Doublet Dipole moment          0.00000000     0.00000000     0.00000000
 Dipole moment /Debye                            0.00000000     0.00000000     0.00000000
 
 Results for state 6.2 Doublet
 =============================
 !MCSCF STATE 6.2 Doublet Energy               -98.973318529352
 Nuclear energy                                  0.00000000
 Kinetic energy                                 99.58895819
 One electron energy                          -135.43756624
 Two electron energy                            36.46424771
 Virial ratio                                    1.99381819
 
 !MCSCF STATE 6.2 Doublet Dipole moment          0.00000000     0.00000000     0.00000000
 Dipole moment /Debye                            0.00000000     0.00000000     0.00000000
 
 Results for state 7.2 Doublet
 =============================
 !MCSCF STATE 7.2 Doublet Energy               -98.973318529352
 Nuclear energy                                  0.00000000
 Kinetic energy                                 99.58895819
 One electron energy                          -135.43756624
 Two electron energy                            36.46424771
 Virial ratio                                    1.99381819
 
 !MCSCF STATE 7.2 Doublet Dipole moment          0.00000000     0.00000000     0.00000000
 Dipole moment /Debye                            0.00000000     0.00000000     0.00000000
 
 Results for state 8.2 Doublet
 =============================
 !MCSCF STATE 8.2 Doublet Energy               -98.973318529352
 Nuclear energy                                  0.00000000
 Kinetic energy                                 99.58895819
 One electron energy                          -135.43756624
 Two electron energy                            36.46424771
 Virial ratio                                    1.99381819
 
 !MCSCF STATE 8.2 Doublet Dipole moment          0.00000000     0.00000000     0.00000000
 Dipole moment /Debye                            0.00000000     0.00000000     0.00000000
 
 Results for state 1.2 Quartet
 =============================
 !MCSCF STATE 1.2 Quartet Energy               -98.993172063584
 Nuclear energy                                  0.00000000
 Kinetic energy                                 99.50773403
 One electron energy                          -135.35507297
 Two electron energy                            36.36190091
 Virial ratio                                    1.99482892
 
 !MCSCF STATE 1.2 Quartet Dipole moment          0.00000000     0.00000000     0.00000000
 Dipole moment /Debye                            0.00000000     0.00000000     0.00000000
 
 Results for state 2.2 Quartet
 =============================
 !MCSCF STATE 2.2 Quartet Energy               -98.993172063584
 Nuclear energy                                  0.00000000
 Kinetic energy                                 99.50773403
 One electron energy                          -135.35507297
 Two electron energy                            36.36190091
 Virial ratio                                    1.99482892
 
 !MCSCF STATE 2.2 Quartet Dipole moment          0.00000000     0.00000000     0.00000000
 Dipole moment /Debye                            0.00000000     0.00000000     0.00000000
 
 Results for state 3.2 Quartet
 =============================
 !MCSCF STATE 3.2 Quartet Energy               -98.993172063584
 Nuclear energy                                  0.00000000
 Kinetic energy                                 99.50773403
 One electron energy                          -135.35507297
 Two electron energy                            36.36190091
 Virial ratio                                    1.99482892
 
 !MCSCF STATE 3.2 Quartet Dipole moment          0.00000000     0.00000000     0.00000000
 Dipole moment /Debye                            0.00000000     0.00000000     0.00000000
 
 Results for state 4.2 Quartet
 =============================
 !MCSCF STATE 4.2 Quartet Energy               -98.981328361970
 Nuclear energy                                  0.00000000
 Kinetic energy                                 99.53768838
 One electron energy                          -135.38667251
 Two electron energy                            36.40534414
 Virial ratio                                    1.99441056
 
 !MCSCF STATE 4.2 Quartet Dipole moment          0.00000000     0.00000000     0.00000000
 Dipole moment /Debye                            0.00000000     0.00000000     0.00000000
 
 Results for state 5.2 Quartet
 =============================
 !MCSCF STATE 5.2 Quartet Energy               -98.981328361970
 Nuclear energy                                  0.00000000
 Kinetic energy                                 99.53768838
 One electron energy                          -135.38667251
 Two electron energy                            36.40534414
 Virial ratio                                    1.99441056
 
 !MCSCF STATE 5.2 Quartet Dipole moment          0.00000000     0.00000000     0.00000000
 Dipole moment /Debye                            0.00000000     0.00000000     0.00000000
 
 Results for state 6.2 Quartet
 =============================
 !MCSCF STATE 6.2 Quartet Energy               -98.981328361970
 Nuclear energy                                  0.00000000
 Kinetic energy                                 99.53768838
 One electron energy                          -135.38667251
 Two electron energy                            36.40534414
 Virial ratio                                    1.99441056
 
 !MCSCF STATE 6.2 Quartet Dipole moment          0.00000000     0.00000000     0.00000000
 Dipole moment /Debye                            0.00000000     0.00000000     0.00000000
 
 Results for state 7.2 Quartet
 =============================
 !MCSCF STATE 7.2 Quartet Energy               -98.981328361923
 Nuclear energy                                  0.00000000
 Kinetic energy                                 99.53768838
 One electron energy                          -135.38667251
 Two electron energy                            36.40534414
 Virial ratio                                    1.99441056
 
 !MCSCF STATE 7.2 Quartet Dipole moment          0.00000000     0.00000000     0.00000000
 Dipole moment /Debye                            0.00000000     0.00000000     0.00000000
 
 Results for state 8.2 Quartet
 =============================
 !MCSCF STATE 8.2 Quartet Energy               -98.981328361923
 Nuclear energy                                  0.00000000
 Kinetic energy                                 99.53768838
 One electron energy                          -135.38667251
 Two electron energy                            36.40534414
 Virial ratio                                    1.99441056
 
 !MCSCF STATE 8.2 Quartet Dipole moment          0.00000000     0.00000000     0.00000000
 Dipole moment /Debye                            0.00000000     0.00000000     0.00000000
 
 State-averaged charge density matrix saved on record 2140.2 (density set 1)
 
 No non-zero expectation values
 
 Expectation values for two-electron operators:
 
 !MCSCF expec      <1.2 Doublet|LXLX|1.2 Doublet>     0.981156960385
 !MCSCF expec      <2.2 Doublet|LXLX|2.2 Doublet>     0.993000975504
 !MCSCF expec      <3.2 Doublet|LXLX|3.2 Doublet>     0.025842064111
 !MCSCF expec      <4.2 Doublet|LXLX|4.2 Doublet>     2.274061548569
 !MCSCF expec      <5.2 Doublet|LXLX|5.2 Doublet>     1.725938425522
 !MCSCF expec      <6.2 Doublet|LXLX|6.2 Doublet>     1.365545748336
 !MCSCF expec      <7.2 Doublet|LXLX|7.2 Doublet>     3.461988546795
 !MCSCF expec      <8.2 Doublet|LXLX|8.2 Doublet>     1.172465730777
 !MCSCF expec      <1.2 Quartet|LXLX|1.2 Quartet>     0.196613929334
 !MCSCF expec      <2.2 Quartet|LXLX|2.2 Quartet>     0.815288627946
 !MCSCF expec      <3.2 Quartet|LXLX|3.2 Quartet>     0.988097442721
 !MCSCF expec      <4.2 Quartet|LXLX|4.2 Quartet>     1.894036889268
 !MCSCF expec      <5.2 Quartet|LXLX|5.2 Quartet>     3.013431696623
 !MCSCF expec      <6.2 Quartet|LXLX|6.2 Quartet>     1.092531327174
 !MCSCF expec      <7.2 Quartet|LXLX|7.2 Quartet>     1.543194262750
 !MCSCF expec      <8.2 Quartet|LXLX|8.2 Quartet>     2.456805824185
 
 !MCSCF expec      <1.2 Doublet|LYLY|1.2 Doublet>     0.991829969672
 !MCSCF expec      <2.2 Doublet|LYLY|2.2 Doublet>     0.013300301214
 !MCSCF expec      <3.2 Doublet|LYLY|3.2 Doublet>     0.994869729115
 !MCSCF expec      <4.2 Doublet|LYLY|4.2 Doublet>     0.147257366778
 !MCSCF expec      <5.2 Doublet|LYLY|5.2 Doublet>     3.852741748382
 !MCSCF expec      <6.2 Doublet|LYLY|6.2 Doublet>     1.264595907157
 !MCSCF expec      <7.2 Doublet|LYLY|7.2 Doublet>     1.366695173690
 !MCSCF expec      <8.2 Doublet|LYLY|8.2 Doublet>     3.368709803993
 !MCSCF expec      <1.2 Quartet|LYLY|1.2 Quartet>     0.961533816618
 !MCSCF expec      <2.2 Quartet|LYLY|2.2 Quartet>     0.973234704279
 !MCSCF expec      <3.2 Quartet|LYLY|3.2 Quartet>     0.065231479104
 !MCSCF expec      <4.2 Quartet|LYLY|4.2 Quartet>     1.001664536165
 !MCSCF expec      <5.2 Quartet|LYLY|5.2 Quartet>     1.151250819492
 !MCSCF expec      <6.2 Quartet|LYLY|6.2 Quartet>     3.847084601202
 !MCSCF expec      <7.2 Quartet|LYLY|7.2 Quartet>     0.542135976724
 !MCSCF expec      <8.2 Quartet|LYLY|8.2 Quartet>     3.457864066416
 
 !MCSCF expec      <1.2 Doublet|LZLZ|1.2 Doublet>     0.027013069943
 !MCSCF expec      <2.2 Doublet|LZLZ|2.2 Doublet>     0.993698723283
 !MCSCF expec      <3.2 Doublet|LZLZ|3.2 Doublet>     0.979288206775
 !MCSCF expec      <4.2 Doublet|LZLZ|4.2 Doublet>     3.578681084653
 !MCSCF expec      <5.2 Doublet|LZLZ|5.2 Doublet>     0.421319826096
 !MCSCF expec      <6.2 Doublet|LZLZ|6.2 Doublet>     3.369858344506
 !MCSCF expec      <7.2 Doublet|LZLZ|7.2 Doublet>     1.171316279515
 !MCSCF expec      <8.2 Doublet|LZLZ|8.2 Doublet>     1.458824465230
 !MCSCF expec      <1.2 Quartet|LZLZ|1.2 Quartet>     0.841852254049
 !MCSCF expec      <2.2 Quartet|LZLZ|2.2 Quartet>     0.211476667776
 !MCSCF expec      <3.2 Quartet|LZLZ|3.2 Quartet>     0.946671078176
 !MCSCF expec      <4.2 Quartet|LZLZ|4.2 Quartet>     3.104298574567
 !MCSCF expec      <5.2 Quartet|LZLZ|5.2 Quartet>     1.835317483885
 !MCSCF expec      <6.2 Quartet|LZLZ|6.2 Quartet>     1.060384071624
 !MCSCF expec      <7.2 Quartet|LZLZ|7.2 Quartet>     3.914669760526
 !MCSCF expec      <8.2 Quartet|LZLZ|8.2 Quartet>     0.085330109399
 
 !MCSCF expec      <1.2 Doublet|L**2|1.2 Doublet>     2.000000000000
 !MCSCF expec      <2.2 Doublet|L**2|2.2 Doublet>     2.000000000000
 !MCSCF expec      <3.2 Doublet|L**2|3.2 Doublet>     2.000000000000
 !MCSCF expec      <4.2 Doublet|L**2|4.2 Doublet>     6.000000000000
 !MCSCF expec      <5.2 Doublet|L**2|5.2 Doublet>     6.000000000000
 !MCSCF expec      <6.2 Doublet|L**2|6.2 Doublet>     6.000000000000
 !MCSCF expec      <7.2 Doublet|L**2|7.2 Doublet>     6.000000000000
 !MCSCF expec      <8.2 Doublet|L**2|8.2 Doublet>     6.000000000000
 !MCSCF expec      <1.2 Quartet|L**2|1.2 Quartet>     2.000000000000
 !MCSCF expec      <2.2 Quartet|L**2|2.2 Quartet>     2.000000000000
 !MCSCF expec      <3.2 Quartet|L**2|3.2 Quartet>     2.000000000000
 !MCSCF expec      <4.2 Quartet|L**2|4.2 Quartet>     6.000000000000
 !MCSCF expec      <5.2 Quartet|L**2|5.2 Quartet>     6.000000000000
 !MCSCF expec      <6.2 Quartet|L**2|6.2 Quartet>     6.000000000000
 !MCSCF expec      <7.2 Quartet|L**2|7.2 Quartet>     6.000000000000
 !MCSCF expec      <8.2 Quartet|L**2|8.2 Quartet>     6.000000000000
 
  NATURAL ORBITALS (STATE AVERAGED)
  =================================

  Orbital  Occupation    Energy    Cen Mu Typ  Coefficients
    1.1     2.00000   -26.80914     1  1  s    0.99936
    2.1     1.99601    -1.86594     1  2  s    1.06918
    3.1     0.00421     1.27204     1  2  s   -1.05034    1  3  s   -0.66128    1  4  s    1.64800
    1.2     1.39108    -0.79991     1  1  py   1.07980
    2.2     1.39108    -0.79991     1  1  px   1.07980
    3.2     1.39108    -0.79991     1  1  pz   1.07980
    4.2     0.27551     0.13475     1  1  py  -0.33205    1  6  py   1.06487
    5.2     0.27551     0.13475     1  1  px  -0.33205    1  6  px   1.06487
    6.2     0.27551     0.13475     1  1  pz  -0.33205    1  6  pz   1.06487
 *** IN SYMMETRY  1 ORBITAL   5 SYMMETRY CONTAMINATION OF 0.418D+00 HAS BEEN REMOVED
 *** IN SYMMETRY  1 ORBITAL   6 SYMMETRY CONTAMINATION OF 0.109D+00 HAS BEEN REMOVED
 *** IN SYMMETRY  1 ORBITAL   7 SYMMETRY CONTAMINATION OF 0.182D-02 HAS BEEN REMOVED
 *** IN SYMMETRY  1 ORBITAL   8 SYMMETRY CONTAMINATION OF 0.414D+00 HAS BEEN REMOVED
 *** IN SYMMETRY  1 ORBITAL   9 SYMMETRY CONTAMINATION OF 0.364D-03 HAS BEEN REMOVED
 *** IN SYMMETRY  1 ORBITAL  10 SYMMETRY CONTAMINATION OF 0.545D+00 HAS BEEN REMOVED
 *** IN SYMMETRY  1 ORBITAL  11 SYMMETRY CONTAMINATION OF 0.572D+00 HAS BEEN REMOVED
 *** IN SYMMETRY  1 ORBITAL  12 SYMMETRY CONTAMINATION OF 0.347D-02 HAS BEEN REMOVED
 *** IN SYMMETRY  1 ORBITAL  13 SYMMETRY CONTAMINATION OF 0.203D+00 HAS BEEN REMOVED
 *** IN SYMMETRY  1 ORBITAL  14 SYMMETRY CONTAMINATION OF 0.697D-04 HAS BEEN REMOVED
 *** IN SYMMETRY  1 ORBITAL  16 SYMMETRY CONTAMINATION OF 0.145D-03 HAS BEEN REMOVED
 *** IN SYMMETRY  1 ORBITAL  17 SYMMETRY CONTAMINATION OF 0.125D-01 HAS BEEN REMOVED
 *** IN SYMMETRY  1 ORBITAL  18 SYMMETRY CONTAMINATION OF 0.105D+00 HAS BEEN REMOVED
 *** IN SYMMETRY  1 ORBITAL  20 SYMMETRY CONTAMINATION OF 0.106D+00 HAS BEEN REMOVED
 *** IN SYMMETRY  1 ORBITAL  22 SYMMETRY CONTAMINATION OF 0.220D-03 HAS BEEN REMOVED
 *** IN SYMMETRY  1 ORBITAL  23 SYMMETRY CONTAMINATION OF 0.231D+00 HAS BEEN REMOVED
 *** IN SYMMETRY  1 ORBITAL  25 SYMMETRY CONTAMINATION OF 0.231D+00 HAS BEEN REMOVED
 *** IN SYMMETRY  1 ORBITAL  26 SYMMETRY CONTAMINATION OF 0.959D-02 HAS BEEN REMOVED

 EXTRA SYMMETRY OF MOS IN SYMMETRY 1:   1 1 1 1 5 3 6 4 2 4   5 6 3 2 1 2 4 5 6 3   1 2 3 6 4 5 1
 *** IN SYMMETRY  2 ORBITAL   7 SYMMETRY CONTAMINATION OF 0.767D-04 HAS BEEN REMOVED
 *** IN SYMMETRY  2 ORBITAL   8 SYMMETRY CONTAMINATION OF 0.151D+00 HAS BEEN REMOVED
 *** IN SYMMETRY  2 ORBITAL   9 SYMMETRY CONTAMINATION OF 0.151D+00 HAS BEEN REMOVED
 *** IN SYMMETRY  2 ORBITAL  11 SYMMETRY CONTAMINATION OF 0.113D+00 HAS BEEN REMOVED
 *** IN SYMMETRY  2 ORBITAL  12 SYMMETRY CONTAMINATION OF 0.113D+00 HAS BEEN REMOVED
 *** IN SYMMETRY  2 ORBITAL  13 SYMMETRY CONTAMINATION OF 0.154D+00 HAS BEEN REMOVED
 *** IN SYMMETRY  2 ORBITAL  14 SYMMETRY CONTAMINATION OF 0.154D+00 HAS BEEN REMOVED
 *** IN SYMMETRY  2 ORBITAL  15 SYMMETRY CONTAMINATION OF 0.227D+00 HAS BEEN REMOVED
 *** IN SYMMETRY  2 ORBITAL  16 SYMMETRY CONTAMINATION OF 0.227D+00 HAS BEEN REMOVED
 *** IN SYMMETRY  2 ORBITAL  17 SYMMETRY CONTAMINATION OF 0.113D+00 HAS BEEN REMOVED
 *** IN SYMMETRY  2 ORBITAL  18 SYMMETRY CONTAMINATION OF 0.113D+00 HAS BEEN REMOVED
 *** IN SYMMETRY  2 ORBITAL  19 SYMMETRY CONTAMINATION OF 0.287D-03 HAS BEEN REMOVED
 *** IN SYMMETRY  2 ORBITAL  21 SYMMETRY CONTAMINATION OF 0.118D+00 HAS BEEN REMOVED
 *** IN SYMMETRY  2 ORBITAL  22 SYMMETRY CONTAMINATION OF 0.693D-01 HAS BEEN REMOVED
 *** IN SYMMETRY  2 ORBITAL  23 SYMMETRY CONTAMINATION OF 0.117D+00 HAS BEEN REMOVED
 *** IN SYMMETRY  2 ORBITAL  24 SYMMETRY CONTAMINATION OF 0.664D-01 HAS BEEN REMOVED
 *** IN SYMMETRY  2 ORBITAL  25 SYMMETRY CONTAMINATION OF 0.212D+00 HAS BEEN REMOVED
 *** IN SYMMETRY  2 ORBITAL  26 SYMMETRY CONTAMINATION OF 0.212D+00 HAS BEEN REMOVED
 *** IN SYMMETRY  2 ORBITAL  27 SYMMETRY CONTAMINATION OF 0.371D+00 HAS BEEN REMOVED
 *** IN SYMMETRY  2 ORBITAL  28 SYMMETRY CONTAMINATION OF 0.371D+00 HAS BEEN REMOVED
 *** IN SYMMETRY  2 ORBITAL  29 SYMMETRY CONTAMINATION OF 0.188D-04 HAS BEEN REMOVED
 *** IN SYMMETRY  2 ORBITAL  30 SYMMETRY CONTAMINATION OF 0.133D-03 HAS BEEN REMOVED
 *** IN SYMMETRY  2 ORBITAL  32 SYMMETRY CONTAMINATION OF 0.133D-03 HAS BEEN REMOVED
 EXTRA SYMMETRY OF MOS IN SYMMETRY 2:   2 1 3 2 1 3 3 2 1 6   4 5 9 7 810 1 2 3 6   4 510 8 7 9 1 2 3 2   3 1
 
 Natural orbital dump (state averaged) at molpro section 2140.2 (Orbital set 2)
 
 Reoptimze the CI vectors with natural orbitals 
 
 CI Coefficients of symmetry 2 (Doublet)
 =======================================

 State:              1               2               3               4               5               6               7
 20 2a2000     -0.28468830      0.21529364      0.90194112     -0.00000000     -0.00000000      0.00000000      0.00000000
 20 22a000      0.89021685      0.32753767      0.20280431     -0.00000000      0.00000000      0.00000000      0.00000000
 20 a22000     -0.25954400      0.88727914     -0.29371618     -0.00000000      0.00000000      0.00000000      0.00000000
 20 aa200b     -0.00000000     -0.00000000     -0.00000000     -0.13218370      0.65060419     -0.00008071      0.00012550
 20 2aab00     -0.00000000     -0.00000000     -0.00000000      0.62953157     -0.21082769     -0.00021943     -0.00003767
 20 aa20b0     -0.03131397      0.10705020     -0.03543685     -0.00006397      0.00003506     -0.20801129     -0.49944743
 20 a2a00b     -0.03131397      0.10705020     -0.03543685      0.00006397     -0.00003506      0.20801129      0.49944743
 20 a2a0b0     -0.00000000      0.00000000      0.00000000      0.49734787      0.43977650     -0.00030014      0.00008782
 20 aa2b00      0.03434763     -0.02597517     -0.10881916      0.00021721      0.00005506      0.41960672     -0.02188090
 20 2aa00b     -0.03434763      0.02597517      0.10881916      0.00021721      0.00005506      0.41960672     -0.02188091
 20 a2ab00     -0.10740463     -0.03951741     -0.02446833      0.00010171      0.00015984      0.33351193     -0.28397579
 20 2aa0b0     -0.10740463     -0.03951741     -0.02446833     -0.00010171     -0.00015984     -0.33351193      0.28397580
 20 ba200a     -0.00000000      0.00000000      0.00000000      0.05335302     -0.32789025      0.00004623     -0.00006332
 20 ab200a      0.00000000     -0.00000000     -0.00000000      0.07883068     -0.32271394      0.00003448     -0.00006218
 20 2aba00     -0.00000000      0.00000000     -0.00000000     -0.31889379      0.09308762      0.00011402      0.00001642
 20 2baa00      0.00000000      0.00000000      0.00000000     -0.31063778      0.11774007      0.00010541      0.00002125
 20 a2b0a0     -0.00000000     -0.00000000      0.00000000     -0.25728476     -0.21015018      0.00015164     -0.00004207
 20 ba20a0      0.00652980     -0.02232283      0.00738953      0.00003271     -0.00001793      0.10635711      0.25536973
 20 b2a00a      0.00652980     -0.02232283      0.00738953     -0.00003271      0.00001793     -0.10635711     -0.25536973
 20 a2b00a      0.02478417     -0.08472736      0.02804731     -0.00003126      0.00001713     -0.10165418     -0.24407771
 20 ab20a0      0.02478417     -0.08472736      0.02804731      0.00003126     -0.00001713      0.10165418      0.24407771
 20 b2a0a0      0.00000000      0.00000000     -0.00000000     -0.24006311     -0.22962632      0.00014850     -0.00004576
 20 ab2a00     -0.00716240      0.00541652      0.02269171     -0.00011106     -0.00002815     -0.21454681      0.01118780
 20 2ba00a      0.00716240     -0.00541652     -0.02269171     -0.00011106     -0.00002815     -0.21454681      0.01118781
 20 ba2a00     -0.02718523      0.02055865      0.08612745     -0.00010615     -0.00002691     -0.20505991      0.01069310
 20 2ab00a      0.02718523     -0.02055865     -0.08612745     -0.00010615     -0.00002691     -0.20505991      0.01069310
 20 a2ba00      0.02239674      0.00824044      0.00510230     -0.00005200     -0.00008173     -0.17052616      0.14519811
 20 2ab0a0      0.02239674      0.00824044      0.00510230      0.00005201      0.00008173      0.17052616     -0.14519811
 20 b2aa00      0.08500789      0.03127697      0.01936603     -0.00004971     -0.00007811     -0.16298577      0.13877769
 20 2ba0a0      0.08500789      0.03127697      0.01936603      0.00004971      0.00007811      0.16298577     -0.13877769
 20 2020a0     -0.01687402      0.01276087      0.05345978     -0.00000000      0.00000000      0.00000000      0.00000000
 20 22000a      0.05276486      0.01941378      0.01202060     -0.00000000      0.00000000      0.00000000      0.00000000
 20 022a00     -0.01538367      0.05259073     -0.01740912     -0.00000000     -0.00000000      0.00000000      0.00000000
 ab 2a2000     -0.01616498      0.01222466      0.05121342      0.00000000     -0.00000000     -0.00000000      0.00000000
 ab 22a000      0.05054770      0.01859803      0.01151550     -0.00000000      0.00000000     -0.00000000     -0.00000000
 ab a22000     -0.01473725      0.05038089     -0.01667760     -0.00000000      0.00000000      0.00000000     -0.00000000
 
 Energy:      -99.47764589    -99.47764589    -99.47764589    -98.97331853    -98.97331853    -98.97331853    -98.97331853

 State:              8
 20 2a2000     -0.00000000
 20 22a000     -0.00000000
 20 a22000     -0.00000000
 20 aa200b      0.00007517
 20 2aab00     -0.00008634
 20 aa20b0      0.19455678
 20 a2a00b     -0.19455676
 20 a2a0b0     -0.00001116
 20 aa2b00      0.39245401
 20 2aa00b      0.39245402
 20 a2ab00     -0.37241951
 20 2aa0b0      0.37241949
 20 ba200a     -0.00003648
 20 ab200a     -0.00003869
 20 2aba00      0.00004244
 20 2baa00      0.00004389
 20 a2b0a0      0.00000741
 20 ba20a0     -0.09947776
 20 b2a00a      0.09947775
 20 a2b00a      0.09507901
 20 ab20a0     -0.09507902
 20 b2a0a0      0.00000376
 20 ab2a00     -0.20066350
 20 2ba00a     -0.20066352
 20 ba2a00     -0.19179050
 20 2ab00a     -0.19179051
 20 a2ba00      0.19041978
 20 2ab0a0     -0.19041976
 20 b2aa00      0.18199973
 20 2ba0a0     -0.18199972
 20 2020a0     -0.00000001
 20 22000a     -0.00000001
 20 022a00     -0.00000001
 ab 2a2000      0.00000000
 ab 22a000      0.00000000
 ab a22000     -0.00000000
 
 Energy:      -98.97331853
 
 
 CI Coefficients of symmetry 2 (Quartet)
 =======================================

 State:              1               2               3               4               5               6               7
 20 aa200a     -0.00000000      0.00000000      0.00000000      0.00011301      0.00008824      0.00008265     -0.13021135
 20 2aaa00     -0.00000000      0.00000000      0.00000000     -0.00001940     -0.00014196     -0.00011092      0.76110683
 20 a2a00a      0.08478548     -0.17352155      0.67805413      0.34028071     -0.58884230     -0.18603128     -0.00012213
 20 aa20a0      0.08478548     -0.17352155      0.67805413     -0.34028071      0.58884230      0.18603128      0.00012213
 20 2aa0a0      0.66877734     -0.18133989     -0.13003237      0.24110466      0.32223196     -0.57893780     -0.00002325
 20 a2aa00      0.66877734     -0.18133989     -0.13003237     -0.24110466     -0.32223196      0.57893780      0.00002325
 20 aa2a00      0.20640736      0.65883368      0.14279317      0.56851688      0.21578963      0.35687147      0.00005695
 20 2aa00a     -0.20640736     -0.65883368     -0.14279317      0.56851688      0.21578963      0.35687147      0.00005695
 20 a2a0a0      0.00000000     -0.00000000     -0.00000000      0.00009361     -0.00005372     -0.00002826      0.63089547
 
 Energy:      -98.99317206    -98.99317206    -98.99317206    -98.98132836    -98.98132836    -98.98132836    -98.98132836

 State:              8
 20 aa200a      0.80367290
 20 2aaa00     -0.28907010
 20 a2a00a      0.00001615
 20 aa20a0     -0.00001615
 20 2aa0a0     -0.00001351
 20 a2aa00      0.00001351
 20 aa2a00     -0.00013111
 20 2aa00a     -0.00013111
 20 a2a0a0      0.51460280
 
 Energy:      -98.98132836
 


 **********************************************************************************************************************************
 DATASETS  * FILE   NREC   LENGTH (MB)   RECORD NAMES
              1      24       29.65       500      610      700      900      950      970     1000      129      960     1700   
                                          VAR    BASINP    GEOM    SYMINP    ZMAT    AOBASIS   BASIS     P2S    ABASIS    OPER   
                                         1101     1401     1411     1412     1650     1100     1400     1410     1200     1210   
                                          SR      EKINR    POTR     PVPR    MOLCAS      S      EKIN      POT      H0       H01  
                                         1080     1600     1380     1700(1)
                                         AOSYM     SMH     JKOP     OPER   

              2       5        5.10       700     1000      520     2100     2140   
                                         GEOM     BASIS   MCVARS     RHF     MCSCF   

 PROGRAMS   *        TOTAL     MULTI   RHF-SCF       INT
 CPU TIMES  *         3.76      3.11      0.12      0.32
 REAL TIME  *         4.68 SEC
 DISK USED  *        34.80 MB (local),      467.01 MB (total)
 SF USED    *         3.59 MB
 GA USED    *         0.00 MB       (max)       0.00 MB       (current)
 **********************************************************************************************************************************

 Energies and &lt;L**2&gt; values

        ENERGY      LL
    -99.47764589   2.0
    -99.47764589   2.0
    -99.47764589   2.0
    -98.97331853   6.0
    -98.97331853   6.0
    -98.97331853   6.0
    -98.97331853   6.0
    -98.97331853   6.0
    -98.99317206   2.0
    -98.99317206   2.0
    -98.99317206   2.0
    -98.98132836   6.0
    -98.98132836   6.0
    -98.98132836   6.0
    -98.98132836   6.0
    -98.98132836   6.0
                                                  


 PROGRAM * CI (Multireference internally contracted CI)     Authors: H.-J. Werner, P.J. Knowles, 1987


 Convergence thresholds:  THRVAR = 1.00D-08  THRDEN = 1.00D-06

 Number of optimized states: 8  Roots:    1   2   3   4   5   6   7   8
 Number of reference states: 8  Roots:    1   2   3   4   5   6   7   8

 Reference symmetry:                   2   Doublet 
 Number of electrons:                  9
 Maximum number of shells:             4
 Maximum number of spin couplings:    14

 Reference space:      554 conf     1204 CSFs
 N elec internal:     1016 conf     2352 CSFs
 N-1 el internal:      784 conf     2688 CSFs
 N-2 el internal:      504 conf     2520 CSFs

 Number of electrons in valence space:                      7
 Maximum number of open shell orbitals in reference space:  7
 Maximum number of open shell orbitals in internal spaces:  7


 Number of core orbitals:           1 (   1   0 )
 Number of active  orbitals:        8 (   2   6 )
 Number of external orbitals:      50 (  24  26 )

 Molecular orbitals read from record     2140.2  Type=MCSCF/NATURAL (state averaged)

 Valence orbitals related to previous ones by unitary transformation. Operators transformed.


 Number of p-space configurations:  12

 Reference wavefunction optimized for reference space (refopt=1)

 State     Reference Energy 
     1       -99.47764589
     2       -99.47764589
     3       -99.47764589
     4       -98.97331853
     5       -98.97331853
     6       -98.97331853
     7       -98.97331853
     8       -98.97331853

 ?WARNING: SMALL EIGENVALUE OF PAIR OVERLAP MATRIX:  0.1075D-06

 Number of blocks in overlap matrix:     9   Smallest eigenvalue:  0.11D-06
 Number of N-2 electron functions:     481
 Number of N-1 electron functions:    2688

 Number of internal configurations:                 1204
 Number of singly external configurations:         67232
 Number of doubly external configurations:        301547
 Total number of contracted configurations:       369983
 Total number of uncontracted configurations:    1637598

 Diagonal Coupling coefficients finished.               Storage: 1176179 words, CPU-Time:      0.50 seconds.
 Energy denominators for pairs finished in 1 passes.    Storage:   87207 words, CPU-time:      0.01 seconds.

  ITER. STATE  ROOT     SQ.NORM     CORR.ENERGY   TOTAL ENERGY   ENERGY CHANGE       DEN1      VAR(S)    VAR(P)      TIME
    1     1     1     1.00000000     0.00000000   -99.47764589    -0.00000000    -0.23651370  0.46D-01  0.11D-01     0.91
    1     2     2     1.00000000     0.00000000   -99.47764589    -0.00000000    -0.23613374  0.46D-01  0.11D-01     0.91
    1     3     3     1.00000000     0.00000000   -99.47764589    -0.00000000    -0.23643425  0.46D-01  0.11D-01     0.91
    1     4     4     1.00000000     0.00000000   -98.97331853     0.00000000    -0.17248379  0.19D-01  0.97D-02     0.91
    1     5     5     1.00000000     0.00000000   -98.97331853     0.00000000    -0.17110536  0.19D-01  0.93D-02     0.91
    1     6     6     1.00000000     0.00000000   -98.97331853    -0.00000000    -0.17107308  0.19D-01  0.94D-02     0.91
    1     7     7     1.00000000     0.00000000   -98.97331853    -0.00000000    -0.17124560  0.19D-01  0.94D-02     0.91
    1     8     8     1.00000000     0.00000000   -98.97331853     0.00000000    -0.17102910  0.19D-01  0.94D-02     0.91
    2     1     1     1.04913850    -0.22065795   -99.69830384    -0.22065795    -0.01293555  0.10D-02  0.11D-02     4.15
    2     2     2     1.04913923    -0.22063728   -99.69828317    -0.22063728    -0.01293587  0.10D-02  0.11D-02     4.15
    2     3     3     1.04914673    -0.22050321   -99.69814910    -0.22050321    -0.01300124  0.11D-02  0.11D-02     4.15
    2     4     4     1.02709675    -0.16711360   -99.14043213    -0.16711360    -0.00490533  0.30D-03  0.43D-03     4.15
    2     5     5     1.02708011    -0.16710203   -99.14042056    -0.16710203    -0.00491035  0.29D-03  0.43D-03     4.15
    2     6     6     1.02708695    -0.16709987   -99.14041840    -0.16709987    -0.00491876  0.30D-03  0.43D-03     4.15
    2     7     7     1.02733171    -0.16703308   -99.14035160    -0.16703308    -0.00500958  0.30D-03  0.45D-03     4.15
    2     8     8     1.02738147    -0.16702980   -99.14034833    -0.16702980    -0.00500332  0.31D-03  0.44D-03     4.15
    3     1     1     1.04999712    -0.23442198   -99.71206787    -0.01376403    -0.00087921  0.43D-04  0.82D-04     7.39
    3     2     2     1.04999338    -0.23441957   -99.71206546    -0.01378229    -0.00087909  0.43D-04  0.82D-04     7.39
    3     3     3     1.04998431    -0.23439521   -99.71204110    -0.01389200    -0.00089314  0.44D-04  0.83D-04     7.39
    3     4     4     1.02840771    -0.17236124   -99.14567977    -0.00524763    -0.00037545  0.25D-04  0.37D-04     7.39
    3     5     5     1.02840606    -0.17235921   -99.14567774    -0.00525718    -0.00037565  0.25D-04  0.37D-04     7.39
    3     6     6     1.02840549    -0.17235735   -99.14567588    -0.00525748    -0.00037857  0.25D-04  0.38D-04     7.39
    3     7     7     1.02843257    -0.17234921   -99.14566774    -0.00531613    -0.00037860  0.26D-04  0.38D-04     7.39
    3     8     8     1.02840642    -0.17234136   -99.14565989    -0.00531156    -0.00038969  0.26D-04  0.40D-04     7.39
    4     1     1     1.05152267    -0.23550646   -99.71315235    -0.00108448    -0.00008581  0.38D-05  0.79D-05    10.64
    4     2     2     1.05152403    -0.23550577   -99.71315167    -0.00108620    -0.00008619  0.38D-05  0.79D-05    10.64
    4     3     3     1.05151918    -0.23550202   -99.71314791    -0.00110681    -0.00008853  0.39D-05  0.81D-05    10.64
    4     4     4     1.02947817    -0.17284234   -99.14616087    -0.00048110    -0.00005900  0.46D-05  0.63D-05    10.64
    4     5     5     1.02947738    -0.17284213   -99.14616066    -0.00048292    -0.00005920  0.46D-05  0.63D-05    10.64
    4     6     6     1.02947934    -0.17284131   -99.14615984    -0.00048396    -0.00005930  0.46D-05  0.63D-05    10.64
    4     7     7     1.02948891    -0.17283760   -99.14615613    -0.00048840    -0.00006147  0.45D-05  0.66D-05    10.64
    4     8     8     1.02948210    -0.17283659   -99.14615511    -0.00049522    -0.00006325  0.45D-05  0.71D-05    10.64
    5     1     1     1.05209895    -0.23561012   -99.71325601    -0.00010366    -0.00000865  0.53D-06  0.75D-06    13.91
    5     2     2     1.05210028    -0.23561001   -99.71325590    -0.00010423    -0.00000872  0.54D-06  0.75D-06    13.91
    5     3     3     1.05210199    -0.23560947   -99.71325536    -0.00010746    -0.00000908  0.57D-06  0.78D-06    13.91
    5     4     4     1.02969208    -0.17292010   -99.14623863    -0.00007777    -0.00001198  0.84D-06  0.13D-05    13.91
    5     5     5     1.02969065    -0.17292003   -99.14623856    -0.00007790    -0.00001200  0.84D-06  0.13D-05    13.91
    5     6     6     1.02969237    -0.17291982   -99.14623835    -0.00007850    -0.00001214  0.85D-06  0.13D-05    13.91
    5     7     7     1.02969652    -0.17291902   -99.14623755    -0.00008142    -0.00001272  0.91D-06  0.13D-05    13.91
    5     8     8     1.02969696    -0.17291870   -99.14623723    -0.00008212    -0.00001293  0.85D-06  0.14D-05    13.91
    6     1     1     1.05203845    -0.23562049   -99.71326638    -0.00001036    -0.00000087  0.42D-07  0.81D-07    17.12
    6     2     2     1.05203821    -0.23562047   -99.71326637    -0.00001047    -0.00000088  0.43D-07  0.82D-07    17.12
    6     3     3     1.05203762    -0.23562039   -99.71326628    -0.00001092    -0.00000092  0.45D-07  0.86D-07    17.12
    6     4     4     1.02966516    -0.17293634   -99.14625487    -0.00001624    -0.00000280  0.18D-06  0.26D-06    17.12
    6     5     5     1.02966490    -0.17293630   -99.14625483    -0.00001627    -0.00000282  0.18D-06  0.26D-06    17.12
    6     6     6     1.02966486    -0.17293628   -99.14625481    -0.00001646    -0.00000284  0.18D-06  0.26D-06    17.12
    6     7     7     1.02965858    -0.17293618   -99.14625470    -0.00001715    -0.00000298  0.20D-06  0.27D-06    17.12
    6     8     8     1.02965748    -0.17293606   -99.14625459    -0.00001736    -0.00000304  0.21D-06  0.28D-06    17.12
    7     1     1     1.05205055    -0.23562149   -99.71326739    -0.00000101    -0.00000011  0.52D-08  0.10D-07    20.37
    7     2     2     1.05205064    -0.23562149   -99.71326739    -0.00000102    -0.00000011  0.51D-08  0.10D-07    20.37
    7     3     3     1.05205006    -0.23562146   -99.71326735    -0.00000107    -0.00000012  0.54D-08  0.11D-07    20.37
    7     4     4     1.02968558    -0.17293985   -99.14625838    -0.00000351    -0.00000070  0.70D-07  0.62D-07    20.37
    7     5     5     1.02968531    -0.17293982   -99.14625835    -0.00000352    -0.00000073  0.73D-07  0.68D-07    20.37
    7     6     6     1.02968655    -0.17293982   -99.14625835    -0.00000354    -0.00000066  0.66D-07  0.60D-07    20.37
    7     7     7     1.02968665    -0.17293980   -99.14625833    -0.00000362    -0.00000066  0.67D-07  0.60D-07    20.37
    7     8     8     1.02968636    -0.17293979   -99.14625832    -0.00000373    -0.00000067  0.66D-07  0.60D-07    20.37
    8     1     1     1.05205937    -0.23562162   -99.71326752    -0.00000013    -0.00000002  0.70D-09  0.14D-08    23.60
    8     2     2     1.05205933    -0.23562162   -99.71326752    -0.00000013    -0.00000002  0.68D-09  0.14D-08    23.60
    8     3     3     1.05205926    -0.23562160   -99.71326749    -0.00000014    -0.00000002  0.74D-09  0.15D-08    23.60
    8     4     4     1.02969197    -0.17294070   -99.14625922    -0.00000084    -0.00000020  0.13D-07  0.21D-07    23.60
    8     5     5     1.02969185    -0.17294068   -99.14625921    -0.00000086    -0.00000020  0.12D-07  0.23D-07    23.60
    8     6     6     1.02969227    -0.17294060   -99.14625913    -0.00000079    -0.00000018  0.13D-07  0.18D-07    23.60
    8     7     7     1.02969228    -0.17294059   -99.14625912    -0.00000079    -0.00000018  0.13D-07  0.18D-07    23.60
    8     8     8     1.02969212    -0.17294058   -99.14625911    -0.00000080    -0.00000018  0.13D-07  0.19D-07    23.60
    9     1     1     1.05205937    -0.23562162   -99.71326752    -0.00000000    -0.00000002  0.69D-09  0.14D-08    26.01
    9     2     2     1.05205934    -0.23562162   -99.71326752    -0.00000000    -0.00000002  0.68D-09  0.14D-08    26.01
    9     3     3     1.05205927    -0.23562160   -99.71326749    -0.00000000    -0.00000002  0.74D-09  0.15D-08    26.01
    9     4     4     1.02970236    -0.17294101   -99.14625954    -0.00000032    -0.00000003  0.17D-08  0.34D-08    26.01
    9     5     5     1.02970228    -0.17294100   -99.14625953    -0.00000032    -0.00000003  0.16D-08  0.36D-08    26.01
    9     6     6     1.02970189    -0.17294087   -99.14625940    -0.00000027    -0.00000003  0.17D-08  0.28D-08    26.01
    9     7     7     1.02969658    -0.17294083   -99.14625936    -0.00000024    -0.00000006  0.33D-08  0.63D-08    26.01
    9     8     8     1.02969654    -0.17294082   -99.14625934    -0.00000023    -0.00000006  0.33D-08  0.62D-08    26.01


 =====================================
 Analysis of CPU times by interactions
 =====================================

       I      S      P

 I   1.0%
 S   0.8%   1.8%
 P   3.5%  15.5%  53.8%

 Initialization:   2.8%
 Other:           20.8%

 Total CPU:       26.0 seconds
 =====================================



 gnormi=  0.95051670  gnorms=  0.03324076  gnormp=  0.01624254  gnorm=  1.00000000
 ecorri= -0.22396229  ecorrs= -0.00783172  ecorrp= -0.00382761  ecorr= -0.23562162

 gnormi=  0.95051673  gnorms=  0.03324072  gnormp=  0.01624256  gnorm=  1.00000000
 ecorri= -0.22396229  ecorrs= -0.00783174  ecorrp= -0.00382758  ecorr= -0.23562162

 gnormi=  0.95051679  gnorms=  0.03324080  gnormp=  0.01624241  gnorm=  1.00000000
 ecorri= -0.22396228  ecorrs= -0.00783165  ecorrp= -0.00382766  ecorr= -0.23562160

 gnormi=  0.97115442  gnorms=  0.01697194  gnormp=  0.01187364  gnorm=  1.00000000
 ecorri= -0.16795243  ecorrs= -0.00293079  ecorrp= -0.00205779  ecorr= -0.17294101

 gnormi=  0.97115450  gnorms=  0.01697205  gnormp=  0.01187345  gnorm=  1.00000000
 ecorri= -0.16795243  ecorrs= -0.00293050  ecorrp= -0.00205807  ecorr= -0.17294100

 gnormi=  0.97115486  gnorms=  0.01697165  gnormp=  0.01187348  gnorm=  1.00000000
 ecorri= -0.16795237  ecorrs= -0.00293105  ecorrp= -0.00205745  ecorr= -0.17294087

 gnormi=  0.97115988  gnorms=  0.01696968  gnormp=  0.01187045  gnorm=  1.00000000
 ecorri= -0.16795320  ecorrs= -0.00293459  ecorrp= -0.00205304  ecorr= -0.17294083

 gnormi=  0.97115991  gnorms=  0.01696968  gnormp=  0.01187041  gnorm=  1.00000000
 ecorri= -0.16795319  ecorrs= -0.00293460  ecorrp= -0.00205303  ecorr= -0.17294082

 Wavefunction saved on  5201.2

 Reference coefficients greater than 0.0500000
 =============================================
 202/2000          -0.0000365  -0.0000070   0.9616423  -0.0000000  -0.0000000   0.0000043   0.0000000   0.0000000
 2022/000           0.0000000   0.9616423   0.0000070  -0.0000000  -0.0000000  -0.0000000  -0.0000000   0.0000057
 20/22000           0.9616423  -0.0000000   0.0000365   0.0000000   0.0000000   0.0000000  -0.0000013  -0.0000000
 202//\00           0.0000000  -0.0000000  -0.0000000   0.8004535  -0.0305356   0.0000014   0.0000078  -0.0000014
 20//200\           0.0000000  -0.0000000  -0.0000000  -0.3740407   0.7085118   0.0000003  -0.0000036   0.0000065
 20/2/\00          -0.0000000  -0.0892757  -0.0000006   0.0000010  -0.0000059  -0.0000286  -0.0000000   0.6938740
 20//2\00           0.0000034   0.0000006  -0.0892758  -0.0000012  -0.0000010   0.6938639   0.0000052   0.0000286
 20/2/00\           0.0892758  -0.0000000   0.0000034  -0.0000067  -0.0000001  -0.0000052   0.6938443   0.0000000
 20//20\0           0.0892758  -0.0000000   0.0000034   0.0000067   0.0000001   0.0000052  -0.6938275  -0.0000000
 202//00\          -0.0000034  -0.0000006   0.0892758  -0.0000012  -0.0000010   0.6938049   0.0000052   0.0000286
 202//0\0          -0.0000000  -0.0892757  -0.0000006  -0.0000010   0.0000059   0.0000286   0.0000000  -0.6937977
 20/2/0\0          -0.0000000   0.0000000   0.0000000   0.4268270   0.6781541   0.0000017   0.0000042   0.0000051
 /\2/2000          -0.0000022  -0.0000004   0.0587354  -0.0000000  -0.0000000   0.0000009  -0.0000000   0.0000000
 /\/22000           0.0587353   0.0000000   0.0000022   0.0000000  -0.0000000  -0.0000000  -0.0000011  -0.0000000
 /\22/000          -0.0000000   0.0587353   0.0000004  -0.0000000  -0.0000000  -0.0000000  -0.0000000   0.0000020

 Coefficients of singly external configurations greater than 0.0500000
 =====================================================================

 20/2\000   8.2     0.0000000  -0.0879442  -0.0000006  -0.0000000   0.0000003   0.0000013   0.0000000  -0.0321630
 20/2\000   7.2     0.0879441   0.0000000   0.0000033   0.0000003   0.0000000   0.0000002  -0.0321589  -0.0000000
 202/\000   7.2    -0.0000033  -0.0000006   0.0879439   0.0000001   0.0000000  -0.0321451  -0.0000002  -0.0000013
 20/\2000   8.2     0.0000033   0.0000006  -0.0879439   0.0000001   0.0000000  -0.0321528  -0.0000002  -0.0000013
 20/\2000   9.2     0.0879435  -0.0000000   0.0000033  -0.0000003  -0.0000000  -0.0000002   0.0321579   0.0000000
 202/\000   9.2     0.0000000  -0.0879434  -0.0000006   0.0000000  -0.0000003  -0.0000013  -0.0000000   0.0321541

 Coefficients of fixed reference functions:
 ==========================================

 State      Coefficients
 1           0.000000   -0.000037    0.971361   -0.000000    0.000000    0.000000    0.000000    0.000000
 2           0.971361   -0.000007   -0.000000   -0.000000   -0.000000    0.000000    0.000000   -0.000000
 3           0.000007    0.971361    0.000037    0.000000    0.000000   -0.000000   -0.000000    0.000000
 4           0.000000    0.000000   -0.000000    0.492062    0.853801    0.000001   -0.000010   -0.000002
 5           0.000000    0.000000   -0.000000    0.853801   -0.492063   -0.000008   -0.000000   -0.000001
 6           0.000000   -0.000004   -0.000000    0.000002    0.000001   -0.000041   -0.000007    0.985445
 7           0.000000    0.000000    0.000001    0.000005    0.000008   -0.000000    0.985447    0.000007
 8          -0.000005   -0.000000   -0.000000    0.000006   -0.000005    0.985447    0.000000    0.000041

 Coefficients of rotated reference functions:
 ============================================

 State      Coefficients
 1           0.971361    0.000000   -0.000000   -0.000000   -0.000000    0.000000    0.000001   -0.000000
 2           0.000000    0.971361    0.000000    0.000000    0.000000    0.000000    0.000000   -0.000002
 3          -0.000000    0.000000    0.971361    0.000000    0.000000   -0.000002    0.000000   -0.000000
 4          -0.000000    0.000000    0.000000    0.985445   -0.000000   -0.000000   -0.000000    0.000000
 5          -0.000000    0.000000    0.000000   -0.000000    0.985445    0.000000    0.000000    0.000000
 6           0.000000    0.000000   -0.000002   -0.000000    0.000000    0.985445   -0.000000    0.000000
 7           0.000001    0.000000    0.000000   -0.000000    0.000000   -0.000000    0.985447   -0.000000
 8          -0.000000   -0.000002   -0.000000    0.000000    0.000000    0.000000   -0.000000    0.985447


 RESULTS FOR STATE 1.2
 =====================

 Maximum overlap with reference state  3

 Coefficient of reference function:   C(0) = 0.97136123 (fixed)   0.97494446 (relaxed)   0.97136123 (rotated)

 Energy contributions of configuration classes

 CLASS          SQ.NORM        ECORR1        ECORR2
 +++++++++++++++++++++++++++++++++++++++++++++++++++
 Internals    0.00739135    0.00000000   -0.12542463
 Singles      0.03522974   -0.10443371   -0.10636938
 Pairs        0.01721442   -0.00000000   -0.00382761
 Total        1.05983551   -0.10443371   -0.23562162
 +++++++++++++++++++++++++++++++++++++++++++++++++++


 Reference energy                     -99.47764589
 Nuclear energy                         0.00000000
 Kinetic energy                       100.31561666
 One electron energy                 -139.10545950
 Two electron energy                   39.39219198
 Virial quotient                       -0.99399546
 Correlation energy                    -0.23562162
 !MRCI STATE 1.2 Energy               -99.713267517586

 Properties without orbital relaxation:

 !MRCI STATE 1.2 Dipole moment          0.00000000     0.00000000     0.00000000
 Dipole moment /Debye                   0.00000000     0.00000000     0.00000000

 Cluster corrected energies           -99.72736606 (Davidson, fixed reference)
 Cluster corrected energies           -99.72553383 (Davidson, relaxed reference)
 Cluster corrected energies           -99.72736606 (Davidson, rotated reference)

 Cluster corrected energies           -99.72284989 (Pople, fixed reference)
 Cluster corrected energies           -99.72158429 (Pople, relaxed reference)
 Cluster corrected energies           -99.72284989 (Pople, rotated reference)



 RESULTS FOR STATE 2.2
 =====================

 Maximum overlap with reference state  1

 Coefficient of reference function:   C(0) = 0.97136124 (fixed)   0.97494447 (relaxed)   0.97136124 (rotated)

 Energy contributions of configuration classes

 CLASS          SQ.NORM        ECORR1        ECORR2
 +++++++++++++++++++++++++++++++++++++++++++++++++++
 Internals    0.00739137    0.00000000   -0.12542467
 Singles      0.03522969   -0.10443367   -0.10636937
 Pairs        0.01721444    0.00000000   -0.00382758
 Total        1.05983550   -0.10443367   -0.23562162
 +++++++++++++++++++++++++++++++++++++++++++++++++++


 Reference energy                     -99.47764589
 Nuclear energy                         0.00000000
 Kinetic energy                       100.31561882
 One electron energy                 -139.10546089
 Two electron energy                   39.39219337
 Virial quotient                       -0.99399544
 Correlation energy                    -0.23562162
 !MRCI STATE 2.2 Energy               -99.713267515206

 Properties without orbital relaxation:

 !MRCI STATE 2.2 Dipole moment          0.00000000     0.00000000     0.00000000
 Dipole moment /Debye                   0.00000000     0.00000000     0.00000000

 Cluster corrected energies           -99.72736605 (Davidson, fixed reference)
 Cluster corrected energies           -99.72553382 (Davidson, relaxed reference)
 Cluster corrected energies           -99.72736605 (Davidson, rotated reference)

 Cluster corrected energies           -99.72284989 (Pople, fixed reference)
 Cluster corrected energies           -99.72158428 (Pople, relaxed reference)
 Cluster corrected energies           -99.72284989 (Pople, rotated reference)



 RESULTS FOR STATE 3.2
 =====================

 Maximum overlap with reference state  2

 Coefficient of reference function:   C(0) = 0.97136127 (fixed)   0.97494451 (relaxed)   0.97136127 (rotated)

 Energy contributions of configuration classes

 CLASS          SQ.NORM        ECORR1        ECORR2
 +++++++++++++++++++++++++++++++++++++++++++++++++++
 Internals    0.00739137    0.00000000   -0.12542453
 Singles      0.03522978   -0.10443375   -0.10636936
 Pairs        0.01721428   -0.00000005   -0.00382771
 Total        1.05983543   -0.10443380   -0.23562160
 +++++++++++++++++++++++++++++++++++++++++++++++++++


 Reference energy                     -99.47764589
 Nuclear energy                         0.00000000
 Kinetic energy                       100.31561319
 One electron energy                 -139.10545893
 Two electron energy                   39.39219144
 Virial quotient                       -0.99399549
 Correlation energy                    -0.23562160
 !MRCI STATE 3.2 Energy               -99.713267491218

 Properties without orbital relaxation:

 !MRCI STATE 3.2 Dipole moment          0.00000000     0.00000000     0.00000000
 Dipole moment /Debye                   0.00000000     0.00000000     0.00000000

 Cluster corrected energies           -99.72736601 (Davidson, fixed reference)
 Cluster corrected energies           -99.72553378 (Davidson, relaxed reference)
 Cluster corrected energies           -99.72736601 (Davidson, rotated reference)

 Cluster corrected energies           -99.72284985 (Pople, fixed reference)
 Cluster corrected energies           -99.72158424 (Pople, relaxed reference)
 Cluster corrected energies           -99.72284985 (Pople, rotated reference)



 RESULTS FOR STATE 4.2
 =====================

 Maximum overlap with reference state  5

 Coefficient of reference function:   C(0) = 0.85380065 (fixed)   0.98547167 (relaxed)   0.98544458 (rotated)

 Energy contributions of configuration classes

 CLASS          SQ.NORM        ECORR1        ECORR2
 +++++++++++++++++++++++++++++++++++++++++++++++++++
 Internals    0.00005500   -0.00000000   -0.09662986
 Singles      0.01747701   -0.07344523   -0.07425353
 Pairs        0.01222699    0.00000018   -0.00205762
 Total        1.02975899   -0.07344505   -0.17294101
 +++++++++++++++++++++++++++++++++++++++++++++++++++


 Reference energy                     -98.97331853
 Nuclear energy                         0.00000000
 Kinetic energy                        99.89291160
 One electron energy                 -135.35040523
 Two electron energy                   36.20414568
 Virial quotient                       -0.99252548
 Correlation energy                    -0.17294101
 !MRCI STATE 4.2 Energy               -99.146259542383

 Properties without orbital relaxation:

 !MRCI STATE 4.2 Dipole moment          0.00000000     0.00000000     0.00000000
 Dipole moment /Debye                   0.00000000     0.00000000     0.00000000

 Cluster corrected energies           -99.15140609 (Davidson, fixed reference)
 Cluster corrected energies           -99.15139630 (Davidson, relaxed reference)
 Cluster corrected energies           -99.15140609 (Davidson, rotated reference)

 Cluster corrected energies           -99.14972426 (Pople, fixed reference)
 Cluster corrected energies           -99.14971760 (Pople, relaxed reference)
 Cluster corrected energies           -99.14972426 (Pople, rotated reference)



 RESULTS FOR STATE 5.2
 =====================

 Maximum overlap with reference state  4

 Coefficient of reference function:   C(0) = 0.85380069 (fixed)   0.98547171 (relaxed)   0.98544465 (rotated)

 Energy contributions of configuration classes

 CLASS          SQ.NORM        ECORR1        ECORR2
 +++++++++++++++++++++++++++++++++++++++++++++++++++
 Internals    0.00005493   -0.00000000   -0.09662943
 Singles      0.01747712   -0.07344563   -0.07425364
 Pairs        0.01222679    0.00000014   -0.00205794
 Total        1.02975884   -0.07344550   -0.17294100
 +++++++++++++++++++++++++++++++++++++++++++++++++++


 Reference energy                     -98.97331853
 Nuclear energy                         0.00000000
 Kinetic energy                        99.89290636
 One electron energy                 -135.35040536
 Two electron energy                   36.20414583
 Virial quotient                       -0.99252553
 Correlation energy                    -0.17294100
 !MRCI STATE 5.2 Energy               -99.146259533331

 Properties without orbital relaxation:

 !MRCI STATE 5.2 Dipole moment          0.00000000     0.00000000     0.00000000
 Dipole moment /Debye                   0.00000000     0.00000000     0.00000000

 Cluster corrected energies           -99.15140606 (Davidson, fixed reference)
 Cluster corrected energies           -99.15139628 (Davidson, relaxed reference)
 Cluster corrected energies           -99.15140606 (Davidson, rotated reference)

 Cluster corrected energies           -99.14972423 (Pople, fixed reference)
 Cluster corrected energies           -99.14971758 (Pople, relaxed reference)
 Cluster corrected energies           -99.14972423 (Pople, rotated reference)



 RESULTS FOR STATE 6.2
 =====================

 Maximum overlap with reference state  8

 Coefficient of reference function:   C(0) = 0.98544482 (fixed)   0.98547190 (relaxed)   0.98544483 (rotated)

 Energy contributions of configuration classes

 CLASS          SQ.NORM        ECORR1        ECORR2
 +++++++++++++++++++++++++++++++++++++++++++++++++++
 Internals    0.00005495   -0.00000000   -0.00000921
 Singles      0.01747670   -0.07344492   -0.07425353
 Pairs        0.01222682   -0.09949597   -0.09867814
 Total        1.02975847   -0.17294089   -0.17294087
 +++++++++++++++++++++++++++++++++++++++++++++++++++


 Reference energy                     -98.97331853
 Nuclear energy                         0.00000000
 Kinetic energy                        99.89291967
 One electron energy                 -135.35041788
 Two electron energy                   36.20415847
 Virial quotient                       -0.99252539
 Correlation energy                    -0.17294087
 !MRCI STATE 6.2 Energy               -99.146259404283

 Properties without orbital relaxation:

 !MRCI STATE 6.2 Dipole moment          0.00000000     0.00000000     0.00000000
 Dipole moment /Debye                   0.00000000     0.00000000     0.00000000

 Cluster corrected energies           -99.15140586 (Davidson, fixed reference)
 Cluster corrected energies           -99.15139608 (Davidson, relaxed reference)
 Cluster corrected energies           -99.15140586 (Davidson, rotated reference)

 Cluster corrected energies           -99.14972405 (Pople, fixed reference)
 Cluster corrected energies           -99.14971740 (Pople, relaxed reference)
 Cluster corrected energies           -99.14972405 (Pople, rotated reference)



 RESULTS FOR STATE 7.2
 =====================

 Coefficient of reference function:   C(0) = 0.98544744 (fixed)   0.98547444 (relaxed)   0.98544744 (rotated)

 Energy contributions of configuration classes

 CLASS          SQ.NORM        ECORR1        ECORR2
 +++++++++++++++++++++++++++++++++++++++++++++++++++
 Internals    0.00005480   -0.00000000   -0.09663296
 Singles      0.01747457   -0.07344148   -0.07425410
 Pairs        0.01222363   -0.00000074   -0.00205376
 Total        1.02975300   -0.07344223   -0.17294083
 +++++++++++++++++++++++++++++++++++++++++++++++++++


 Reference energy                     -98.97331853
 Nuclear energy                         0.00000000
 Kinetic energy                        99.89306856
 One electron energy                 -135.35042577
 Two electron energy                   36.20416641
 Virial quotient                       -0.99252391
 Correlation energy                    -0.17294083
 !MRCI STATE 7.2 Energy               -99.146259359782

 Properties without orbital relaxation:

 !MRCI STATE 7.2 Dipole moment          0.00000000     0.00000000     0.00000000
 Dipole moment /Debye                   0.00000000     0.00000000     0.00000000

 Cluster corrected energies           -99.15140487 (Davidson, fixed reference)
 Cluster corrected energies           -99.15139511 (Davidson, relaxed reference)
 Cluster corrected energies           -99.15140487 (Davidson, rotated reference)

 Cluster corrected energies           -99.14972337 (Pople, fixed reference)
 Cluster corrected energies           -99.14971673 (Pople, relaxed reference)
 Cluster corrected energies           -99.14972337 (Pople, rotated reference)



 RESULTS FOR STATE 8.2
 =====================

 Maximum overlap with reference state  6

 Coefficient of reference function:   C(0) = 0.98544745 (fixed)   0.98547446 (relaxed)   0.98544746 (rotated)

 Energy contributions of configuration classes

 CLASS          SQ.NORM        ECORR1        ECORR2
 +++++++++++++++++++++++++++++++++++++++++++++++++++
 Internals    0.00005480   -0.00000000   -0.09662971
 Singles      0.01747458   -0.07344146   -0.07425409
 Pairs        0.01222359   -0.00000410   -0.00205701
 Total        1.02975297   -0.07344556   -0.17294082
 +++++++++++++++++++++++++++++++++++++++++++++++++++


 Reference energy                     -98.97331853
 Nuclear energy                         0.00000000
 Kinetic energy                        99.89306876
 One electron energy                 -135.35042579
 Two electron energy                   36.20416645
 Virial quotient                       -0.99252391
 Correlation energy                    -0.17294082
 !MRCI STATE 8.2 Energy               -99.146259344608

 Properties without orbital relaxation:

 !MRCI STATE 8.2 Dipole moment          0.00000000     0.00000000     0.00000000
 Dipole moment /Debye                   0.00000000     0.00000000     0.00000000

 Cluster corrected energies           -99.15140485 (Davidson, fixed reference)
 Cluster corrected energies           -99.15139509 (Davidson, relaxed reference)
 Cluster corrected energies           -99.15140485 (Davidson, rotated reference)

 Cluster corrected energies           -99.14972335 (Pople, fixed reference)
 Cluster corrected energies           -99.14971671 (Pople, relaxed reference)
 Cluster corrected energies           -99.14972335 (Pople, rotated reference)



 **********************************************************************************************************************************
 DATASETS  * FILE   NREC   LENGTH (MB)   RECORD NAMES
              1      24       29.65       500      610      700      900      950      970     1000      129      960     1700   
                                          VAR    BASINP    GEOM    SYMINP    ZMAT    AOBASIS   BASIS     P2S    ABASIS    OPER   
                                         1101     1401     1411     1412     1650     1100     1400     1410     1200     1210   
                                          SR      EKINR    POTR     PVPR    MOLCAS      S      EKIN      POT      H0       H01  
                                         1080     1600     1380     1700(1)
                                         AOSYM     SMH     JKOP     OPER   

              2       6       29.10       700     1000      520     2100     2140     5201   
                                         GEOM     BASIS   MCVARS     RHF     MCSCF    MRCI   

 PROGRAMS   *        TOTAL        CI     MULTI   RHF-SCF       INT
 CPU TIMES  *        33.01     29.26      3.11      0.12      0.32
 REAL TIME  *        37.37 SEC
 DISK USED  *        58.79 MB (local),      754.97 MB (total)
 SF USED    *       244.68 MB
 GA USED    *         0.00 MB       (max)       0.00 MB       (current)
 **********************************************************************************************************************************
 SETTING HLSDIAG(1)     =       -99.72736606  AU                              
 SETTING HLSDIAG(2)     =       -99.72736605  AU                              
 SETTING HLSDIAG(3)     =       -99.72736601  AU                              
 SETTING HLSDIAG(4)     =       -99.15140609  AU                              
 SETTING HLSDIAG(5)     =       -99.15140606  AU                              
 SETTING HLSDIAG(6)     =       -99.15140586  AU                              
 SETTING HLSDIAG(7)     =       -99.15140487  AU                              
 SETTING HLSDIAG(8)     =       -99.15140485  AU                              


 PROGRAM * CI (Multireference internally contracted CI)     Authors: H.-J. Werner, P.J. Knowles, 1987


 Convergence thresholds:  THRVAR = 1.00D-08  THRDEN = 1.00D-06

 Number of optimized states: 8  Roots:    1   2   3   4   5   6   7   8
 Number of reference states: 8  Roots:    1   2   3   4   5   6   7   8

 Reference symmetry:                   2   Quartet 
 Number of electrons:                  9
 Maximum number of shells:             3
 Maximum number of spin couplings:    14

 Reference space:      344 conf      656 CSFs
 N elec internal:      736 conf     1344 CSFs
 N-1 el internal:      728 conf     1932 CSFs
 N-2 el internal:      492 conf     2060 CSFs

 Number of electrons in valence space:                      7
 Maximum number of open shell orbitals in reference space:  7
 Maximum number of open shell orbitals in internal spaces:  7


 Number of core orbitals:           1 (   1   0 )
 Number of active  orbitals:        8 (   2   6 )
 Number of external orbitals:      50 (  24  26 )

 Molecular orbitals read from record     2140.2  Type=MCSCF/NATURAL (state averaged)

 Coulomb and exchange operators available. No transformation done.


 Number of p-space configurations:   9

 Reference wavefunction optimized for reference space (refopt=1)

 State     Reference Energy 
     1       -98.99317206
     2       -98.99317206
     3       -98.99317206
     4       -98.98132836
     5       -98.98132836
     6       -98.98132836
     7       -98.98132836
     8       -98.98132836

 ?WARNING: SMALL EIGENVALUE OF PAIR OVERLAP MATRIX:  0.1188D-06

 ?WARNING: SMALL EIGENVALUE OF PAIR OVERLAP MATRIX:  0.1188D-06

 Number of blocks in overlap matrix:    13   Smallest eigenvalue:  0.12D-06
 Number of N-2 electron functions:     446
 Number of N-1 electron functions:    1932

 Number of internal configurations:                  656
 Number of singly external configurations:         48256
 Number of doubly external configurations:        278762
 Total number of contracted configurations:       327674
 Total number of uncontracted configurations:    1322822

 Diagonal Coupling coefficients finished.               Storage:  701463 words, CPU-Time:      0.19 seconds.
 Energy denominators for pairs finished in 1 passes.    Storage:   84847 words, CPU-time:      0.01 seconds.

  ITER. STATE  ROOT     SQ.NORM     CORR.ENERGY   TOTAL ENERGY   ENERGY CHANGE       DEN1      VAR(S)    VAR(P)      TIME
    1     1     1     1.00000000     0.00000000   -98.99317206     0.00000000    -0.16908581  0.19D-01  0.89D-02     0.43
    1     2     2     1.00000000     0.00000000   -98.99317206    -0.00000000    -0.16920085  0.19D-01  0.90D-02     0.43
    1     3     3     1.00000000     0.00000000   -98.99317206     0.00000000    -0.16920688  0.19D-01  0.89D-02     0.43
    1     4     4     1.00000000     0.00000000   -98.98132836     0.00000000    -0.16942207  0.19D-01  0.90D-02     0.43
    1     5     5     1.00000000     0.00000000   -98.98132836    -0.00000000    -0.16953447  0.19D-01  0.90D-02     0.43
    1     6     6     1.00000000     0.00000000   -98.98132836     0.00000000    -0.16956377  0.19D-01  0.90D-02     0.43
    1     7     7     1.00000000     0.00000000   -98.98132836     0.00000000    -0.17203506  0.19D-01  0.97D-02     0.43
    1     8     8     1.00000000     0.00000000   -98.98132836    -0.00000000    -0.16973791  0.19D-01  0.90D-02     0.43
    2     1     1     1.02646060    -0.16531904   -99.15849110    -0.16531904    -0.00523865  0.31D-03  0.44D-03     2.99
    2     2     2     1.02647295    -0.16531437   -99.15848644    -0.16531437    -0.00524531  0.31D-03  0.44D-03     2.99
    2     3     3     1.02647498    -0.16528162   -99.15845368    -0.16528162    -0.00526412  0.31D-03  0.44D-03     2.99
    2     4     4     1.02633395    -0.16586717   -99.14719553    -0.16586717    -0.00509829  0.28D-03  0.45D-03     2.99
    2     5     5     1.02643795    -0.16570667   -99.14703503    -0.16570667    -0.00519481  0.31D-03  0.44D-03     2.99
    2     6     6     1.02646751    -0.16557176   -99.14690012    -0.16557176    -0.00528274  0.32D-03  0.44D-03     2.99
    2     7     7     1.02648178    -0.16556142   -99.14688979    -0.16556142    -0.00529127  0.32D-03  0.44D-03     2.99
    2     8     8     1.02648742    -0.16554132   -99.14686968    -0.16554132    -0.00530407  0.32D-03  0.45D-03     2.99
    3     1     1     1.02769166    -0.17102386   -99.16419593    -0.00570483    -0.00041741  0.29D-04  0.38D-04     5.59
    3     2     2     1.02769306    -0.17102275   -99.16419481    -0.00570837    -0.00041824  0.29D-04  0.38D-04     5.59
[...]
   32    8.2  1.5  0.5   0.065%   0.000%   0.000%   0.023%   0.000%   0.013%   0.000%   0.000%   0.050%   0.000%
   33    1.2  1.5 -0.5   0.270%   0.000%   0.011%  44.521%   0.002%   2.048%   8.328%   0.000%   0.000%   0.000%
   34    2.2  1.5 -0.5  19.696%   0.000%   0.000%   0.215%   0.043%  46.326%   8.329%   0.000%   0.000%   0.000%
   35    3.2  1.5 -0.5   0.000%  24.579%   2.410%   0.001%   4.241%   0.004%   0.000%  33.314%   0.000%   0.000%
   36    4.2  1.5 -0.5   0.000%   0.015%   0.030%   0.000%   0.006%   0.000%   0.000%   0.009%   0.000%  44.926%
   37    5.2  1.5 -0.5   0.000%   0.001%   0.006%   0.000%   0.030%   0.000%   0.000%   0.003%   0.000%   3.053%
   38    6.2  1.5 -0.5   0.023%   0.000%   0.000%   0.023%   0.000%   0.013%   0.008%   0.000%  28.630%   0.000%
   39    7.2  1.5 -0.5   0.012%   0.000%   0.000%   0.023%   0.000%   0.013%   0.008%   0.000%   5.777%   0.000%
   40    8.2  1.5 -0.5   0.000%   0.065%   0.023%   0.000%   0.013%   0.000%   0.000%   0.000%   0.000%   0.050%
   41    1.2  1.5 -1.5   0.000%  11.318%   7.228%   0.002%  12.722%   0.012%   0.000%  24.986%   0.000%   0.000%
   42    2.2  1.5 -1.5   0.000%  38.770%   7.228%   0.002%  12.723%   0.012%   0.000%  24.986%   0.000%   0.000%
   43    3.2  1.5 -1.5   5.118%   0.000%   0.010%  38.193%   0.020%  21.669%   0.000%   0.000%   0.000%   0.000%
   44    4.2  1.5 -1.5   0.004%   0.000%   0.000%   0.006%   0.000%   0.030%   0.003%   0.000%   4.196%   0.000%
   45    5.2  1.5 -1.5   0.019%   0.000%   0.000%   0.030%   0.000%   0.006%   0.009%   0.000%   0.446%   0.000%
   46    6.2  1.5 -1.5   0.000%   0.000%   0.013%   0.000%   0.023%   0.000%   0.000%   0.003%   0.000%  11.197%
   47    7.2  1.5 -1.5   0.000%   0.081%   0.013%   0.000%   0.023%   0.000%   0.000%   0.003%   0.000%   1.279%
   48    8.2  1.5 -1.5   0.008%   0.000%   0.000%   0.013%   0.000%   0.023%   0.011%   0.000%   0.445%   0.000%

   Nr   State  S   Sz      21       22       23       24       25       26       27       28       29       30

    1    1.2  0.5  0.5   0.000%   0.000%   0.000%   0.000%   0.000%   0.000%   0.000%   0.000%   0.000%   0.000%
    2    2.2  0.5  0.5   0.000%   0.000%   0.000%   0.000%   0.000%   0.000%   0.000%   0.000%   0.000%   0.000%
    3    3.2  0.5  0.5   0.000%   0.000%   0.000%   0.000%   0.000%   0.000%   0.000%   0.000%   0.000%   0.000%
    4    4.2  0.5  0.5   0.000%   0.000%   0.000%   0.000%   0.000%   0.000%   0.000%   0.007%   0.366%   0.004%
    5    5.2  0.5  0.5   0.000%   0.000%   0.000%   0.000%   0.000%   0.000%   0.000%   0.004%   0.013%   0.000%
    6    6.2  0.5  0.5   0.000%   0.000%   0.000%   0.000%   0.000%   0.000%   0.235%   0.000%   0.001%   0.052%
    7    7.2  0.5  0.5   0.000%   0.000%   0.000%   0.000%   0.000%   0.000%   0.256%   0.000%   0.000%   0.000%
    8    8.2  0.5  0.5   0.000%   0.000%   0.000%   0.000%   0.000%   0.000%   0.000%   0.151%   0.215%   0.002%
    9    1.2  0.5 -0.5   0.000%   0.000%   0.000%   0.000%   0.000%   0.000%   0.000%   0.000%   0.000%   0.000%
   10    2.2  0.5 -0.5   0.000%   0.000%   0.000%   0.000%   0.000%   0.000%   0.000%   0.000%   0.000%   0.000%
   11    3.2  0.5 -0.5   0.000%   0.000%   0.000%   0.000%   0.000%   0.000%   0.000%   0.000%   0.000%   0.000%
   12    4.2  0.5 -0.5   0.000%   0.000%   0.000%   0.000%   0.000%   0.000%   0.007%   0.000%   0.004%   0.366%
   13    5.2  0.5 -0.5   0.000%   0.000%   0.000%   0.000%   0.000%   0.000%   0.004%   0.000%   0.000%   0.013%
   14    6.2  0.5 -0.5   0.000%   0.000%   0.000%   0.000%   0.000%   0.000%   0.000%   0.235%   0.052%   0.001%
   15    7.2  0.5 -0.5   0.000%   0.000%   0.000%   0.000%   0.000%   0.000%   0.000%   0.256%   0.000%   0.000%
   16    8.2  0.5 -0.5   0.000%   0.000%   0.000%   0.000%   0.000%   0.000%   0.151%   0.000%   0.002%   0.215%
   17    1.2  1.5  1.5   0.000%   0.000%   0.000%   0.000%   0.000%   0.000%   0.000%   0.006%   0.075%   0.001%
   18    2.2  1.5  1.5   0.000%   0.000%   0.000%   0.000%   0.000%   0.000%   0.000%   0.007%   0.111%   0.001%
   19    3.2  1.5  1.5   0.000%   0.000%   0.000%   0.000%   0.000%   0.000%   0.082%   0.000%   0.000%   0.005%
   20    4.2  1.5  1.5   0.178%  27.168%   0.004%   0.099%   2.228%   0.000%  37.264%   0.000%   0.012%   1.223%
   21    5.2  1.5  1.5   0.001%   0.127%   0.003%   0.062%  45.485%   0.004%  10.603%   0.000%   0.024%   2.485%
   22    6.2  1.5  1.5   1.615%   0.011%  20.510%   0.906%   0.000%   0.041%   0.000%   1.005%   8.816%   0.085%
   23    7.2  1.5  1.5   0.001%   0.000%  31.390%   1.386%   0.000%   0.227%   0.000%   1.590%  30.416%   0.295%
   24    8.2  1.5  1.5   0.052%   7.922%   0.036%   0.822%  42.148%   0.004%   0.007%   0.000%   0.007%   0.720%
   25    1.2  1.5  0.5   0.000%   0.000%   0.000%   0.000%   0.000%   0.000%   0.064%   0.000%   0.000%   0.000%
   26    2.2  1.5  0.5   0.000%   0.000%   0.000%   0.000%   0.000%   0.000%   0.059%   0.000%   0.000%   0.013%
   27    3.2  1.5  0.5   0.000%   0.000%   0.000%   0.000%   0.000%   0.000%   0.000%   0.000%   0.011%   0.000%
   28    4.2  1.5  0.5   0.569%   0.004%   0.547%   0.024%   0.000%   0.061%   0.000%   8.561%   6.489%   0.063%
   29    5.2  1.5  0.5   6.112%   0.040%  21.992%   0.972%   0.000%   1.706%   0.000%  26.481%   8.258%   0.080%
   30    6.2  1.5  0.5   0.088%  13.472%   0.026%   0.598%   2.895%   0.000%   1.058%   0.000%   0.022%   2.290%
   31    7.2  1.5  0.5   0.221%  33.740%   0.052%   1.180%   4.743%   0.000%   1.631%   0.000%   0.008%   0.878%
   32    8.2  1.5  0.5   8.621%   0.057%  18.571%   0.820%   0.000%   0.457%   0.000%  10.929%  36.602%   0.354%
   33    1.2  1.5 -0.5   0.000%   0.000%   0.000%   0.000%   0.000%   0.000%   0.000%   0.064%   0.000%   0.000%
   34    2.2  1.5 -0.5   0.000%   0.000%   0.000%   0.000%   0.000%   0.000%   0.000%   0.059%   0.013%   0.000%
   35    3.2  1.5 -0.5   0.000%   0.000%   0.000%   0.000%   0.000%   0.000%   0.000%   0.000%   0.000%   0.011%
   36    4.2  1.5 -0.5   0.004%   0.569%   0.024%   0.547%   0.061%   0.000%   8.561%   0.000%   0.063%   6.489%
   37    5.2  1.5 -0.5   0.040%   6.112%   0.972%  21.992%   1.706%   0.000%  26.481%   0.000%   0.080%   8.258%
   38    6.2  1.5 -0.5  13.472%   0.088%   0.598%   0.026%   0.000%   2.895%   0.000%   1.058%   2.290%   0.022%
   39    7.2  1.5 -0.5  33.740%   0.221%   1.180%   0.052%   0.000%   4.743%   0.000%   1.631%   0.878%   0.008%
   40    8.2  1.5 -0.5   0.057%   8.621%   0.820%  18.571%   0.457%   0.000%  10.929%   0.000%   0.354%  36.602%
   41    1.2  1.5 -1.5   0.000%   0.000%   0.000%   0.000%   0.000%   0.000%   0.006%   0.000%   0.001%   0.075%
   42    2.2  1.5 -1.5   0.000%   0.000%   0.000%   0.000%   0.000%   0.000%   0.007%   0.000%   0.001%   0.111%
   43    3.2  1.5 -1.5   0.000%   0.000%   0.000%   0.000%   0.000%   0.000%   0.000%   0.082%   0.005%   0.000%
   44    4.2  1.5 -1.5  27.168%   0.178%   0.099%   0.004%   0.000%   2.228%   0.000%  37.264%   1.223%   0.012%
   45    5.2  1.5 -1.5   0.127%   0.001%   0.062%   0.003%   0.004%  45.485%   0.000%  10.603%   2.485%   0.024%
   46    6.2  1.5 -1.5   0.011%   1.615%   0.906%  20.510%   0.041%   0.000%   1.005%   0.000%   0.085%   8.816%
   47    7.2  1.5 -1.5   0.000%   0.001%   1.386%  31.390%   0.227%   0.000%   1.590%   0.000%   0.295%  30.416%
   48    8.2  1.5 -1.5   7.922%   0.052%   0.822%   0.036%   0.004%  42.148%   0.000%   0.007%   0.720%   0.007%

   Nr   State  S   Sz      31       32       33       34       35       36       37       38       39       40

    1    1.2  0.5  0.5   0.000%   0.000%   0.000%   0.000%   0.000%   0.000%   0.000%   0.000%   0.000%   0.000%
    2    2.2  0.5  0.5   0.000%   0.000%   0.000%   0.000%   0.000%   0.000%   0.000%   0.000%   0.000%   0.000%
    3    3.2  0.5  0.5   0.000%   0.000%   0.000%   0.000%   0.000%   0.000%   0.000%   0.000%   0.000%   0.000%
    4    4.2  0.5  0.5   0.013%   0.002%   0.000%   0.124%   0.000%   0.009%   0.000%   0.000%   7.196%  25.277%
    5    5.2  0.5  0.5   0.330%   0.043%   0.000%   0.009%   0.000%   0.124%   0.000%   0.000%   4.626%  16.255%
    6    6.2  0.5  0.5   0.012%   0.092%   0.062%   0.000%   0.071%   0.000%   0.000%   0.000%  34.953%   9.949%
    7    7.2  0.5  0.5   0.016%   0.120%   0.011%   0.000%   0.122%   0.000%   0.000%   0.000%   0.832%   0.237%
    8    8.2  0.5  0.5   0.021%   0.003%   0.000%   0.127%   0.000%   0.007%   0.000%   0.000%   0.001%   0.004%
    9    1.2  0.5 -0.5   0.000%   0.000%   0.000%   0.000%   0.000%   0.000%   0.000%   0.000%   0.000%   0.000%
   10    2.2  0.5 -0.5   0.000%   0.000%   0.000%   0.000%   0.000%   0.000%   0.000%   0.000%   0.000%   0.000%
   11    3.2  0.5 -0.5   0.000%   0.000%   0.000%   0.000%   0.000%   0.000%   0.000%   0.000%   0.000%   0.000%
   12    4.2  0.5 -0.5   0.002%   0.013%   0.124%   0.000%   0.009%   0.000%   0.000%   0.000%  25.277%   7.196%
   13    5.2  0.5 -0.5   0.043%   0.330%   0.009%   0.000%   0.124%   0.000%   0.000%   0.000%  16.255%   4.626%
   14    6.2  0.5 -0.5   0.092%   0.012%   0.000%   0.062%   0.000%   0.071%   0.000%   0.000%   9.949%  34.953%
   15    7.2  0.5 -0.5   0.120%   0.016%   0.000%   0.011%   0.000%   0.122%   0.000%   0.000%   0.237%   0.832%
   16    8.2  0.5 -0.5   0.003%   0.021%   0.127%   0.000%   0.007%   0.000%   0.000%   0.000%   0.004%   0.001%
   17    1.2  1.5  1.5   0.034%   0.004%   0.000%   0.002%   0.000%   0.033%   0.014%   0.000%   0.000%   0.000%
   18    2.2  1.5  1.5   0.000%   0.000%   0.000%   0.002%   0.000%   0.033%   0.014%   0.000%   0.001%   0.003%
   19    3.2  1.5  1.5   0.000%   0.000%   0.100%   0.000%   0.005%   0.000%   0.000%   0.000%   0.002%   0.001%
   20    4.2  1.5  1.5   0.304%   2.323%  11.078%   0.001%   8.818%   0.002%   0.000%   4.634%   0.013%   0.004%
   21    5.2  1.5  1.5   0.607%   4.632%   8.819%   0.001%  11.074%   0.002%   0.000%  15.355%   0.071%   0.020%
   22    6.2  1.5  1.5  26.927%   3.527%   0.000%   1.000%   0.003%  18.901%   4.997%   0.000%   0.011%   0.040%
   23    7.2  1.5  1.5   7.127%   0.931%   0.000%   1.000%   0.004%  18.898%   4.997%   0.000%   0.033%   0.114%
   24    8.2  1.5  1.5   0.897%   6.868%   0.999%   0.000%  18.893%   0.004%   0.000%  19.989%   0.032%   0.009%
   25    1.2  1.5  0.5   0.004%   0.030%   0.053%   0.000%   0.028%   0.000%   0.000%   0.005%   0.000%   0.000%
   26    2.2  1.5  0.5   0.003%   0.023%   0.018%   0.000%   0.064%   0.000%   0.000%   0.005%   0.008%   0.002%
   27    3.2  1.5  0.5   0.105%   0.014%   0.000%   0.001%   0.000%   0.011%   0.019%   0.000%   0.003%   0.011%
   28    4.2  1.5  0.5   2.862%   0.375%   0.001%   8.819%   0.002%  11.074%  15.352%   0.000%   0.004%   0.015%
   29    5.2  1.5  0.5   5.579%   0.731%   0.001%  11.074%   0.002%   8.817%   4.636%   0.000%   0.006%   0.022%
   30    6.2  1.5  0.5   1.824%  13.924%  18.900%   0.002%   1.001%   0.000%   0.000%  14.990%   0.088%   0.025%
   31    7.2  1.5  0.5   1.921%  14.680%  18.895%   0.002%   0.999%   0.000%   0.000%  14.994%   0.049%   0.014%
   32    8.2  1.5  0.5   2.736%   0.356%   0.002%  18.895%   0.000%   1.000%   0.000%   0.000%   0.015%   0.054%
   33    1.2  1.5 -0.5   0.030%   0.004%   0.000%   0.053%   0.000%   0.028%   0.005%   0.000%   0.000%   0.000%
   34    2.2  1.5 -0.5   0.023%   0.003%   0.000%   0.018%   0.000%   0.064%   0.005%   0.000%   0.002%   0.008%
   35    3.2  1.5 -0.5   0.014%   0.105%   0.001%   0.000%   0.011%   0.000%   0.000%   0.019%   0.011%   0.003%
   36    4.2  1.5 -0.5   0.375%   2.862%   8.819%   0.001%  11.074%   0.002%   0.000%  15.352%   0.015%   0.004%
   37    5.2  1.5 -0.5   0.731%   5.579%  11.074%   0.001%   8.817%   0.002%   0.000%   4.636%   0.022%   0.006%
   38    6.2  1.5 -0.5  13.924%   1.824%   0.002%  18.900%   0.000%   1.001%  14.990%   0.000%   0.025%   0.088%
   39    7.2  1.5 -0.5  14.680%   1.921%   0.002%  18.895%   0.000%   0.999%  14.994%   0.000%   0.014%   0.049%
   40    8.2  1.5 -0.5   0.356%   2.736%  18.895%   0.002%   1.000%   0.000%   0.000%   0.000%   0.054%   0.015%
   41    1.2  1.5 -1.5   0.004%   0.034%   0.002%   0.000%   0.033%   0.000%   0.000%   0.014%   0.000%   0.000%
   42    2.2  1.5 -1.5   0.000%   0.000%   0.002%   0.000%   0.033%   0.000%   0.000%   0.014%   0.003%   0.001%
   43    3.2  1.5 -1.5   0.000%   0.000%   0.000%   0.100%   0.000%   0.005%   0.000%   0.000%   0.001%   0.002%
   44    4.2  1.5 -1.5   2.323%   0.304%   0.001%  11.078%   0.002%   8.818%   4.634%   0.000%   0.004%   0.013%
   45    5.2  1.5 -1.5   4.632%   0.607%   0.001%   8.819%   0.002%  11.074%  15.355%   0.000%   0.020%   0.071%
   46    6.2  1.5 -1.5   3.527%  26.927%   1.000%   0.000%  18.901%   0.003%   0.000%   4.997%   0.040%   0.011%
   47    7.2  1.5 -1.5   0.931%   7.127%   1.000%   0.000%  18.898%   0.004%   0.000%   4.997%   0.114%   0.033%
   48    8.2  1.5 -1.5   6.868%   0.897%   0.000%   0.999%   0.004%  18.893%  19.989%   0.000%   0.009%   0.032%

   Nr   State  S   Sz      41       42       43       44       45       46       47       48

    1    1.2  0.5  0.5   0.000%   0.000%   0.000%   0.000%   0.000%   0.000%   0.000%   0.000%
    2    2.2  0.5  0.5   0.000%   0.000%   0.000%   0.000%   0.000%   0.000%   0.000%   0.000%
    3    3.2  0.5  0.5   0.000%   0.000%   0.000%   0.000%   0.000%   0.000%   0.000%   0.000%
    4    4.2  0.5  0.5   0.169%  21.610%   0.019%   5.356%  19.456%   5.695%  14.492%   0.192%
    5    5.2  0.5  0.5   0.291%  37.260%   0.004%   1.204%  11.363%   3.327%  24.806%   0.328%
    6    6.2  0.5  0.5   0.760%   0.006%  13.885%   0.049%   8.952%  30.579%   0.004%   0.324%
    7    7.2  0.5  0.5  21.121%   0.165%  37.073%   0.131%   3.006%  10.266%   0.347%  26.285%
    8    8.2  0.5  0.5   0.139%  17.806%   0.147%  41.458%   5.430%   1.590%  32.457%   0.429%
    9    1.2  0.5 -0.5   0.000%   0.000%   0.000%   0.000%   0.000%   0.000%   0.000%   0.000%
   10    2.2  0.5 -0.5   0.000%   0.000%   0.000%   0.000%   0.000%   0.000%   0.000%   0.000%
   11    3.2  0.5 -0.5   0.000%   0.000%   0.000%   0.000%   0.000%   0.000%   0.000%   0.000%
   12    4.2  0.5 -0.5  21.610%   0.169%   5.356%   0.019%   5.695%  19.456%   0.192%  14.492%
   13    5.2  0.5 -0.5  37.260%   0.291%   1.204%   0.004%   3.327%  11.363%   0.328%  24.806%
   14    6.2  0.5 -0.5   0.006%   0.760%   0.049%  13.885%  30.579%   8.952%   0.324%   0.004%
   15    7.2  0.5 -0.5   0.165%  21.121%   0.131%  37.073%  10.266%   3.006%  26.285%   0.347%
   16    8.2  0.5 -0.5  17.806%   0.139%  41.458%   0.147%   1.590%   5.430%   0.429%  32.457%
   17    1.2  1.5  1.5   0.000%   0.013%   0.000%   0.004%   0.001%   0.000%   0.000%   0.000%
   18    2.2  1.5  1.5   0.000%   0.007%   0.000%   0.007%   0.001%   0.000%   0.000%   0.000%
   19    3.2  1.5  1.5   0.002%   0.000%   0.008%   0.000%   0.000%   0.000%   0.000%   0.003%
   20    4.2  1.5  1.5   0.070%   0.001%   0.178%   0.001%   0.000%   0.000%   0.001%   0.065%
   21    5.2  1.5  1.5   0.001%   0.000%   0.026%   0.000%   0.015%   0.051%   0.000%   0.000%
   22    6.2  1.5  1.5   0.002%   0.194%   0.000%   0.014%   0.042%   0.012%   0.011%   0.000%
   23    7.2  1.5  1.5   0.000%   0.021%   0.000%   0.092%   0.042%   0.012%   0.011%   0.000%
   24    8.2  1.5  1.5   0.010%   0.000%   0.004%   0.000%   0.012%   0.042%   0.000%   0.011%
   25    1.2  1.5  0.5   0.005%   0.000%   0.009%   0.000%   0.001%   0.002%   0.000%   0.000%
   26    2.2  1.5  0.5   0.000%   0.000%   0.003%   0.000%   0.000%   0.000%   0.000%   0.002%
   27    3.2  1.5  0.5   0.000%   0.003%   0.000%   0.001%   0.000%   0.000%   0.000%   0.000%
   28    4.2  1.5  0.5   0.000%   0.000%   0.000%   0.099%   0.051%   0.015%   0.000%   0.000%
   29    5.2  1.5  0.5   0.000%   0.040%   0.001%   0.197%   0.000%   0.000%   0.065%   0.001%
   30    6.2  1.5  0.5   0.010%   0.000%   0.000%   0.000%   0.003%   0.009%   0.001%   0.053%
   31    7.2  1.5  0.5   0.033%   0.000%   0.027%   0.000%   0.003%   0.009%   0.001%   0.054%
   32    8.2  1.5  0.5   0.002%   0.256%   0.000%   0.003%   0.009%   0.003%   0.054%   0.001%
   33    1.2  1.5 -0.5   0.000%   0.005%   0.000%   0.009%   0.002%   0.001%   0.000%   0.000%
   34    2.2  1.5 -0.5   0.000%   0.000%   0.000%   0.003%   0.000%   0.000%   0.002%   0.000%
   35    3.2  1.5 -0.5   0.003%   0.000%   0.001%   0.000%   0.000%   0.000%   0.000%   0.000%
   36    4.2  1.5 -0.5   0.000%   0.000%   0.099%   0.000%   0.015%   0.051%   0.000%   0.000%
   37    5.2  1.5 -0.5   0.040%   0.000%   0.197%   0.001%   0.000%   0.000%   0.001%   0.065%
   38    6.2  1.5 -0.5   0.000%   0.010%   0.000%   0.000%   0.009%   0.003%   0.053%   0.001%
   39    7.2  1.5 -0.5   0.000%   0.033%   0.000%   0.027%   0.009%   0.003%   0.054%   0.001%
   40    8.2  1.5 -0.5   0.256%   0.002%   0.003%   0.000%   0.003%   0.009%   0.001%   0.054%
   41    1.2  1.5 -1.5   0.013%   0.000%   0.004%   0.000%   0.000%   0.001%   0.000%   0.000%
   42    2.2  1.5 -1.5   0.007%   0.000%   0.007%   0.000%   0.000%   0.001%   0.000%   0.000%
   43    3.2  1.5 -1.5   0.000%   0.002%   0.000%   0.008%   0.000%   0.000%   0.003%   0.000%
   44    4.2  1.5 -1.5   0.001%   0.070%   0.001%   0.178%   0.000%   0.000%   0.065%   0.001%
   45    5.2  1.5 -1.5   0.000%   0.001%   0.000%   0.026%   0.051%   0.015%   0.000%   0.000%
   46    6.2  1.5 -1.5   0.194%   0.002%   0.014%   0.000%   0.012%   0.042%   0.000%   0.011%
   47    7.2  1.5 -1.5   0.021%   0.000%   0.092%   0.000%   0.012%   0.042%   0.000%   0.011%
   48    8.2  1.5 -1.5   0.000%   0.010%   0.000%   0.004%   0.042%   0.012%   0.011%   0.000%


 Property matrices transformed in SO basis (not sym. adapted)
 ============================================================

 No matrix element <i|DMX|i> larger than 1E-10
 No matrix element <i|DMX|1> larger than 1E-10

 No matrix element <i|DMY|i> larger than 1E-10
 No matrix element <i|DMY|1> larger than 1E-10

 No matrix element <i|DMZ|i> larger than 1E-10
 No matrix element <i|DMZ|1> larger than 1E-10


 **********************************************************************************************************************************
 DATASETS  * FILE   NREC   LENGTH (MB)   RECORD NAMES
              1      24       29.67       500      610      700      900      950      970     1000      129      960     1700   
                                          VAR    BASINP    GEOM    SYMINP    ZMAT    AOBASIS   BASIS     P2S    ABASIS    OPER   
                                         1101     1401     1411     1412     1650     1100     1400     1410     1200     1210   
                                          SR      EKINR    POTR     PVPR    MOLCAS      S      EKIN      POT      H0       H01  
                                         1080     1600     1380     1700(1)
                                         AOSYM     SMH     JKOP     OPER   

              2       7       54.13       700     1000      520     2100     2140     5201     5203   
                                         GEOM     BASIS   MCVARS     RHF     MCSCF    MRCI     MRCI   

 PROGRAMS   *        TOTAL        CI        CI        CI     MULTI   RHF-SCF       INT
 CPU TIMES  *       478.68    422.78     22.89     29.26      3.11      0.12      0.32
 REAL TIME  *       508.38 SEC
 DISK USED  *        83.84 MB (local),        1.14 GB (total)
 SF USED    *       244.68 MB
 GA USED    *         0.00 MB       (max)       0.00 MB       (current)
 **********************************************************************************************************************************

 CI/aug-cc-pWCVTZ-DK energy=    -99.150617280649

              CI              CI           MULTI         RHF-SCF
    -99.15336680    -99.14625934    -98.98132836    -97.68758534
 **********************************************************************************************************************************
 Molpro calculation terminated
