
 Working directory              : /wrk/irikura/molpro.2ZK5kXj0sK/
 Global scratch directory       : /wrk/irikura/molpro.2ZK5kXj0sK/
 Wavefunction directory         : /home/irikura/wfu/
 Main file repository           : /wrk/irikura/molpro.2ZK5kXj0sK/

 id        : nistki

 Nodes            nprocs
 pn125343.nist.gov   30
 GA implementation: MPI file
 GA implementation (serial work in mppx): MPI file

 Using customized tuning parameters: mindgm=1; mindgv=20; mindgc=4; mindgr=1; noblas=0; minvec=7
 default implementation of scratch files=sf  


 Variables initialized (1025), CPU time= 0.01 sec
 ***,Ar SO-CI
                                                                                 ! active space (8/8)
 memory,1000,M;
 
 gprint,orbitals,civector;
                                                                                 !gthresh,energy=1.d-10,coeff=1.d-8;
 
 symmetry,xyz
 geometry={Ar};
 
 basis=aug-cc-pwCV5Z-DK
 
 set,dkho=101
 
                                                                                 ! cation orbitals
 {rhf;wf,nelec=17,sym=1,spin=1}
 
 {multi,wmk_old
     closed,2,3
     occ,4,9
     wf,nelec=18,sym=1,spin=0;state,10;
     wf,nelec=18,sym=1,spin=2;state,9;
     expec2,lxx,lyy,lzz;
 }
 table, energy, ll
 title, Energies and &lt;L**2&gt; values
 
 core,1,0
 
 {ci;wf,sym=1,spin=0;state,10; save,5201.2}
 hlsdiag = energd4
 {ci;wf,sym=1,spin=2;state,9; save,5202.2}
 hlsdiag(11) = energd
 
 table,hlsdiag
 
 lsint
 {ci;hlsmat,ls,5201.2,5202.2;print,vls=0,hls=0}                                  !compute and diagonalize SO matrix
 Commands initialized (840), CPU time= 0.02 sec, 684 directives.
 Default parameters read. Elapsed time= 0.17 sec

 Checking input...
 Passed
1


                                         ***  PROGRAM SYSTEM MOLPRO  ***
                                       Copyright, TTI GmbH Stuttgart, 2015
                                    Version 2022.3 linked Wed Nov 30 06:40:34 2022


 **********************************************************************************************************************************
 LABEL *   Ar SO-                                                                        
  64 bit mpp version                                                                     DATE: 29-Feb-24          TIME: 10:29:31  
 **********************************************************************************************************************************

 SHA1:             e31ec9a5ea85254ab76f59d122cbdd51c71cf98b
 **********************************************************************************************************************************

 Memory per process:      1000 MW
 Total memory per node:  30000 MW

 GA preallocation disabled
 GA check disabled

 Variable memory set to 1000.0 MW


 ZSYMEL=XYZ

 SETTING BASIS          =    AUG-CC-PWCV5Z-DK
 SETTING DKHO           =       101.00000000                                  


 Recomputing integrals since basis changed


 Using spherical harmonics

 Library entry AR     S aug-cc-pwCV5Z-DK     selected for orbital group  1
 Library entry AR     P aug-cc-pwCV5Z-DK     selected for orbital group  1
 Library entry AR     D aug-cc-pwCV5Z-DK     selected for orbital group  1
 Library entry AR     F aug-cc-pwCV5Z-DK     selected for orbital group  1
 Library entry AR     G aug-cc-pwCV5Z-DK     selected for orbital group  1
 Library entry AR     H aug-cc-pwCV5Z-DK     selected for orbital group  1


 PROGRAM * SEWARD (Integral evaluation for generally contracted gaussian basis sets)     Author: Roland Lindh, 1990

 Geometry written to block  1 of record 700

 Orientation using atomic masses  
 Molecule type: Atom
 User-specified symmetry elements: XYZ
 Symmetry elements: XYZ
 Rotational constants:       0.0000000      0.0000000      0.0000000 GHz  (calculated with average atomic masses)

 Point group  Ci  



 ATOMIC COORDINATES

 NR  ATOM    CHARGE       X              Y              Z

   1  AR     18.00    0.000000000    0.000000000    0.000000000

 NUCLEAR CHARGE:                   18
 NUMBER OF PRIMITIVE AOS:         322
 NUMBER OF SYMMETRY AOS:          232
 NUMBER OF CONTRACTIONS:          217   (  102Ag  +  115Au  )
 NUMBER OF INNER CORE ORBITALS:     1   (    1Ag  +    0Au  )
 NUMBER OF OUTER CORE ORBITALS:     4   (    1Ag  +    3Au  )
 NUMBER OF VALENCE ORBITALS:        4   (    1Ag  +    3Au  )


 NUCLEAR REPULSION ENERGY    0.00000000

 One-electron integrals computed with SEWARD

 eXact-2-Component (X2C) method activated

 Computing Douglas-Kroll / X2C integrals

 AO integral compression algorithm  1   Integral accuracy      1.0D-11

     238.551 MB (compressed) written to integral file ( 12.3%)

     Node minimum: 3.932 MB, node maximum: 10.748 MB


 NUMBER OF SORTED TWO-ELECTRON INTEGRALS:    4703088.     BUFFER LENGTH:  32768
 NUMBER OF SEGMENTS:   1  SEGMENT LENGTH:    4703088      RECORD LENGTH: 524288

 Memory used in sort:       5.26 MW

 SORT1 READ   241177324. AND WROTE      826784. INTEGRALS IN      3 RECORDS. CPU TIME:     1.49 SEC, REAL TIME:     1.55 SEC
 SORT2 READ    24896428. AND WROTE   141159946. INTEGRALS IN    810 RECORDS. CPU TIME:     0.09 SEC, REAL TIME:     0.10 SEC

 Node minimum:     4695545.  Node maximum:     4720044. integrals

 OPERATOR DM      FOR CENTER  0  COORDINATES:    0.000000    0.000000    0.000000

 EXTRA SYMMETRY OF AOS IN SYMMETRY 1:   1 1 1 1 1 1 1 1 1 1   1 1 2 3 4 5 6 2 3 4   5 6 2 3 4 5 6 2 3 4   5 6 2 3 4 5 6 2 3 4
                                        5 6 2 3 4 5 6 2 3 4   5 6 2 3 4 5 6 7 8 9  101112131415 7 8 910  1112131415 7 8 91011
                                       12131415 7 8 9101112  131415 7 8 910111213  1415
 EXTRA SYMMETRY OF AOS IN SYMMETRY 2:   1 2 3 1 2 3 1 2 3 1   2 3 1 2 3 1 2 3 1 2   3 1 2 3 1 2 3 1 2 3   1 2 3 4 5 6 7 8 910
                                        4 5 6 7 8 910 4 5 6   7 8 910 4 5 6 7 8 9  10 4 5 6 7 8 910 4 5   6 7 8 910 4 5 6 7 8
                                        9101112131415161718  19202111121314151617  18192021111213141516  1718192021

 Eigenvalues of metric

         1 0.323E-05 0.394E-03 0.176E-02 0.176E-02 0.176E-02 0.176E-02 0.176E-02 0.203E-02
         2 0.431E-04 0.431E-04 0.431E-04 0.471E-02 0.471E-02 0.471E-02 0.158E-01 0.158E-01


 **********************************************************************************************************************************
 DATASETS  * FILE   NREC   LENGTH (MB)   RECORD NAMES
              1      22       30.14       500      610      700      900      950      970     1000      129      960     1700   
                                          VAR    BASINP    GEOM    SYMINP    ZMAT    AOBASIS   BASIS     P2S    ABASIS    OPER   
                                         1101     1401     1411     1412     1650     1100     1400     1410     1200     1210   
                                          SR      EKINR    POTR     PVPR    MOLCAS      S      EKIN      POT      H0       H01  
                                         1080     1600   
                                         AOSYM     SMH  

 PROGRAMS   *        TOTAL       INT
 CPU TIMES  *         3.77      3.42
 REAL TIME  *         4.65 SEC
 DISK USED  *        30.46 MB (local),        1.38 GB (total)
 GA USED    *         0.00 MB       (max)       0.00 MB       (current)
 **********************************************************************************************************************************


 Program * Restricted Hartree-Fock

 Orbital guess generated from atomic densities. Full valence occupancy:    3   6

 Initial alpha occupancy:   3   6
 Initial beta  occupancy:   2   6

 NELEC=   17   SYM=1   MS2= 1   THRE=1.0D-08   THRD=3.2D-06   THRG=3.2D-06  HFMA2=F  DIIS_START=2   DIIS_MAX=10   DIIS_INCORE=F

 Level shifts:    0.00 (CLOSED)    0.00 (OPEN)    0.30 (GAP_MIN)

 ITER           ETOT              DE          GRAD        DDIFF     DIIS  NEXP   TIME(IT)  TIME(TOT)  DIAG
   1     -371.02114074    -371.02114074     0.00D+00     0.21D+00     0     0       0.03      0.06    start
   2     -515.85717557    -144.83603482     0.58D+00     0.19D+00     1     0       0.03      0.09    diag2
   3     -526.04932286     -10.19214730     0.32D+00     0.45D-01     2     0       0.04      0.13    diag2
   4     -527.36202073      -1.31269787     0.46D-01     0.34D-01     3     0       0.03      0.16    diag2
   5     -527.39861897      -0.03659824     0.76D-02     0.37D-02     4     0       0.04      0.20    diag2
   6     -527.39965985      -0.00104089     0.15D-02     0.52D-03     5     0       0.04      0.24    diag2
   7     -527.39968776      -0.00002791     0.14D-03     0.12D-03     6     0       0.03      0.27    diag2
   8     -527.39968833      -0.00000056     0.21D-04     0.12D-04     7     0       0.04      0.31    fixocc
   9     -527.39968833      -0.00000000     0.16D-05     0.93D-06     8     0       0.03      0.34    diag2
  10     -527.39968833      -0.00000000     0.14D-06     0.68D-07     0     0       0.03      0.37    diag/orth

 Final alpha occupancy:   3   6
 Final beta  occupancy:   2   6

 !RHF STATE 1.1 Energy               -527.399688330147
  RHF One-electron energy            -720.561833431158
  RHF Two-electron energy             193.162145101011
  RHF Kinetic energy                  538.251119107560
  RHF Nuclear energy                    0.000000000000
  RHF Virial quotient                  -0.979839464532

 !RHF STATE 1.1 Dipole moment           0.00000000     0.00000000     0.00000000
 Dipole moment /Debye                   0.00000000     0.00000000     0.00000000

 ELECTRON ORBITALS
 =================

  Orbital  Occupation    Energy    Cen Mu Typ  Coefficients
    1.1     2.00000  -119.67504     1  1  s    0.93774
    2.1     2.00000   -12.97182     1  2  s    1.05708
    3.1     1.00000    -1.82875     1  2  s   -0.38495    1  9  s    0.53049    1 10  s    0.63016
    1.2     2.00000   -10.15470     1  1  py   0.57105    1  1  pz   0.82156
    2.2     2.00000   -10.15470     1  1  px   1.00053
    3.2     2.00000   -10.15470     1  1  py   0.82156    1  1  pz  -0.57105
    4.2     2.00000    -1.03115     1  1  pz  -0.30012    1  8  pz   0.47904    1  9  pz   0.42405
    5.2     2.00000    -1.03115     1  1  px  -0.30019    1  8  px   0.47917    1  9  px   0.42416
    6.2     2.00000    -1.03115     1  1  py  -0.30012    1  8  py   0.47904    1  9  py   0.42405


 HOMO      6.2    -1.031150 =     -28.0590eV
 LUMO      4.1    -0.130623 =      -3.5544eV
 LUMO-HOMO         0.900528 =      24.5046eV

 Orbitals saved in record  2100.2


 **********************************************************************************************************************************
 DATASETS  * FILE   NREC   LENGTH (MB)   RECORD NAMES
              1      22       30.14       500      610      700      900      950      970     1000      129      960     1700   
                                          VAR    BASINP    GEOM    SYMINP    ZMAT    AOBASIS   BASIS     P2S    ABASIS    OPER   
                                         1101     1401     1411     1412     1650     1100     1400     1410     1200     1210   
                                          SR      EKINR    POTR     PVPR    MOLCAS      S      EKIN      POT      H0       H01  
                                         1080     1600   
                                         AOSYM     SMH  

              2       4        1.11       700     1000      520     2100   
                                         GEOM     BASIS   MCVARS     RHF  

 PROGRAMS   *        TOTAL   RHF-SCF       INT
 CPU TIMES  *         4.16      0.39      3.42
 REAL TIME  *         5.10 SEC
 DISK USED  *        34.42 MB (local),        1.50 GB (total)
 GA USED    *         0.00 MB       (max)       0.00 MB       (current)
 **********************************************************************************************************************************

 PROGRAM * MULTI (Direct Multiconfiguration SCF)       Authors: P.J. Knowles, H.-J. Werner (1984)

 Number of closed-shell orbitals:   5 (    2    3)
 Number of active  orbitals:        8 (    2    6)
 Number of external orbitals:     204 (   98  106)

 State symmetry 1

 Number of active electrons:   8    Spin symmetry=Singlet   Space symmetry=1
 Number of states:            10
 Number of CSFs:             924   (2500 determinants, 4900 intermediate states)

 State symmetry 2

 Number of active electrons:   8    Spin symmetry=Triplet   Space symmetry=1
 Number of states:             9
 Number of CSFs:            1176   (1576 determinants, 3136 intermediate states)

 Molecular orbitals read from record     2100.2  Type=RHF/CANONICAL  

 EXTRA SYMMETRY OF MOS IN SYMMETRY 1:   1 1 1 1 2 4 6 3 5 1   2 4 6 3 5151412 811   91310 7 2 4 6 5 3 1  1514131012 8 7 911 6
                                        4 5 3 2 114151310 9  11 712 8 4 6 5 3 2 1   712 8 91114151013 4   6 5 3 2 1 2 4 5 6 3
                                       12 8 7141511 91310 4   5 6 3 2 1 4 5 6 3 2   1 1
 *** IN SYMMETRY 2 ORBITAL  1 SYMMETRY CONTAMINATION OF 0.411D+00 HAS BEEN REMOVED
 *** IN SYMMETRY 2 ORBITAL  2 SYMMETRY CONTAMINATION OF 0.347D-02 HAS BEEN REMOVED
 *** IN SYMMETRY 2 ORBITAL  3 SYMMETRY CONTAMINATION OF 0.411D+00 HAS BEEN REMOVED
 *** IN SYMMETRY 2 ORBITAL  4 SYMMETRY CONTAMINATION OF 0.223D-01 HAS BEEN REMOVED
 *** IN SYMMETRY 2 ORBITAL  6 SYMMETRY CONTAMINATION OF 0.223D-01 HAS BEEN REMOVED
 *** IN SYMMETRY 2 ORBITAL  7 SYMMETRY CONTAMINATION OF 0.300D-02 HAS BEEN REMOVED
 *** IN SYMMETRY 2 ORBITAL  8 SYMMETRY CONTAMINATION OF 0.299D-02 HAS BEEN REMOVED
 *** IN SYMMETRY 2 ORBITAL  9 SYMMETRY CONTAMINATION OF 0.191D-03 HAS BEEN REMOVED
 EXTRA SYMMETRY OF MOS IN SYMMETRY 2:   3 1 2 3 1 2 3 2 1 3   2 1 4 510 8 9 7 6 3   2 1 9 7 4 5 610 8 4   5 6 9 7 81015171321
                                       14161911121820 3 2 1   4 5 6 7 910 8201815  1713211416111219 3 2   1 6 810 9 7 5 41715
                                       201811121319211614 3   2 1 7 9 6 5 4 810 3   2 1 6 7 9 5 4 810 3   2 1 3 2 1

 Wavefunction dump at record             2140.2

 Convergence thresholds  0.10E-01 (gradient)  0.10E-05 (energy)  0.10E-02 (step length)

 Weight factors for state symmetry  1:    0.05263   0.05263   0.05263   0.05263   0.05263   0.05263   0.05263   0.05263
                                          0.05263   0.05263
 Weight factors for state symmetry  2:    0.05263   0.05263   0.05263   0.05263   0.05263   0.05263   0.05263   0.05263
                                          0.05263

 Number of orbital rotations:     1368   (    22 Core/Active    514 Core/Virtual   0 Active/Active    832 Active/Virtual)
 Total number of variables:      40552


 ITER. MIC  NCI  NEG     ENERGY(VAR)     ENERGY(PROJ)   ENERGY CHANGE     GRAD(0)  GRAD(ORB)   GRAD(CI)     STEP       TIME

 Not enough P space configurations found with threshold  0.40  for 10 states. Nplist= 1  threshold increased to    0.90
   1  119   42    0    -528.18585216    -528.19002757   -0.00417541    0.09695436 0.00000202 0.00000594  0.87D+00      1.98
   2  125   66    0    -528.19004959    -528.19005545   -0.00000586    0.00143272 0.00000003 0.00000046  0.35D-01      4.71
   3  115   32    0    -528.19005545    -528.19005545    0.00000000    0.00000080 0.00000000 0.00000011  0.65D-05      6.78

 ** WVFN ****  CONVERGENCE REACHED, FINAL GRADIENT:  0.27D-08



 Results for state 1.1
 =====================
 !MCSCF STATE 1.1 Energy             -528.608849332693
 Nuclear energy                         0.00000000
 Kinetic energy                       540.61563135
 One electron energy                 -732.17456094
 Two electron energy                  203.56571161
 Virial ratio                           1.97779054

 !MCSCF STATE 1.1 Dipole moment         0.00000000     0.00000000     0.00000000
 Dipole moment /Debye                   0.00000000     0.00000000     0.00000000

 Results for state 2.1
 =====================
 !MCSCF STATE 2.1 Energy             -528.168466392020
 Nuclear energy                         0.00000000
 Kinetic energy                       539.06937042
 One electron energy                 -725.12881202
 Two electron energy                  196.96034563
 Virial ratio                           1.97977829

 !MCSCF STATE 2.1 Dipole moment         0.00000000     0.00000000     0.00000000
 Dipole moment /Debye                   0.00000000     0.00000000     0.00000000

 Results for state 3.1
 =====================
 !MCSCF STATE 3.1 Energy             -528.168466392020
 Nuclear energy                         0.00000000
 Kinetic energy                       539.06937042
 One electron energy                 -725.12881202
 Two electron energy                  196.96034563
 Virial ratio                           1.97977829

 !MCSCF STATE 3.1 Dipole moment         0.00000000     0.00000000     0.00000000
 Dipole moment /Debye                   0.00000000     0.00000000     0.00000000

 Results for state 4.1
 =====================
 !MCSCF STATE 4.1 Energy             -528.168466392011
 Nuclear energy                         0.00000000
 Kinetic energy                       539.06937042
 One electron energy                 -725.12881202
 Two electron energy                  196.96034563
 Virial ratio                           1.97977829

 !MCSCF STATE 4.1 Dipole moment         0.00000000     0.00000000     0.00000000
 Dipole moment /Debye                   0.00000000     0.00000000     0.00000000

 Results for state 5.1
 =====================
 !MCSCF STATE 5.1 Energy             -528.168466392011
 Nuclear energy                         0.00000000
 Kinetic energy                       539.06937042
 One electron energy                 -725.12881202
 Two electron energy                  196.96034563
 Virial ratio                           1.97977829

 !MCSCF STATE 5.1 Dipole moment         0.00000000     0.00000000     0.00000000
 Dipole moment /Debye                   0.00000000     0.00000000     0.00000000

 Results for state 6.1
 =====================
 !MCSCF STATE 6.1 Energy             -528.168466392011
 Nuclear energy                         0.00000000
 Kinetic energy                       539.06937042
 One electron energy                 -725.12881202
 Two electron energy                  196.96034563
 Virial ratio                           1.97977829

 !MCSCF STATE 6.1 Dipole moment         0.00000000     0.00000000     0.00000000
 Dipole moment /Debye                   0.00000000     0.00000000     0.00000000

 Results for state 7.1
 =====================
 !MCSCF STATE 7.1 Energy             -528.164560737362
 Nuclear energy                         0.00000000
 Kinetic energy                       539.06077113
 One electron energy                 -725.11506712
 Two electron energy                  196.95050638
 Virial ratio                           1.97978668

 !MCSCF STATE 7.1 Dipole moment         0.00000000     0.00000000     0.00000000
 Dipole moment /Debye                   0.00000000     0.00000000     0.00000000

 Results for state 8.1
 =====================
 !MCSCF STATE 8.1 Energy             -528.164560737362
 Nuclear energy                         0.00000000
 Kinetic energy                       539.06077113
 One electron energy                 -725.11506712
 Two electron energy                  196.95050638
 Virial ratio                           1.97978668

 !MCSCF STATE 8.1 Dipole moment         0.00000000     0.00000000     0.00000000
 Dipole moment /Debye                   0.00000000     0.00000000     0.00000000

 Results for state 9.1
 =====================
 !MCSCF STATE 9.1 Energy             -528.164560737362
 Nuclear energy                         0.00000000
 Kinetic energy                       539.06077113
 One electron energy                 -725.11506712
 Two electron energy                  196.95050638
 Virial ratio                           1.97978668

 !MCSCF STATE 9.1 Dipole moment         0.00000000     0.00000000     0.00000000
 Dipole moment /Debye                   0.00000000     0.00000000     0.00000000

 Results for state 10.1
 ======================
 !MCSCF STATE 10.1 Energy            -528.134108280803
 Nuclear energy                         0.00000000
 Kinetic energy                       539.55821018
 One electron energy                 -726.14942147
 Two electron energy                  198.01531319
 Virial ratio                           1.97882693

 !MCSCF STATE 10.1 Dipole moment        0.00000000     0.00000000     0.00000000
 Dipole moment /Debye                   0.00000000     0.00000000     0.00000000



 Results for state 1.1
 =====================
 !MCSCF STATE 1.1 Energy             -528.181708568024
 Nuclear energy                         0.00000000
 Kinetic energy                       539.02730026
 One electron energy                 -725.05681226
 Two electron energy                  196.87510370
 Virial ratio                           1.97987933

 !MCSCF STATE 1.1 Dipole moment         0.00000000     0.00000000     0.00000000
 Dipole moment /Debye                   0.00000000     0.00000000     0.00000000

 Results for state 2.1
 =====================
 !MCSCF STATE 2.1 Energy             -528.171181272994
 Nuclear energy                         0.00000000
 Kinetic energy                       539.04846408
 One electron energy                 -725.09351946
 Two electron energy                  196.92233819
 Virial ratio                           1.97982133

 !MCSCF STATE 2.1 Dipole moment         0.00000000     0.00000000     0.00000000
 Dipole moment /Debye                   0.00000000     0.00000000     0.00000000

 Results for state 3.1
 =====================
 !MCSCF STATE 3.1 Energy             -528.171181272994
 Nuclear energy                         0.00000000
 Kinetic energy                       539.04846408
 One electron energy                 -725.09351946
 Two electron energy                  196.92233819
 Virial ratio                           1.97982133

 !MCSCF STATE 3.1 Dipole moment         0.00000000     0.00000000     0.00000000
 Dipole moment /Debye                   0.00000000     0.00000000     0.00000000

 Results for state 4.1
 =====================
 !MCSCF STATE 4.1 Energy             -528.171181272956
 Nuclear energy                         0.00000000
 Kinetic energy                       539.04846408
 One electron energy                 -725.09351946
 Two electron energy                  196.92233819
 Virial ratio                           1.97982133

 !MCSCF STATE 4.1 Dipole moment         0.00000000     0.00000000     0.00000000
 Dipole moment /Debye                   0.00000000     0.00000000     0.00000000

 Results for state 5.1
 =====================
 !MCSCF STATE 5.1 Energy             -528.171181272956
 Nuclear energy                         0.00000000
 Kinetic energy                       539.04846408
 One electron energy                 -725.09351946
 Two electron energy                  196.92233819
 Virial ratio                           1.97982133

 !MCSCF STATE 5.1 Dipole moment         0.00000000     0.00000000     0.00000000
 Dipole moment /Debye                   0.00000000     0.00000000     0.00000000

 Results for state 6.1
 =====================
 !MCSCF STATE 6.1 Energy             -528.171181272956
 Nuclear energy                         0.00000000
 Kinetic energy                       539.04846408
 One electron energy                 -725.09351946
 Two electron energy                  196.92233819
 Virial ratio                           1.97982133

 !MCSCF STATE 6.1 Dipole moment         0.00000000     0.00000000     0.00000000
 Dipole moment /Debye                   0.00000000     0.00000000     0.00000000

 Results for state 7.1
 =====================
 !MCSCF STATE 7.1 Energy             -528.164822259695
 Nuclear energy                         0.00000000
 Kinetic energy                       539.05782478
 One electron energy                 -725.10884409
 Two electron energy                  196.94402183
 Virial ratio                           1.97979252

 !MCSCF STATE 7.1 Dipole moment         0.00000000     0.00000000     0.00000000
 Dipole moment /Debye                   0.00000000     0.00000000     0.00000000

 Results for state 8.1
 =====================
 !MCSCF STATE 8.1 Energy             -528.164822259695
 Nuclear energy                         0.00000000
 Kinetic energy                       539.05782478
 One electron energy                 -725.10884409
 Two electron energy                  196.94402183
 Virial ratio                           1.97979252

 !MCSCF STATE 8.1 Dipole moment         0.00000000     0.00000000     0.00000000
 Dipole moment /Debye                   0.00000000     0.00000000     0.00000000

 Results for state 9.1
 =====================
 !MCSCF STATE 9.1 Energy             -528.164822259695
 Nuclear energy                         0.00000000
 Kinetic energy                       539.05782478
 One electron energy                 -725.10884409
 Two electron energy                  196.94402183
 Virial ratio                           1.97979252

 !MCSCF STATE 9.1 Dipole moment         0.00000000     0.00000000     0.00000000
 Dipole moment /Debye                   0.00000000     0.00000000     0.00000000

 State-averaged charge density matrix saved on record  2140.2 (density set 1)

 !MCSCF expec        <1.1|LXLX|1.1>     0.000000000000
 !MCSCF expec        <2.1|LXLX|2.1>     0.862503594364
 !MCSCF expec        <3.1|LXLX|3.1>     3.137492383535
 !MCSCF expec        <4.1|LXLX|4.1>     1.004843539845
 !MCSCF expec        <5.1|LXLX|5.1>     3.593071740658
 !MCSCF expec        <6.1|LXLX|6.1>     1.402088741598
 !MCSCF expec        <7.1|LXLX|7.1>     0.999140616721
 !MCSCF expec        <8.1|LXLX|8.1>     0.293656008970
 !MCSCF expec        <9.1|LXLX|9.1>     0.707203374309
 !MCSCF expec      <10.1|LXLX|10.1>     0.000000000000
 !MCSCF expec        <1.1|LXLX|1.1>     0.000000000000
 !MCSCF expec        <2.1|LXLX|2.1>     0.765123523868
 !MCSCF expec        <3.1|LXLX|3.1>     3.234876476459
 !MCSCF expec        <4.1|LXLX|4.1>     1.001472053742
 !MCSCF expec        <5.1|LXLX|5.1>     1.339799633561
 !MCSCF expec        <6.1|LXLX|6.1>     3.658728312370
 !MCSCF expec        <7.1|LXLX|7.1>     0.999946211138
 !MCSCF expec        <8.1|LXLX|8.1>     0.997316014473
 !MCSCF expec        <9.1|LXLX|9.1>     0.002737774389
 !MCSCF expec        <1.1|LYLY|1.1>    -0.000000000000
 !MCSCF expec        <2.1|LYLY|2.1>     3.993379992235
 !MCSCF expec        <3.1|LYLY|3.1>     0.006625340935
 !MCSCF expec        <4.1|LYLY|4.1>     3.941513489462
 !MCSCF expec        <5.1|LYLY|5.1>     1.000431883514
 !MCSCF expec        <6.1|LYLY|6.1>     1.058049293854
 !MCSCF expec        <7.1|LYLY|7.1>     0.000912628875
 !MCSCF expec        <8.1|LYLY|8.1>     0.999182065910
 !MCSCF expec        <9.1|LYLY|9.1>     0.999905305215
 !MCSCF expec      <10.1|LYLY|10.1>    -0.000000000000
 !MCSCF expec        <1.1|LYLY|1.1>     0.000000000000
 !MCSCF expec        <2.1|LYLY|2.1>     3.979902935585
 !MCSCF expec        <3.1|LYLY|3.1>     0.020097065080
 !MCSCF expec        <4.1|LYLY|4.1>     3.990423033988
 !MCSCF expec        <5.1|LYLY|5.1>     1.009543719467
 !MCSCF expec        <6.1|LYLY|6.1>     1.000033245881
 !MCSCF expec        <7.1|LYLY|7.1>     0.008041053986
 !MCSCF expec        <8.1|LYLY|8.1>     0.992101157959
 !MCSCF expec        <9.1|LYLY|9.1>     0.999857788055
 !MCSCF expec        <1.1|LZLZ|1.1>     0.000000000000
 !MCSCF expec        <2.1|LZLZ|2.1>     1.144116413401
 !MCSCF expec        <3.1|LZLZ|3.1>     2.855882275530
 !MCSCF expec        <4.1|LZLZ|4.1>     1.053642970693
 !MCSCF expec        <5.1|LZLZ|5.1>     1.406496375827
 !MCSCF expec        <6.1|LZLZ|6.1>     3.539861964548
 !MCSCF expec        <7.1|LZLZ|7.1>     0.999946754405
 !MCSCF expec        <8.1|LZLZ|8.1>     0.707161925120
 !MCSCF expec        <9.1|LZLZ|9.1>     0.292891320475
 !MCSCF expec      <10.1|LZLZ|10.1>     0.000000000000
 !MCSCF expec        <1.1|LZLZ|1.1>     0.000000000000
 !MCSCF expec        <2.1|LZLZ|2.1>     1.254973540547
 !MCSCF expec        <3.1|LZLZ|3.1>     2.745026458461
 !MCSCF expec        <4.1|LZLZ|4.1>     1.008104912270
 !MCSCF expec        <5.1|LZLZ|5.1>     3.650656646972
 !MCSCF expec        <6.1|LZLZ|6.1>     1.341238441750
 !MCSCF expec        <7.1|LZLZ|7.1>     0.992012734876
 !MCSCF expec        <8.1|LZLZ|8.1>     0.010582827568
 !MCSCF expec        <9.1|LZLZ|9.1>     0.997404437556
 !MCSCF expec        <1.1|L**2|1.1>     0.000000000000
 !MCSCF expec        <2.1|L**2|2.1>     6.000000000000
 !MCSCF expec        <3.1|L**2|3.1>     6.000000000000
 !MCSCF expec        <4.1|L**2|4.1>     6.000000000000
 !MCSCF expec        <5.1|L**2|5.1>     6.000000000000
 !MCSCF expec        <6.1|L**2|6.1>     6.000000000000
 !MCSCF expec        <7.1|L**2|7.1>     2.000000000000
 !MCSCF expec        <8.1|L**2|8.1>     2.000000000000
 !MCSCF expec        <9.1|L**2|9.1>     2.000000000000
 !MCSCF expec      <10.1|L**2|10.1>     0.000000000000
 !MCSCF expec        <1.1|L**2|1.1>     0.000000000000
 !MCSCF expec        <2.1|L**2|2.1>     6.000000000000
 !MCSCF expec        <3.1|L**2|3.1>     6.000000000000
 !MCSCF expec        <4.1|L**2|4.1>     6.000000000000
 !MCSCF expec        <5.1|L**2|5.1>     6.000000000000
 !MCSCF expec        <6.1|L**2|6.1>     6.000000000000
 !MCSCF expec        <7.1|L**2|7.1>     2.000000000000
 !MCSCF expec        <8.1|L**2|8.1>     2.000000000000
 !MCSCF expec        <9.1|L**2|9.1>     2.000000000000


 NATURAL ORBITALS (state averaged)
 =================================

  Orbital  Occupation    Energy    Cen Mu Typ  Coefficients
    1.1     2.00000  -119.39993     1  1  s    0.93767
    2.1     2.00000   -12.66860     1  2  s    1.03339
    3.1     1.99881    -1.56271     1  2  s   -0.44372    1  9  s    0.49700    1 10  s    0.63120
    4.1     0.00159     1.07957     1  2  s    0.54256    1  7  s    0.53612    1  8  s   -0.32938    1  9  s   -2.17024
                                    1 10  s    1.29715    1 11  s    0.53922
    1.2     2.00000    -9.87689     1  1  px   0.99902
    2.2     2.00000    -9.87689     1  1  py   0.99902
    3.2     2.00000    -9.87689     1  1  pz   0.99902
    4.2     1.68389    -0.75432     1  1  px  -0.29776    1  8  px   0.47398    1  9  px   0.42373
    5.2     1.68389    -0.75432     1  1  pz  -0.29985    1  8  pz   0.47730    1  9  pz   0.42671
    6.2     1.68389    -0.75432     1  1  py  -0.29776    1  8  py   0.47398    1  9  py   0.42373
    7.2     0.31598     0.04693     1 10  px  -0.27876    1 11  px   1.18638
    8.2     0.31598     0.04693     1 10  py  -0.27876    1 11  py   1.18638
    9.2     0.31598     0.04693     1 10  pz  -0.27876    1 11  pz   1.18639


 EXTRA SYMMETRY OF MOS IN SYMMETRY 1:   1 1 1 1 1 2 3 4 6 5   2 6 5 4 3 11415 812  11 91310 7 2 4 3 5 6  1013141512 8 7 911 6
                                        4 3 5 2 11013141511   9 7 812 4 6 3 5 2 1   812 7141511 91013 4   6 3 5 2 1 4 5 3 6 2
                                       12 8 7151411 91013 4   6 5 3 2 1 4 6 5 3 2   1 1
 *** IN SYMMETRY 2 ORBITAL  4 SYMMETRY CONTAMINATION OF 0.106D+00 HAS BEEN REMOVED
 *** IN SYMMETRY 2 ORBITAL  6 SYMMETRY CONTAMINATION OF 0.106D+00 HAS BEEN REMOVED
 *** IN SYMMETRY 2 ORBITAL  7 SYMMETRY CONTAMINATION OF 0.260D-02 HAS BEEN REMOVED
 *** IN SYMMETRY 2 ORBITAL  8 SYMMETRY CONTAMINATION OF 0.258D-02 HAS BEEN REMOVED
 *** IN SYMMETRY 2 ORBITAL  9 SYMMETRY CONTAMINATION OF 0.259D-04 HAS BEEN REMOVED
 EXTRA SYMMETRY OF MOS IN SYMMETRY 2:   1 2 3 1 3 2 1 2 3 3   2 1 4 5 810 7 9 6 3   1 2 9 7 5 4 610 8 4   5 6 9 7 81015172113
                                       14161820191211 1 3 2   5 4 6 9 710 8151718  2021131416111219 3 2   1 810 9 7 6 5 41517
                                       182011121913211614 2   3 1 7 9 6 810 5 4 2   3 1 6 9 7 5 4 810 2   3 1 3 2 1

 Natural orbital dump (state averaged) at molpro section  2140.2    (Orbital set 2)


 CI vector for state symmetry 1
 ==============================

 State:              1           2           3           4           5           6           7           8           9
 20 222000      0.9809681   0.0000000   0.0000000  -0.0000000  -0.0000000   0.0000000   0.0000000   0.0000000  -0.0000000
 20 22b0a0     -0.0743478   0.0964488  -0.5646440   0.0175101  -0.0080035  -0.0577371   0.0000127   0.0576212   0.0000015
 20 22a0b0      0.0743478  -0.0964488   0.5646440  -0.0175101   0.0080035   0.0577371  -0.0000127  -0.0576212  -0.0000015
 20 b22a00     -0.0743478  -0.5373773   0.1984585  -0.0176347   0.0080030   0.0573959   0.0000005   0.0576212   0.0000007
 20 a22b00      0.0743478   0.5373773  -0.1984585   0.0176347  -0.0080030  -0.0573959  -0.0000005  -0.0576212  -0.0000007
 20 22b00a     -0.0000001   0.0002402  -0.0001984  -0.0512455   0.4903932  -0.0811804  -0.0057419  -0.0000184   0.4997221
 20 22a00b      0.0000001  -0.0002402   0.0001984   0.0512455  -0.4903932   0.0811804   0.0057419   0.0000184  -0.4997221
 20 b2200a     -0.0000018   0.0001174   0.0001523  -0.4755570  -0.0721176  -0.1354495   0.4997221  -0.0001100   0.0057419
 20 a2200b      0.0000018  -0.0001174  -0.0001523   0.4755570   0.0721176   0.1354495  -0.4997221   0.0001100  -0.0057419
 20 b220a0      0.0086298  -0.0130105   0.0681212   0.1435784  -0.0628483  -0.4705678   0.0001106   0.4964222   0.0000074
 20 a220b0     -0.0086298   0.0130105  -0.0681212  -0.1435784   0.0628483   0.4705678  -0.0001106  -0.4964222  -0.0000074
 20 22ba00     -0.0086298  -0.0641904   0.0256170   0.1435645  -0.0628606  -0.4706056  -0.0001097  -0.4964222  -0.0000196
 20 22ab00      0.0086298   0.0641904  -0.0256170  -0.1435645   0.0628606   0.4706056   0.0001097   0.4964222   0.0000196
 20 2b20a0     -0.0000001   0.0002258  -0.0002149   0.0039239   0.4954394  -0.0650102   0.0633210  -0.0000067  -0.4957274
 20 2a20b0      0.0000001  -0.0002258   0.0002149  -0.0039239  -0.4954394   0.0650102  -0.0633210   0.0000067   0.4957274
 20 2a2b00     -0.0000018  -0.0001467  -0.0001145   0.4782937   0.0150950   0.1439069   0.4957274  -0.0001107   0.0633210
 20 2b2a00      0.0000018   0.0001467   0.0001145  -0.4782937  -0.0150950  -0.1439069  -0.4957274   0.0001107  -0.0633210
 20 2a200b      0.0748470  -0.4438889  -0.3686441  -0.0001253  -0.0000019  -0.0003434   0.0000122  -0.0000000   0.0000009
 20 2b200a     -0.0748470   0.4438889   0.3686441   0.0001253   0.0000019   0.0003434  -0.0000122   0.0000000  -0.0000009

 State:             10
 20 222000     -0.1819547
 20 22b0a0     -0.3981463
 20 22a0b0      0.3981463
 20 b22a00     -0.3981463
 20 a22b00      0.3981463
 20 22b00a     -0.0000006
 20 22a00b      0.0000006
 20 b2200a     -0.0000098
 20 a2200b      0.0000098
 20 b220a0      0.0462140
 20 a220b0     -0.0462140
 20 22ba00     -0.0462140
 20 22ab00      0.0462140
 20 2b20a0     -0.0000005
 20 2a20b0      0.0000005
 20 2a2b00     -0.0000098
 20 2b2a00      0.0000098
 20 2a200b      0.4008194
 20 2b200a     -0.4008194

 TOTAL ENERGIES                      -528.60884933  -528.16846639  -528.16846639
                                     -528.16846639  -528.16846639  -528.16846639
                                     -528.16456074  -528.16456074  -528.16456074
                                     -528.13410828

 CI vector for state symmetry 2
 ==============================

 20 22a0a0      0.5731155  -0.0322910   0.8096424   0.0200190   0.0184825  -0.0807557   0.0023945  -0.0719076   0.0382520
 20 a22a00      0.5731155   0.7175289  -0.3764731  -0.0200190  -0.0184805   0.0806560   0.0024118  -0.0719077   0.0382508
 20 2a2a00     -0.0000142   0.0000652  -0.0000542   0.6856446   0.0087723   0.1713044   0.7064151   0.0183452  -0.0097355
 20 a2200a      0.0000141   0.0000624  -0.0000726   0.6863101  -0.0708343   0.1532698  -0.7017063   0.0200455   0.0816093
 20 2a20a0      0.0000008   0.0000269  -0.0000092  -0.0454372   0.6899235   0.1465322  -0.0000209   0.3319136   0.6239286
 20 2a200a      0.5769634  -0.6898386  -0.4360776   0.0000000  -0.0000000   0.0001008   0.0000173  -0.0000000  -0.0000011
 20 22a00a      0.0000009   0.0000354  -0.0000183   0.0339238   0.6863375   0.1652899  -0.0814286  -0.3318000  -0.6186532
 20 22aa00      0.0665232   0.0852144  -0.0469052   0.1641866   0.1520281  -0.6649909  -0.0206279   0.6195077  -0.3295430
 20 a220a0     -0.0665232   0.0056768  -0.0971845   0.1641864   0.1520450  -0.6649755   0.0206289  -0.6194996   0.3295583

 TOTAL ENERGIES                      -528.18170857  -528.17118127  -528.17118127
                                     -528.17118127  -528.17118127  -528.17118127
                                     -528.16482226  -528.16482226  -528.16482226



 **********************************************************************************************************************************
 DATASETS  * FILE   NREC   LENGTH (MB)   RECORD NAMES
              1      24       55.63       500      610      700      900      950      970     1000      129      960     1700   
                                          VAR    BASINP    GEOM    SYMINP    ZMAT    AOBASIS   BASIS     P2S    ABASIS    OPER   
                                         1101     1401     1411     1412     1650     1100     1400     1410     1200     1210   
                                          SR      EKINR    POTR     PVPR    MOLCAS      S      EKIN      POT      H0       H01  
                                         1080     1600     1380     1700(1)
                                         AOSYM     SMH     JKOP     OPER   

              2       5        2.02       700     1000      520     2100     2140   
                                         GEOM     BASIS   MCVARS     RHF     MCSCF   

 PROGRAMS   *        TOTAL     MULTI   RHF-SCF       INT
 CPU TIMES  *        12.36      8.20      0.39      3.42
 REAL TIME  *        15.00 SEC
 DISK USED  *        57.73 MB (local),        2.18 GB (total)
 SF USED    *        97.77 MB
 GA USED    *         0.00 MB       (max)       0.00 MB       (current)
 **********************************************************************************************************************************

 Energies and &lt;L**2&gt; values

         ENERGY     LL
    -528.6088493   0.0
    -528.1684664   6.0
    -528.1684664   6.0
    -528.1684664   6.0
    -528.1684664   6.0
    -528.1684664   6.0
    -528.1645607   2.0
    -528.1645607   2.0
    -528.1645607   2.0
    -528.1341083   0.0
    -528.1817086   0.0
    -528.1711813   6.0
    -528.1711813   6.0
    -528.1711813   6.0
    -528.1711813   6.0
    -528.1711813   6.0
    -528.1648223   2.0
    -528.1648223   2.0
    -528.1648223   2.0
                                                  


 PROGRAM * CI (Multireference internally contracted CI)     Authors: H.-J. Werner, P.J. Knowles, 1987


 Convergence thresholds:  THRVAR = 1.00D-08  THRDEN = 1.00D-06

 Number of optimized states: 10  Roots:   1   2   3   4   5   6   7   8   9  10
 Number of reference states: 10  Roots:   1   2   3   4   5   6   7   8   9  10

 Reference symmetry:                   1   Singlet 
 Number of electrons:                 18
 Maximum number of shells:             7
 Maximum number of spin couplings:   132

 Reference space:      603 conf      924 CSFs
 N elec internal:    13011 conf    32004 CSFs
 N-1 el internal:    15604 conf    64512 CSFs
 N-2 el internal:    10878 conf    69696 CSFs

 Number of electrons in valence space:                     16
 Maximum number of open shell orbitals in reference space:  8
 Maximum number of open shell orbitals in internal spaces: 12


 Number of core orbitals:           1 (   1   0 )
 Number of closed-shell orbitals:   4 (   1   3 )
 Number of active  orbitals:        8 (   2   6 )
 Number of external orbitals:     204 (  98 106 )

 Molecular orbitals read from record     2140.2  Type=MCSCF/NATURAL (state averaged)

 Coulomb and exchange operators available. No transformation done.


 Number of p-space configurations:  10

 Reference wavefunction optimized for reference space (refopt=1)

 State     Reference Energy 
     1      -528.60884933
     2      -528.16846639
     3      -528.16846639
     4      -528.16846639
     5      -528.16846639
     6      -528.16846639
     7      -528.16456074
     8      -528.16456074
     9      -528.16456074
    10      -528.13410828

 ?WARNING: SMALL EIGENVALUE OF PAIR OVERLAP MATRIX:  0.1050D-06

 ?WARNING: SMALL EIGENVALUE OF PAIR OVERLAP MATRIX:  0.1530D-06

 ?WARNING: SMALL EIGENVALUE OF PAIR OVERLAP MATRIX:  0.1530D-06

 ?WARNING: SMALL EIGENVALUE OF PAIR OVERLAP MATRIX:  0.2541D-06

 Number of blocks in overlap matrix:   235   Smallest eigenvalue:  0.10D-06
 Number of N-2 electron functions:    1395
 Number of N-1 electron functions:   64512

 Number of internal configurations:                16212
 Number of singly external configurations:       6582016
 Number of doubly external configurations:      14527494
 Total number of contracted configurations:     21125722
 Total number of uncontracted configurations:  730996084

 Diagonal Coupling coefficients finished.               Storage:16819024 words, CPU-Time:     14.85 seconds.
 Energy denominators for pairs finished in 1 passes.    Storage: 2146864 words, CPU-time:      2.31 seconds.

  ITER. STATE  ROOT     SQ.NORM     CORR.ENERGY   TOTAL ENERGY   ENERGY CHANGE       DEN1      VAR(S)    VAR(P)      TIME
    1     1     1     1.00000000     0.00000000  -528.60884933     0.00000000    -0.57447600  0.39D-01  0.31D-01    21.45
    1     2     2     1.00000000     0.00000000  -528.16846639     0.00000000    -0.55593912  0.21D-01  0.38D-01    21.45
    1     3     3     1.00000000     0.00000000  -528.16846639     0.00000000    -0.55705151  0.21D-01  0.38D-01    21.45
    1     4     4     1.00000000     0.00000000  -528.16846639    -0.00000000    -0.54751635  0.21D-01  0.33D-01    21.45
    1     5     5     1.00000000     0.00000000  -528.16846639     0.00000000    -0.54713745  0.21D-01  0.33D-01    21.45
    1     6     6     1.00000000     0.00000000  -528.16846639     0.00000000    -0.54715681  0.21D-01  0.33D-01    21.45
    1     7     7     1.00000000     0.00000000  -528.16456074    -0.00000000    -0.55013367  0.21D-01  0.34D-01    21.45
    1     8     8     1.00000000     0.00000000  -528.16456074    -0.00000000    -0.55003895  0.21D-01  0.34D-01    21.45
    1     9     9     1.00000000     0.00000000  -528.16456074    -0.00000000    -0.55005631  0.21D-01  0.34D-01    21.45
    1    10    10     1.00000000     0.00000000  -528.13410828    -0.00000000    -0.58081490  0.55D-01  0.37D-01    21.45
    2     1     1     1.06489995    -0.55708224  -529.16593157    -0.55708224    -0.02523062  0.56D-02  0.20D-02   336.62
    2     2     2     1.05402693    -0.53328382  -528.70175021    -0.53328382    -0.01178160  0.12D-02  0.12D-02   336.62
    2     3     3     1.05375014    -0.53300596  -528.70147235    -0.53300596    -0.01196852  0.12D-02  0.13D-02   336.62
    2     4     4     1.05081952    -0.53296272  -528.70142911    -0.53296272    -0.01185737  0.13D-02  0.12D-02   336.62
    2     5     5     1.05072844    -0.53296264  -528.70142903    -0.53296264    -0.01185319  0.13D-02  0.12D-02   336.62
    2     6     6     1.05074638    -0.53295674  -528.70142313    -0.53295674    -0.01185567  0.13D-02  0.12D-02   336.62
    2     7     7     1.05172620    -0.53386766  -528.69842839    -0.53386766    -0.01161699  0.12D-02  0.12D-02   336.62
    2     8     8     1.05174224    -0.53386399  -528.69842473    -0.53386399    -0.01161634  0.12D-02  0.12D-02   336.62
    2     9     9     1.05176241    -0.53381213  -528.69837286    -0.53381213    -0.01163647  0.11D-02  0.12D-02   336.62
    2    10    10     1.07535179    -0.53476749  -528.66887577    -0.53476749    -0.02250207  0.87D-02  0.15D-02   336.62
    3     1     1     1.06137944    -0.58571641  -529.19456574    -0.02863417    -0.00264361  0.16D-03  0.25D-03   652.60
    3     2     2     1.05382313    -0.54601060  -528.71447700    -0.01272678    -0.00125803  0.82D-04  0.14D-03   652.60
    3     3     3     1.05382221    -0.54600884  -528.71447523    -0.01300288    -0.00125823  0.82D-04  0.14D-03   652.60
    3     4     4     1.05382433    -0.54600384  -528.71447023    -0.01304112    -0.00125792  0.82D-04  0.14D-03   652.60
    3     5     5     1.05409292    -0.54595936  -528.71442575    -0.01299672    -0.00122926  0.80D-04  0.15D-03   652.60
    3     6     6     1.05398044    -0.54591374  -528.71438014    -0.01295701    -0.00125554  0.79D-04  0.15D-03   652.60
    3     7     7     1.05433661    -0.54665132  -528.71121206    -0.01278366    -0.00122225  0.76D-04  0.14D-03   652.60
    3     8     8     1.05433676    -0.54664944  -528.71121018    -0.01278545    -0.00122232  0.76D-04  0.14D-03   652.60
    3     9     9     1.05431750    -0.54662982  -528.71119056    -0.01281770    -0.00123252  0.77D-04  0.14D-03   652.60
    3    10    10     1.05952147    -0.55696315  -528.69107143    -0.02219566    -0.00165151  0.15D-03  0.19D-03   652.60
    4     1     1     1.06893067    -0.58900183  -529.19785116    -0.00328542    -0.00019145  0.10D-04  0.20D-04   969.63
    4     2     2     1.05965429    -0.54768019  -528.71614658    -0.00166959    -0.00011600  0.45D-05  0.15D-04   969.63
    4     3     3     1.05965379    -0.54767940  -528.71614579    -0.00167056    -0.00011626  0.45D-05  0.15D-04   969.63
    4     4     4     1.05948706    -0.54767924  -528.71614563    -0.00167541    -0.00012524  0.50D-05  0.15D-04   969.63
    4     5     5     1.05965322    -0.54767818  -528.71614457    -0.00171882    -0.00011685  0.45D-05  0.15D-04   969.63
    4     6     6     1.05951386    -0.54767396  -528.71614035    -0.00176022    -0.00012725  0.50D-05  0.16D-04   969.63
    4     7     7     1.06006383    -0.54830406  -528.71286480    -0.00165274    -0.00011416  0.41D-05  0.15D-04   969.63
    4     8     8     1.06006309    -0.54830309  -528.71286383    -0.00165365    -0.00011448  0.41D-05  0.15D-04   969.63
    4     9     9     1.06006007    -0.54830050  -528.71286124    -0.00167068    -0.00011606  0.41D-05  0.15D-04   969.63
    4    10    10     1.06326437    -0.55918097  -528.69328925    -0.00221782    -0.00017666  0.14D-04  0.23D-04   969.63
    5     1     1     1.07008095    -0.58925034  -529.19809968    -0.00024851    -0.00002441  0.12D-05  0.26D-05  1287.28
    5     2     2     1.05995622    -0.54784452  -528.71631091    -0.00016433    -0.00001655  0.90D-06  0.20D-05  1287.28
    5     3     3     1.05995092    -0.54784339  -528.71630978    -0.00016399    -0.00001729  0.91D-06  0.21D-05  1287.28
    5     4     4     1.05991721    -0.54784254  -528.71630894    -0.00016330    -0.00001811  0.10D-05  0.20D-05  1287.28
    5     5     5     1.05991707    -0.54784228  -528.71630867    -0.00016410    -0.00001823  0.10D-05  0.20D-05  1287.28
    5     6     6     1.05991778    -0.54784204  -528.71630843    -0.00016808    -0.00001832  0.10D-05  0.20D-05  1287.28
    5     7     7     1.06032262    -0.54846334  -528.71302408    -0.00015928    -0.00001626  0.71D-06  0.19D-05  1287.28
    5     8     8     1.06032231    -0.54846304  -528.71302378    -0.00015995    -0.00001640  0.71D-06  0.19D-05  1287.28
    5     9     9     1.06032092    -0.54846265  -528.71302339    -0.00016215    -0.00001664  0.72D-06  0.19D-05  1287.28
    5    10    10     1.06436682    -0.55942046  -528.69352874    -0.00023950    -0.00002630  0.23D-05  0.30D-05  1287.28
    6     1     1     1.07002195    -0.58928181  -529.19813115    -0.00003147    -0.00000351  0.19D-06  0.33D-06  1603.89
    6     2     2     1.05977855    -0.54786614  -528.71633253    -0.00002162    -0.00000299  0.18D-06  0.34D-06  1603.89
    6     3     3     1.05977019    -0.54786611  -528.71633251    -0.00002272    -0.00000314  0.21D-06  0.33D-06  1603.89
    6     4     4     1.05976921    -0.54786603  -528.71633242    -0.00002348    -0.00000318  0.21D-06  0.33D-06  1603.89
    6     5     5     1.05976761    -0.54786597  -528.71633237    -0.00002369    -0.00000321  0.21D-06  0.34D-06  1603.89
    6     6     6     1.05977537    -0.54786591  -528.71633230    -0.00002387    -0.00000311  0.18D-06  0.35D-06  1603.89
    6     7     7     1.06017350    -0.54848486  -528.71304560    -0.00002152    -0.00000269  0.17D-06  0.29D-06  1603.89
    6     8     8     1.06017220    -0.54848477  -528.71304551    -0.00002173    -0.00000273  0.18D-06  0.30D-06  1603.89
    6     9     9     1.06016991    -0.54848471  -528.71304545    -0.00002206    -0.00000278  0.18D-06  0.30D-06  1603.89
    6    10    10     1.06409175    -0.55945682  -528.69356510    -0.00003636    -0.00000562  0.50D-06  0.57D-06  1603.89
    7     1     1     1.07013396    -0.58928621  -529.19813555    -0.00000440    -0.00000056  0.27D-07  0.55D-07  1920.60
    7     2     2     1.05990493    -0.54787020  -528.71633659    -0.00000406    -0.00000076  0.52D-07  0.79D-07  1920.60
    7     3     3     1.05990909    -0.54787019  -528.71633659    -0.00000408    -0.00000074  0.48D-07  0.76D-07  1920.60
    7     4     4     1.05990927    -0.54787016  -528.71633656    -0.00000414    -0.00000076  0.50D-07  0.78D-07  1920.60
    7     5     5     1.05990892    -0.54787016  -528.71633656    -0.00000419    -0.00000075  0.49D-07  0.78D-07  1920.60
    7     6     6     1.05990348    -0.54787001  -528.71633640    -0.00000410    -0.00000074  0.51D-07  0.78D-07  1920.60
    7     7     7     1.06032034    -0.54848853  -528.71304926    -0.00000366    -0.00000066  0.42D-07  0.68D-07  1920.60
    7     8     8     1.06032004    -0.54848852  -528.71304926    -0.00000375    -0.00000069  0.44D-07  0.71D-07  1920.60
    7     9     9     1.06032034    -0.54848850  -528.71304924    -0.00000379    -0.00000067  0.43D-07  0.69D-07  1920.60
    7    10    10     1.06420951    -0.55946459  -528.69357288    -0.00000777    -0.00000173  0.13D-06  0.19D-06  1920.60
    8     1     1     1.07015426    -0.58928690  -529.19813623    -0.00000069    -0.00000011  0.42D-08  0.11D-07  2237.36
    8     2     2     1.05994460    -0.54787121  -528.71633760    -0.00000101    -0.00000017  0.91D-08  0.20D-07  2237.36
    8     3     3     1.05994302    -0.54787120  -528.71633759    -0.00000100    -0.00000019  0.10D-07  0.20D-07  2237.36
    8     4     4     1.05994289    -0.54787119  -528.71633759    -0.00000103    -0.00000018  0.10D-07  0.19D-07  2237.36
    8     5     5     1.05994290    -0.54787118  -528.71633757    -0.00000102    -0.00000018  0.10D-07  0.19D-07  2237.36
    8     6     6     1.05994443    -0.54787098  -528.71633738    -0.00000097    -0.00000016  0.88D-08  0.18D-07  2237.36
    8     7     7     1.06034732    -0.54848945  -528.71305019    -0.00000092    -0.00000016  0.74D-08  0.18D-07  2237.36
    8     8     8     1.06034731    -0.54848941  -528.71305015    -0.00000089    -0.00000016  0.71D-08  0.17D-07  2237.36
    8     9     9     1.06034731    -0.54848941  -528.71305014    -0.00000091    -0.00000016  0.72D-08  0.17D-07  2237.36
    8    10    10     1.06423998    -0.55946689  -528.69357517    -0.00000230    -0.00000047  0.33D-07  0.48D-07  2237.36
    9     1     1     1.07015506    -0.58928703  -529.19813636    -0.00000013    -0.00000002  0.10D-08  0.21D-08  2553.89
    9     2     2     1.05993372    -0.54787143  -528.71633782    -0.00000022    -0.00000005  0.29D-08  0.49D-08  2553.89
    9     3     3     1.05993407    -0.54787142  -528.71633781    -0.00000023    -0.00000004  0.26D-08  0.48D-08  2553.89
    9     4     4     1.05993409    -0.54787142  -528.71633781    -0.00000023    -0.00000004  0.29D-08  0.47D-08  2553.89
    9     5     5     1.05993393    -0.54787141  -528.71633780    -0.00000023    -0.00000004  0.29D-08  0.48D-08  2553.89
    9     6     6     1.05993466    -0.54787119  -528.71633758    -0.00000020    -0.00000004  0.26D-08  0.44D-08  2553.89
    9     7     7     1.06033654    -0.54848966  -528.71305039    -0.00000021    -0.00000004  0.21D-08  0.43D-08  2553.89
    9     8     8     1.06033695    -0.54848961  -528.71305035    -0.00000020    -0.00000004  0.20D-08  0.41D-08  2553.89
    9     9     9     1.06033674    -0.54848961  -528.71305035    -0.00000020    -0.00000004  0.21D-08  0.42D-08  2553.89
    9    10    10     1.06422371    -0.55946748  -528.69357576    -0.00000059    -0.00000013  0.11D-07  0.13D-07  2553.89
   10     1     1     1.07015614    -0.58928704  -529.19813637    -0.00000001    -0.00000002  0.59D-09  0.17D-08  2622.69
   10     2     2     1.05993372    -0.54787143  -528.71633782    -0.00000000    -0.00000005  0.29D-08  0.49D-08  2622.69
   10     3     3     1.05993407    -0.54787142  -528.71633781    -0.00000000    -0.00000004  0.26D-08  0.48D-08  2622.69
   10     4     4     1.05993409    -0.54787142  -528.71633781    -0.00000000    -0.00000004  0.29D-08  0.47D-08  2622.69
   10     5     5     1.05993393    -0.54787141  -528.71633780    -0.00000000    -0.00000004  0.29D-08  0.48D-08  2622.69
   10     6     6     1.05993467    -0.54787119  -528.71633758    -0.00000000    -0.00000004  0.26D-08  0.44D-08  2622.69
   10     7     7     1.06033654    -0.54848966  -528.71305039    -0.00000000    -0.00000004  0.21D-08  0.43D-08  2622.69
   10     8     8     1.06033695    -0.54848961  -528.71305035    -0.00000000    -0.00000004  0.20D-08  0.41D-08  2622.69
   10     9     9     1.06033674    -0.54848961  -528.71305035    -0.00000000    -0.00000004  0.21D-08  0.42D-08  2622.69
   10    10    10     1.06423585    -0.55946771  -528.69357599    -0.00000023    -0.00000001  0.82D-09  0.15D-08  2622.69


 =====================================
 Analysis of CPU times by interactions
 =====================================

       I      S      P

 I   0.4%
 S   0.4%   3.3%
 P   0.3%  30.9%  29.9%

 Initialization:   0.7%
 Other:           34.1%

 Total CPU:     2622.7 seconds
 =====================================



 Wavefunction saved on  5201.2

 Reference coefficients greater than 0.0500000
 =============================================
 220222222000           0.9560277   0.0000000  -0.0000000   0.0000000  -0.0000000  -0.0000003   0.0000000  -0.0000000  -0.0000000
                       -0.1230985
 22022222/0\0           0.0751316   0.0000435  -0.0177983   0.0000000  -0.0000116   0.7923396   0.0000000   0.0000000   0.0000000
                        0.5543626
 220222/22\00           0.0751316  -0.0000200   0.6950850  -0.0000000   0.0000056  -0.3807552  -0.0000000  -0.0000000  -0.0000000
                        0.5543640
 22022222/00\          -0.0000000  -0.0000000   0.0000000  -0.0005717   0.6863605   0.0000101  -0.0000001  -0.0014283  -0.6863282
                       -0.0000000
 220222/2200\           0.0000000   0.6863605  -0.0000009   0.0000000   0.0000000  -0.0000377  -0.6863302   0.0000648  -0.0000000
                        0.0000000
 22022222/\00          -0.0000000  -0.0000000   0.0000000   0.6863591   0.0005717   0.0000000  -0.0000647  -0.6863296   0.0014283
                        0.0000000
 220222/220\0           0.0000000   0.0000000   0.0000000   0.6863585   0.0005717   0.0000000   0.0000648   0.6863304  -0.0014283
                        0.0000000
 2202222/2\00          -0.0000000   0.6863579  -0.0000009  -0.0000000   0.0000000  -0.0000377   0.6863330  -0.0000648   0.0000000
                        0.0000000
 2202222/20\0           0.0000000   0.0000000   0.0000000  -0.0005717   0.6863572   0.0000101   0.0000001   0.0014283   0.6863320
                        0.0000000
 2202222/200\           0.0751316  -0.0000234  -0.6772869   0.0000000   0.0000060  -0.4115829   0.0000000   0.0000000  -0.0000000
                        0.5543640

 Coefficients of fixed reference functions:
 ==========================================

 State      Coefficients
 1           0.965471   -0.000000   -0.000000    0.000000    0.000000   -0.000000   -0.000000    0.000000    0.000000   -0.047620
 2          -0.000000    0.000002    0.000053    0.971264   -0.000000   -0.000000   -0.000002    0.000000    0.000000   -0.000000
 3          -0.000000    0.971018   -0.021853   -0.000001    0.000000    0.000000    0.000000    0.000000   -0.000000   -0.000000
 4          -0.000000   -0.000000    0.000000    0.000000    0.971264   -0.000809   -0.000000   -0.000000    0.000000   -0.000000
 5          -0.000000   -0.000000   -0.000014    0.000000    0.000809    0.971264   -0.000000   -0.000000   -0.000002    0.000000
 6          -0.000000    0.021853    0.971018   -0.000053    0.000000    0.000014   -0.000000   -0.000000   -0.000000    0.000001
 7           0.000000   -0.000000    0.000000    0.000002    0.000000    0.000000    0.971087    0.000092    0.000000   -0.000000
 8          -0.000000   -0.000000    0.000000   -0.000000    0.000001    0.000000   -0.000092    0.971085    0.002021   -0.000000
 9          -0.000000    0.000000    0.000000   -0.000000   -0.000000    0.000003    0.000000   -0.002021    0.971085   -0.000000
 10          0.054392   -0.000000   -0.000001    0.000000    0.000000   -0.000000    0.000000    0.000000    0.000000    0.967729

 Coefficients of rotated reference functions:
 ============================================

 State      Coefficients
 1           0.966639   -0.000000   -0.000000    0.000000   -0.000000   -0.000000    0.000000    0.000000    0.000000    0.003322
 2          -0.000000    0.971264    0.000000   -0.000000   -0.000000    0.000000    0.000000   -0.000000   -0.000000    0.000000
 3          -0.000000    0.000000    0.971264    0.000000    0.000000    0.000000    0.000000    0.000000    0.000000   -0.000000
 4           0.000000   -0.000000    0.000000    0.971264   -0.000000   -0.000000    0.000000    0.000000   -0.000000   -0.000000
 5          -0.000000   -0.000000    0.000000   -0.000000    0.971264   -0.000000    0.000000    0.000000    0.000000    0.000000
 6          -0.000000    0.000000    0.000000   -0.000000   -0.000000    0.971264    0.000000    0.000000    0.000000   -0.000000
 7           0.000000    0.000000    0.000000    0.000000    0.000000    0.000000    0.971087   -0.000000    0.000000   -0.000000
 8           0.000000   -0.000000    0.000000    0.000000    0.000000    0.000000   -0.000000    0.971087    0.000000   -0.000000
 9           0.000000   -0.000000    0.000000   -0.000000    0.000000    0.000000    0.000000    0.000000    0.971087   -0.000000
 10          0.003322    0.000000   -0.000000   -0.000000    0.000000   -0.000000   -0.000000   -0.000000   -0.000000    0.969250


 RESULTS FOR STATE 1.1
 =====================

 Coefficient of reference function:   C(0) = 0.96547118 (fixed)   0.96665877 (relaxed)   0.96663916 (rotated)

 Energy contributions of configuration classes

 CLASS          SQ.NORM        ECORR1        ECORR2
 +++++++++++++++++++++++++++++++++++++++++++++++++++
 Internals    0.00005546   -0.00042908   -0.54223216
 Singles      0.01550154   -0.05797872   -0.06271217
 Pairs        0.05465849    0.04896426    0.01565729
 Total        1.07021549   -0.00944354   -0.58928704
 +++++++++++++++++++++++++++++++++++++++++++++++++++


 Reference energy                    -528.60753107
 Nuclear energy                         0.00000000
 Kinetic energy                       540.34153001
 One electron energy                 -730.92930079
 Two electron energy                  201.73116442
 Virial quotient                       -0.97937713
 Correlation energy                    -0.59060530
 !MRCI STATE 1.1 Energy              -529.198136371612

 Properties without orbital relaxation:

 !MRCI STATE 1.1 Dipole moment          0.00000000     0.00000000     0.00000000
 Dipole moment /Debye                   0.00000000     0.00000000     0.00000000

 Cluster corrected energies          -529.23960601 (Davidson, fixed reference)
 Cluster corrected energies          -529.23958037 (Davidson, relaxed reference)
 Cluster corrected energies          -529.23960601 (Davidson, rotated reference)

 Cluster corrected energies          -529.23641642 (Pople, fixed reference)
 Cluster corrected energies          -529.23639146 (Pople, relaxed reference)
 Cluster corrected energies          -529.23641642 (Pople, rotated reference)



 RESULTS FOR STATE 2.1
 =====================

 Maximum overlap with reference state  4

 Coefficient of reference function:   C(0) = 0.97126432 (fixed)   0.97130106 (relaxed)   0.97126432 (rotated)

 Energy contributions of configuration classes

 CLASS          SQ.NORM        ECORR1        ECORR2
 +++++++++++++++++++++++++++++++++++++++++++++++++++
 Internals    0.00010690   -0.00056290   -0.45889111
 Singles      0.01466959   -0.06148385   -0.06558904
 Pairs        0.04527053    0.00000000   -0.02339129
 Total        1.06004703   -0.06204674   -0.54787143
 +++++++++++++++++++++++++++++++++++++++++++++++++++


 Reference energy                    -528.16846639
 Nuclear energy                         0.00000000
 Kinetic energy                       539.63108463
 One electron energy                 -724.98875333
 Two electron energy                  196.27241551
 Virial quotient                       -0.97977369
 Correlation energy                    -0.54787143
 !MRCI STATE 2.1 Energy              -528.716337823246

 Properties without orbital relaxation:

 !MRCI STATE 2.1 Dipole moment          0.00000000     0.00000000     0.00000000
 Dipole moment /Debye                   0.00000000     0.00000000     0.00000000

 Cluster corrected energies          -528.74923587 (Davidson, fixed reference)
 Cluster corrected energies          -528.74919194 (Davidson, relaxed reference)
 Cluster corrected energies          -528.74923587 (Davidson, rotated reference)

 Cluster corrected energies          -528.74646811 (Pople, fixed reference)
 Cluster corrected energies          -528.74642601 (Pople, relaxed reference)
 Cluster corrected energies          -528.74646811 (Pople, rotated reference)



 RESULTS FOR STATE 3.1
 =====================

 Maximum overlap with reference state  2

 Coefficient of reference function:   C(0) = 0.97101828 (fixed)   0.97130089 (relaxed)   0.97126416 (rotated)

 Energy contributions of configuration classes

 CLASS          SQ.NORM        ECORR1        ECORR2
 +++++++++++++++++++++++++++++++++++++++++++++++++++
 Internals    0.00010690   -0.00056289   -0.45889008
 Singles      0.01466998   -0.06148479   -0.06558926
 Pairs        0.04527050    0.00000002   -0.02339209
 Total        1.06004738   -0.06204766   -0.54787142
 +++++++++++++++++++++++++++++++++++++++++++++++++++


 Reference energy                    -528.16846639
 Nuclear energy                         0.00000000
 Kinetic energy                       539.63103578
 One electron energy                 -724.98875279
 Two electron energy                  196.27241498
 Virial quotient                       -0.97977378
 Correlation energy                    -0.54787142
 !MRCI STATE 3.1 Energy              -528.716337814448

 Properties without orbital relaxation:

 !MRCI STATE 3.1 Dipole moment          0.00000000     0.00000000     0.00000000
 Dipole moment /Debye                   0.00000000     0.00000000     0.00000000

 Cluster corrected energies          -528.74923606 (Davidson, fixed reference)
 Cluster corrected energies          -528.74919213 (Davidson, relaxed reference)
 Cluster corrected energies          -528.74923606 (Davidson, rotated reference)

 Cluster corrected energies          -528.74646828 (Pople, fixed reference)
 Cluster corrected energies          -528.74642619 (Pople, relaxed reference)
 Cluster corrected energies          -528.74646828 (Pople, rotated reference)



 RESULTS FOR STATE 4.1
 =====================

 Maximum overlap with reference state  5

 Coefficient of reference function:   C(0) = 0.97126381 (fixed)   0.97130088 (relaxed)   0.97126415 (rotated)

 Energy contributions of configuration classes

 CLASS          SQ.NORM        ECORR1        ECORR2
 +++++++++++++++++++++++++++++++++++++++++++++++++++
 Internals    0.00010690   -0.00056290   -0.45889074
 Singles      0.01466976   -0.06148405   -0.06558912
 Pairs        0.04527074    0.00000000   -0.02339156
 Total        1.06004740   -0.06204694   -0.54787142
 +++++++++++++++++++++++++++++++++++++++++++++++++++


 Reference energy                    -528.16846639
 Nuclear energy                         0.00000000
 Kinetic energy                       539.63108114
 One electron energy                 -724.98874926
 Two electron energy                  196.27241145
 Virial quotient                       -0.97977369
 Correlation energy                    -0.54787142
 !MRCI STATE 4.1 Energy              -528.716337811796

 Properties without orbital relaxation:

 !MRCI STATE 4.1 Dipole moment          0.00000000     0.00000000     0.00000000
 Dipole moment /Debye                   0.00000000     0.00000000     0.00000000

 Cluster corrected energies          -528.74923607 (Davidson, fixed reference)
 Cluster corrected energies          -528.74919214 (Davidson, relaxed reference)
 Cluster corrected energies          -528.74923607 (Davidson, rotated reference)

 Cluster corrected energies          -528.74646829 (Pople, fixed reference)
 Cluster corrected energies          -528.74642620 (Pople, relaxed reference)
 Cluster corrected energies          -528.74646829 (Pople, rotated reference)



 RESULTS FOR STATE 5.1
 =====================

 Maximum overlap with reference state  6

 Coefficient of reference function:   C(0) = 0.97126388 (fixed)   0.97130096 (relaxed)   0.97126422 (rotated)

 Energy contributions of configuration classes

 CLASS          SQ.NORM        ECORR1        ECORR2
 +++++++++++++++++++++++++++++++++++++++++++++++++++
 Internals    0.00010690   -0.00056290   -0.45889090
 Singles      0.01466967   -0.06148395   -0.06558907
 Pairs        0.04527066   -0.00000000   -0.02339144
 Total        1.06004724   -0.06204684   -0.54787141
 +++++++++++++++++++++++++++++++++++++++++++++++++++


 Reference energy                    -528.16846639
 Nuclear energy                         0.00000000
 Kinetic energy                       539.63108371
 One electron energy                 -724.98875057
 Two electron energy                  196.27241277
 Virial quotient                       -0.97977369
 Correlation energy                    -0.54787141
 !MRCI STATE 5.1 Energy              -528.716337802481

 Properties without orbital relaxation:

 !MRCI STATE 5.1 Dipole moment          0.00000000     0.00000000     0.00000000
 Dipole moment /Debye                   0.00000000     0.00000000     0.00000000

 Cluster corrected energies          -528.74923597 (Davidson, fixed reference)
 Cluster corrected energies          -528.74919204 (Davidson, relaxed reference)
 Cluster corrected energies          -528.74923597 (Davidson, rotated reference)

 Cluster corrected energies          -528.74646820 (Pople, fixed reference)
 Cluster corrected energies          -528.74642610 (Pople, relaxed reference)
 Cluster corrected energies          -528.74646820 (Pople, rotated reference)



 RESULTS FOR STATE 6.1
 =====================

 Maximum overlap with reference state  3

 Coefficient of reference function:   C(0) = 0.97101799 (fixed)   0.97130062 (relaxed)   0.97126388 (rotated)

 Energy contributions of configuration classes

 CLASS          SQ.NORM        ECORR1        ECORR2
 +++++++++++++++++++++++++++++++++++++++++++++++++++
 Internals    0.00010692   -0.00056289   -0.45888932
 Singles      0.01466992   -0.06148452   -0.06558911
 Pairs        0.04527115   -0.00000053   -0.02339275
 Total        1.06004799   -0.06204795   -0.54787119
 +++++++++++++++++++++++++++++++++++++++++++++++++++


 Reference energy                    -528.16846639
 Nuclear energy                         0.00000000
 Kinetic energy                       539.63105066
 One electron energy                 -724.98876450
 Two electron energy                  196.27242692
 Virial quotient                       -0.97977375
 Correlation energy                    -0.54787119
 !MRCI STATE 6.1 Energy              -528.716337578868

 Properties without orbital relaxation:

 !MRCI STATE 6.1 Dipole moment          0.00000000     0.00000000     0.00000000
 Dipole moment /Debye                   0.00000000     0.00000000     0.00000000

 Cluster corrected energies          -528.74923614 (Davidson, fixed reference)
 Cluster corrected energies          -528.74919220 (Davidson, relaxed reference)
 Cluster corrected energies          -528.74923614 (Davidson, rotated reference)

 Cluster corrected energies          -528.74646835 (Pople, fixed reference)
 Cluster corrected energies          -528.74642625 (Pople, relaxed reference)
 Cluster corrected energies          -528.74646835 (Pople, rotated reference)



 RESULTS FOR STATE 7.1
 =====================

 Coefficient of reference function:   C(0) = 0.97108740 (fixed)   0.97111706 (relaxed)   0.97108741 (rotated)

 Energy contributions of configuration classes

 CLASS          SQ.NORM        ECORR1        ECORR2
 +++++++++++++++++++++++++++++++++++++++++++++++++++
 Internals    0.00009125   -0.00054802   -0.45836275
 Singles      0.01517488   -0.06247658   -0.06677168
 Pairs        0.04516717    0.00000000   -0.02335522
 Total        1.06043329   -0.06302461   -0.54848966
 +++++++++++++++++++++++++++++++++++++++++++++++++++


 Reference energy                    -528.16456074
 Nuclear energy                         0.00000000
 Kinetic energy                       539.63089542
 One electron energy                 -724.98292821
 Two electron energy                  196.26987781
 Virial quotient                       -0.97976794
 Correlation energy                    -0.54848966
 !MRCI STATE 7.1 Energy              -528.713050393372

 Properties without orbital relaxation:

 !MRCI STATE 7.1 Dipole moment          0.00000000     0.00000000     0.00000000
 Dipole moment /Debye                   0.00000000     0.00000000     0.00000000

 Cluster corrected energies          -528.74619743 (Davidson, fixed reference)
 Cluster corrected energies          -528.74616191 (Davidson, relaxed reference)
 Cluster corrected energies          -528.74619743 (Davidson, rotated reference)

 Cluster corrected energies          -528.74341775 (Pople, fixed reference)
 Cluster corrected energies          -528.74338370 (Pople, relaxed reference)
 Cluster corrected energies          -528.74341775 (Pople, rotated reference)



 RESULTS FOR STATE 8.1
 =====================

 Coefficient of reference function:   C(0) = 0.97108511 (fixed)   0.97111687 (relaxed)   0.97108722 (rotated)

 Energy contributions of configuration classes

 CLASS          SQ.NORM        ECORR1        ECORR2
 +++++++++++++++++++++++++++++++++++++++++++++++++++
 Internals    0.00009125   -0.00054802   -0.45836232
 Singles      0.01517507   -0.06247680   -0.06677176
 Pairs        0.04516739    0.00000000   -0.02335553
 Total        1.06043371   -0.06302483   -0.54848961
 +++++++++++++++++++++++++++++++++++++++++++++++++++


 Reference energy                    -528.16456074
 Nuclear energy                         0.00000000
 Kinetic energy                       539.63088738
 One electron energy                 -724.98292305
 Two electron energy                  196.26987270
 Virial quotient                       -0.97976795
 Correlation energy                    -0.54848961
 !MRCI STATE 8.1 Energy              -528.713050346670

 Properties without orbital relaxation:

 !MRCI STATE 8.1 Dipole moment          0.00000000     0.00000000     0.00000000
 Dipole moment /Debye                   0.00000000     0.00000000     0.00000000

 Cluster corrected energies          -528.74619761 (Davidson, fixed reference)
 Cluster corrected energies          -528.74616209 (Davidson, relaxed reference)
 Cluster corrected energies          -528.74619761 (Davidson, rotated reference)

 Cluster corrected energies          -528.74341792 (Pople, fixed reference)
 Cluster corrected energies          -528.74338387 (Pople, relaxed reference)
 Cluster corrected energies          -528.74341792 (Pople, rotated reference)



 RESULTS FOR STATE 9.1
 =====================

 Coefficient of reference function:   C(0) = 0.97108521 (fixed)   0.97111697 (relaxed)   0.97108732 (rotated)

 Energy contributions of configuration classes

 CLASS          SQ.NORM        ECORR1        ECORR2
 +++++++++++++++++++++++++++++++++++++++++++++++++++
 Internals    0.00009125   -0.00054802   -0.45836254
 Singles      0.01517496   -0.06247667   -0.06677170
 Pairs        0.04516729    0.00000000   -0.02335537
 Total        1.06043349   -0.06302469   -0.54848961
 +++++++++++++++++++++++++++++++++++++++++++++++++++


 Reference energy                    -528.16456074
 Nuclear energy                         0.00000000
 Kinetic energy                       539.63089178
 One electron energy                 -724.98292539
 Two electron energy                  196.26987504
 Virial quotient                       -0.97976795
 Correlation energy                    -0.54848961
 !MRCI STATE 9.1 Energy              -528.713050345378

 Properties without orbital relaxation:

 !MRCI STATE 9.1 Dipole moment          0.00000000     0.00000000     0.00000000
 Dipole moment /Debye                   0.00000000     0.00000000     0.00000000

 Cluster corrected energies          -528.74619749 (Davidson, fixed reference)
 Cluster corrected energies          -528.74616197 (Davidson, relaxed reference)
 Cluster corrected energies          -528.74619749 (Davidson, rotated reference)

 Cluster corrected energies          -528.74341780 (Pople, fixed reference)
 Cluster corrected energies          -528.74338375 (Pople, relaxed reference)
 Cluster corrected energies          -528.74341780 (Pople, rotated reference)



 RESULTS FOR STATE 10.1
 ======================

 Coefficient of reference function:   C(0) = 0.96772853 (fixed)   0.96933665 (relaxed)   0.96925021 (rotated)

 Energy contributions of configuration classes

 CLASS          SQ.NORM        ECORR1        ECORR2
 +++++++++++++++++++++++++++++++++++++++++++++++++++
 Internals    0.00020797   -0.00063167   -0.00143758
 Singles      0.01856613   -0.06732807   -0.07301114
 Pairs        0.04568308   -0.49072575   -0.48501899
 Total        1.06445718   -0.55868549   -0.55946771
 +++++++++++++++++++++++++++++++++++++++++++++++++++


 Reference energy                    -528.13542654
 Nuclear energy                         0.00000000
 Kinetic energy                       539.76198990
 One electron energy                 -725.27865945
 Two electron energy                  196.58508346
 Virial quotient                       -0.97949390
 Correlation energy                    -0.55814945
 !MRCI STATE 10.1 Energy             -528.693575991160

 Properties without orbital relaxation:

 !MRCI STATE 10.1 Dipole moment         0.00000000     0.00000000     0.00000000
 Dipole moment /Debye                   0.00000000     0.00000000     0.00000000

 Cluster corrected energies          -528.72955273 (Davidson, fixed reference)
 Cluster corrected energies          -528.72944677 (Davidson, relaxed reference)
 Cluster corrected energies          -528.72955273 (Davidson, rotated reference)

 Cluster corrected energies          -528.72663818 (Pople, fixed reference)
 Cluster corrected energies          -528.72653598 (Pople, relaxed reference)
 Cluster corrected energies          -528.72663818 (Pople, rotated reference)



 **********************************************************************************************************************************
 DATASETS  * FILE   NREC   LENGTH (MB)   RECORD NAMES
              1      24       55.63       500      610      700      900      950      970     1000      129      960     1700   
                                          VAR    BASINP    GEOM    SYMINP    ZMAT    AOBASIS   BASIS     P2S    ABASIS    OPER   
                                         1101     1401     1411     1412     1650     1100     1400     1410     1200     1210   
                                          SR      EKINR    POTR     PVPR    MOLCAS      S      EKIN      POT      H0       H01  
                                         1080     1600     1380     1700(1)
                                         AOSYM     SMH     JKOP     OPER   

              2       6     1629.09       700     1000      520     2100     2140     5201   
                                         GEOM     BASIS   MCVARS     RHF     MCSCF    MRCI   

 PROGRAMS   *        TOTAL        CI     MULTI   RHF-SCF       INT
 CPU TIMES  *      2865.56   2853.19      8.20      0.39      3.42
 REAL TIME  *      3034.68 SEC
 DISK USED  *         1.65 GB (local),       49.85 GB (total)
 SF USED    *        15.83 GB
 GA USED    *         0.00 MB       (max)       0.00 MB       (current)
 **********************************************************************************************************************************
 SETTING HLSDIAG(1)     =      -529.23960601  AU                              
 SETTING HLSDIAG(2)     =      -528.74923587  AU                              
 SETTING HLSDIAG(3)     =      -528.74923606  AU                              
 SETTING HLSDIAG(4)     =      -528.74923607  AU                              
 SETTING HLSDIAG(5)     =      -528.74923597  AU                              
 SETTING HLSDIAG(6)     =      -528.74923614  AU                              
 SETTING HLSDIAG(7)     =      -528.74619743  AU                              
 SETTING HLSDIAG(8)     =      -528.74619761  AU                              
 SETTING HLSDIAG(9)     =      -528.74619749  AU                              
 SETTING HLSDIAG(10)    =      -528.72955273  AU                              


 PROGRAM * CI (Multireference internally contracted CI)     Authors: H.-J. Werner, P.J. Knowles, 1987


 Convergence thresholds:  THRVAR = 1.00D-08  THRDEN = 1.00D-06

 Number of optimized states: 9  Roots:    1   2   3   4   5   6   7   8   9
 Number of reference states: 9  Roots:    1   2   3   4   5   6   7   8   9

 Reference symmetry:                   1   Triplet 
 Number of electrons:                 18
 Maximum number of shells:             6
 Maximum number of spin couplings:   297

 Reference space:      533 conf     1176 CSFs
 N elec internal:    12717 conf    50904 CSFs
 N-1 el internal:    15304 conf   114396 CSFs
 N-2 el internal:    10058 conf   130322 CSFs

 Number of electrons in valence space:                     16
 Maximum number of open shell orbitals in reference space:  8
 Maximum number of open shell orbitals in internal spaces: 12


 Number of core orbitals:           1 (   1   0 )
 Number of closed-shell orbitals:   4 (   1   3 )
 Number of active  orbitals:        8 (   2   6 )
 Number of external orbitals:     204 (  98 106 )

 Molecular orbitals read from record     2140.2  Type=MCSCF/NATURAL (state averaged)

 Coulomb and exchange operators available. No transformation done.


 Number of p-space configurations:   9

 Reference wavefunction optimized for reference space (refopt=1)

 State     Reference Energy 
     1      -528.18170857
     2      -528.17118127
     3      -528.17118127
     4      -528.17118127
     5      -528.17118127
     6      -528.17118127
     7      -528.16482226
     8      -528.16482226
     9      -528.16482226

 ?WARNING: SMALL EIGENVALUE OF PAIR OVERLAP MATRIX:  0.1070D-06

 ?WARNING: SMALL EIGENVALUE OF PAIR OVERLAP MATRIX:  0.4225D-06

 Number of blocks in overlap matrix:   210   Smallest eigenvalue:  0.11D-06
 Number of N-2 electron functions:    1252
 Number of N-1 electron functions:  114396

 Number of internal configurations:                25428
 Number of singly external configurations:      11670024
 Number of doubly external configurations:      13036816
 Total number of contracted configurations:     24732268
 Total number of uncontracted configurations: 1365208646

[...]
  8  1     8    1  |0 0>          0.00%    0.00%    0.83%    0.00%    0.00%    0.00%    0.00%    0.00%
  9  1     9    1  |0 0>          0.00%    0.83%    0.00%    0.00%    0.00%    0.00%    0.00%    0.00%
 10  1    10    1  |0 0>          0.00%    0.00%    0.00%    0.00%    0.00%    0.00%    0.00%    0.00%
 11  1     1    1  |1 1>+         0.00%    0.00%    0.00%   97.16%    0.00%    0.00%    0.00%    0.00%
 12  1     2    1  |1 1>+         0.00%    0.00%    0.00%    0.00%   57.45%    0.00%    0.00%    2.55%
 13  1     3    1  |1 1>+         0.00%    0.00%    0.00%    0.00%    1.33%    0.00%    0.00%   32.01%
 14  1     4    1  |1 1>+         0.00%    0.00%    0.00%    0.00%    0.00%   51.94%    0.00%    0.00%
 15  1     5    1  |1 1>+         0.00%    0.00%    0.00%    0.00%    0.00%    0.00%   53.31%    0.00%
 16  1     6    1  |1 1>+         0.00%    0.00%    0.00%    0.00%    0.00%    0.00%    0.00%    0.00%
 17  1     7    1  |1 1>+         0.00%    0.00%    0.00%    0.00%    0.00%    0.00%    0.00%    0.00%
 18  1     8    1  |1 1>+         0.00%    1.00%    0.00%    0.00%    0.00%    0.00%    0.00%    0.00%
 19  1     9    1  |1 1>+         0.00%    0.00%    1.00%    0.00%    0.00%    0.00%    0.00%    0.00%
 20  1     1    1  |1 0>          0.00%    0.00%   97.16%    0.00%    0.00%    0.00%    0.00%    0.00%
 21  1     2    1  |1 0>          0.00%    0.00%    0.00%    0.00%    0.00%    0.00%   39.70%    0.00%
 22  1     3    1  |1 0>          0.00%    0.00%    0.00%    0.00%    0.00%    0.00%    4.16%    0.00%
 23  1     4    1  |1 0>          0.00%    0.00%    0.00%    0.00%    0.00%    0.00%    0.00%    0.00%
 24  1     5    1  |1 0>          0.00%    0.00%    0.00%    0.00%    9.78%    0.00%    0.00%   43.55%
 25  1     6    1  |1 0>          0.00%    0.00%    0.00%    0.00%    0.00%    0.44%    0.00%    0.00%
 26  1     7    1  |1 0>          0.00%    1.00%    0.00%    0.00%    0.00%    0.00%    0.00%    0.00%
 27  1     8    1  |1 0>          0.00%    0.00%    0.00%    0.00%    0.00%    0.00%    0.00%    0.00%
 28  1     9    1  |1 0>          0.00%    0.00%    0.00%    1.00%    0.00%    0.00%    0.00%    0.00%
 29  1     1    1  |1 1>-         0.00%   97.16%    0.00%    0.00%    0.00%    0.00%    0.00%    0.00%
 30  1     2    1  |1 1>-         0.00%    0.00%    0.00%    0.00%    0.00%   39.39%    0.00%    0.00%
 31  1     3    1  |1 1>-         0.00%    0.00%    0.00%    0.00%    0.00%    8.23%    0.00%    0.00%
 32  1     4    1  |1 1>-         0.00%    0.00%    0.00%    0.00%   31.44%    0.00%    0.00%   21.89%
 33  1     5    1  |1 1>-         0.00%    0.00%    0.00%    0.00%    0.00%    0.00%    0.00%    0.00%
 34  1     6    1  |1 1>-         0.00%    0.00%    0.00%    0.00%    0.00%    0.00%    2.84%    0.00%
 35  1     7    1  |1 1>-         0.00%    0.00%    1.00%    0.00%    0.00%    0.00%    0.00%    0.00%
 36  1     8    1  |1 1>-         0.00%    0.00%    0.00%    1.00%    0.00%    0.00%    0.00%    0.00%
 37  1     9    1  |1 1>-         0.00%    0.00%    0.00%    0.00%    0.00%    0.00%    0.00%    0.00%

   Total
 Nr Sym  State Sym Spin / Nr.      9       10       11       12       13       14       15       16

  1  1     1    1  |0 0>          0.00%    0.00%    0.00%    0.00%    0.00%    0.00%    0.00%    0.00%
  2  1     2    1  |0 0>          0.00%    0.00%    0.00%    0.00%    0.00%    0.00%   31.38%    0.00%
  3  1     3    1  |0 0>          0.00%    0.00%    0.00%    0.00%    0.72%    0.00%    0.00%   30.65%
  4  1     4    1  |0 0>          0.00%    0.00%    0.00%   31.37%    0.00%    0.00%    0.00%    0.00%
  5  1     5    1  |0 0>          0.00%    0.00%    0.00%    0.00%    0.00%   31.37%    0.00%    0.00%
  6  1     6    1  |0 0>          0.00%    0.00%    0.00%    0.00%   30.65%    0.00%    0.00%    0.72%
  7  1     7    1  |0 0>          0.00%    0.00%    0.00%    0.00%    0.00%    0.00%    0.00%    0.00%
  8  1     8    1  |0 0>          0.00%    0.00%    0.00%    0.00%    0.00%    0.00%    0.00%    0.00%
  9  1     9    1  |0 0>          0.00%    0.00%    0.00%    0.00%    0.00%    0.00%    0.00%    0.00%
 10  1    10    1  |0 0>          0.00%    0.00%    0.00%    0.00%    0.00%    0.00%    0.00%    0.00%
 11  1     1    1  |1 1>+         0.00%    0.00%    0.00%    0.00%    0.00%    0.00%    0.00%    0.00%
 12  1     2    1  |1 1>+         0.00%    0.00%    0.00%    0.00%    0.00%    0.00%    0.01%    0.00%
 13  1     3    1  |1 1>+         0.00%    0.00%    0.00%    0.00%    0.00%    0.00%   44.65%    0.00%
 14  1     4    1  |1 1>+         0.00%    0.00%    1.38%    0.00%    0.00%   11.17%    0.00%    0.00%
 15  1     5    1  |1 1>+         0.00%    0.02%    0.00%   11.17%    0.00%    0.00%    0.00%    0.00%
 16  1     6    1  |1 1>+        33.33%    0.00%    0.00%    0.00%    0.75%    0.00%    0.00%   43.91%
 17  1     7    1  |1 1>+         0.00%    0.00%    0.00%    0.00%    1.08%    0.00%    0.00%    0.02%
 18  1     8    1  |1 1>+         0.00%    0.00%    0.00%    0.00%    0.00%    0.82%    0.00%    0.00%
 19  1     9    1  |1 1>+         0.00%    0.00%    0.00%    0.82%    0.00%    0.00%    0.00%    0.00%
 20  1     1    1  |1 0>          0.00%    0.00%    0.00%    0.00%    0.00%    0.00%    0.00%    0.00%
 21  1     2    1  |1 0>          0.00%    0.04%    0.00%   33.93%    0.00%    0.00%    0.00%    0.00%
 22  1     3    1  |1 0>          0.00%   49.44%    0.00%   10.72%    0.00%    0.00%    0.00%    0.00%
 23  1     4    1  |1 0>         33.34%    0.00%    0.00%    0.00%   38.09%    0.00%    0.00%    6.56%
 24  1     5    1  |1 0>          0.00%    0.00%    0.00%    0.00%    0.00%    0.00%   11.16%    0.00%
 25  1     6    1  |1 0>          0.00%    0.00%   52.89%    0.00%    0.00%   11.17%    0.00%    0.00%
 26  1     7    1  |1 0>          0.00%    0.00%    0.00%    0.00%    0.00%    0.82%    0.00%    0.00%
 27  1     8    1  |1 0>          0.00%    0.00%    0.00%    0.00%    0.16%    0.00%    0.00%    0.93%
 28  1     9    1  |1 0>          0.00%    0.00%    0.00%    0.00%    0.00%    0.00%    0.82%    0.00%
 29  1     1    1  |1 1>-         0.00%    0.00%    0.00%    0.00%    0.00%    0.00%    0.00%    0.00%
 30  1     2    1  |1 1>-         0.00%    0.00%    0.89%    0.00%    0.00%   33.04%    0.00%    0.00%
 31  1     3    1  |1 1>-         0.00%    0.00%   44.84%    0.00%    0.00%   11.61%    0.00%    0.00%
 32  1     4    1  |1 1>-         0.00%    0.00%    0.00%    0.00%    0.00%    0.00%   11.16%    0.00%
 33  1     5    1  |1 1>-        33.34%    0.00%    0.00%    0.00%   28.14%    0.00%    0.00%   16.51%
 34  1     6    1  |1 1>-         0.00%   50.49%    0.00%   11.17%    0.00%    0.00%    0.00%    0.00%
 35  1     7    1  |1 1>-         0.00%    0.00%    0.00%    0.82%    0.00%    0.00%    0.00%    0.00%
 36  1     8    1  |1 1>-         0.00%    0.00%    0.00%    0.00%    0.00%    0.00%    0.82%    0.00%
 37  1     9    1  |1 1>-         0.00%    0.00%    0.00%    0.00%    0.40%    0.00%    0.00%    0.69%

   Total
 Nr Sym  State Sym Spin / Nr.     17       18       19       20       21       22       23       24

  1  1     1    1  |0 0>          0.00%    0.00%    0.00%    0.00%    0.00%    0.00%    0.00%    0.00%
  2  1     2    1  |0 0>          0.00%    0.00%    0.00%    0.00%    0.00%    0.00%    0.00%   43.34%
  3  1     3    1  |0 0>          0.00%    0.00%    0.00%    0.02%    0.00%    0.00%   43.31%    0.00%
  4  1     4    1  |0 0>          0.00%    0.00%    0.00%    0.00%   43.32%    0.00%    0.00%    0.00%
  5  1     5    1  |0 0>          0.00%    0.00%    0.00%    0.00%    0.00%   43.32%    0.00%    0.00%
  6  1     6    1  |0 0>          0.00%    0.00%    0.00%   43.29%    0.00%    0.00%    0.02%    0.00%
  7  1     7    1  |0 0>          0.00%    0.00%   24.02%    0.00%    0.00%    0.00%    0.00%    0.00%
  8  1     8    1  |0 0>         24.02%    0.00%    0.00%    0.00%    0.00%    0.00%    0.00%    0.00%
  9  1     9    1  |0 0>          0.00%   24.02%    0.00%    0.00%    0.00%    0.00%    0.00%    0.00%
 10  1    10    1  |0 0>          0.00%    0.00%    0.00%    0.00%    0.00%    0.00%    0.00%    0.00%
 11  1     1    1  |1 1>+         0.00%    0.00%    0.00%    0.00%    0.00%    0.00%    0.00%    0.00%
 12  1     2    1  |1 1>+         0.00%    0.00%   25.76%    0.00%    0.00%    0.00%    0.00%    0.00%
 13  1     3    1  |1 1>+         0.00%    0.00%    0.00%    0.00%    0.00%    0.00%    0.00%    7.98%
 14  1     4    1  |1 1>+         0.00%   19.32%    0.00%    0.00%    0.00%    1.98%    0.00%    0.00%
 15  1     5    1  |1 1>+        19.32%    0.00%    0.00%    0.00%    1.98%    0.00%    0.00%    0.00%
 16  1     6    1  |1 1>+         0.00%    0.00%    0.00%    0.00%    0.00%    0.00%    7.98%    0.00%
 17  1     7    1  |1 1>+         0.00%    0.00%    0.00%   29.85%    0.00%    0.00%    0.00%    0.00%
 18  1     8    1  |1 1>+         0.00%    5.77%    0.00%    0.00%    0.00%   22.35%    0.00%    0.00%
 19  1     9    1  |1 1>+         5.77%    0.00%    0.00%    0.00%   22.35%    0.00%    0.00%    0.00%
 20  1     1    1  |1 0>          0.00%    0.00%    0.00%    0.00%    0.00%    0.00%    0.00%    0.00%
 21  1     2    1  |1 0>          6.19%    0.00%    0.00%    0.00%    6.05%    0.00%    0.00%    0.00%
 22  1     3    1  |1 0>         19.57%    0.00%    0.00%    0.00%    1.92%    0.00%    0.00%    0.00%
 23  1     4    1  |1 0>          0.00%    0.00%    0.00%    5.97%    0.00%    0.00%    2.00%    0.00%
 24  1     5    1  |1 0>          0.00%    0.00%   19.33%    0.00%    0.00%    0.00%    0.00%    1.99%
 25  1     6    1  |1 0>          0.00%   19.32%    0.00%    0.00%    0.00%    2.00%    0.00%    0.00%
 26  1     7    1  |1 0>          0.00%    5.80%    0.00%    0.00%    0.00%   22.37%    0.00%    0.00%
 27  1     8    1  |1 0>          0.00%    0.00%    0.00%    7.48%    0.00%    0.00%   22.31%    0.00%
 28  1     9    1  |1 0>          0.00%    0.00%    5.78%    0.00%    0.00%    0.00%    0.00%   22.35%
 29  1     1    1  |1 1>-         0.00%    0.00%    0.00%    0.00%    0.00%    0.00%    0.00%    0.00%
 30  1     2    1  |1 1>-         0.00%    6.70%    0.00%    0.00%    0.00%    5.89%    0.00%    0.00%
 31  1     3    1  |1 1>-         0.00%   19.06%    0.00%    0.00%    0.00%    2.08%    0.00%    0.00%
 32  1     4    1  |1 1>-         0.00%    0.00%   19.33%    0.00%    0.00%    0.00%    0.00%    1.99%
 33  1     5    1  |1 1>-         0.00%    0.00%    0.00%    5.98%    0.00%    0.00%    1.99%    0.00%
 34  1     6    1  |1 1>-        19.32%    0.00%    0.00%    0.00%    2.00%    0.00%    0.00%    0.00%
 35  1     7    1  |1 1>-         5.80%    0.00%    0.00%    0.00%   22.37%    0.00%    0.00%    0.00%
 36  1     8    1  |1 1>-         0.00%    0.00%    5.78%    0.00%    0.00%    0.00%    0.00%   22.35%
 37  1     9    1  |1 1>-         0.00%    0.00%    0.00%    7.41%    0.00%    0.00%   22.38%    0.00%

   Total
 Nr Sym  State Sym Spin / Nr.     25       26       27       28       29       30       31       32

  1  1     1    1  |0 0>          0.00%    0.00%    0.00%    0.00%    0.00%    0.00%    0.00%    0.00%
  2  1     2    1  |0 0>          0.00%    0.00%    0.00%    0.00%    0.00%    0.00%    0.00%   25.29%
  3  1     3    1  |0 0>          0.00%    0.00%    0.00%    0.02%    0.00%    0.00%   25.27%    0.00%
  4  1     4    1  |0 0>          0.00%    0.00%    0.00%    0.00%   25.31%    0.00%    0.00%    0.00%
  5  1     5    1  |0 0>          0.00%    0.00%    0.00%    0.00%    0.00%   25.31%    0.00%    0.00%
  6  1     6    1  |0 0>          0.00%    0.00%    0.00%   25.29%    0.00%    0.00%    0.02%    0.00%
  7  1     7    1  |0 0>          0.00%    0.00%   49.86%    0.00%    0.00%    0.00%    0.00%    0.00%
  8  1     8    1  |0 0>         49.83%    0.00%    0.00%    0.00%    0.00%    0.00%    0.00%    0.00%
  9  1     9    1  |0 0>          0.00%   49.83%    0.00%    0.00%    0.00%    0.00%    0.00%    0.00%
 10  1    10    1  |0 0>          0.00%    0.00%    0.00%    0.00%    0.00%    0.00%    0.00%    0.00%
 11  1     1    1  |1 1>+         0.00%    0.00%    0.01%    0.00%    0.00%    0.00%    0.00%    0.00%
 12  1     2    1  |1 1>+         0.00%    0.00%   14.12%    0.00%    0.00%    0.00%    0.00%    0.00%
 13  1     3    1  |1 1>+         0.00%    0.00%    0.00%    0.00%    0.00%    0.00%    0.00%   14.03%
 14  1     4    1  |1 1>+         0.00%   10.61%    0.00%    0.00%    0.00%    3.50%    0.00%    0.00%
 15  1     5    1  |1 1>+        10.61%    0.00%    0.00%    0.00%    3.50%    0.00%    0.00%    0.00%
 16  1     6    1  |1 1>+         0.00%    0.00%    0.00%    0.00%    0.00%    0.00%   14.03%    0.00%
 17  1     7    1  |1 1>+         0.00%    0.00%    0.00%   36.18%    0.00%    0.00%    0.00%    0.00%
 18  1     8    1  |1 1>+         0.00%    7.40%    0.00%    0.00%    0.00%   26.76%    0.00%    0.00%
 19  1     9    1  |1 1>+         7.40%    0.00%    0.00%    0.00%   26.76%    0.00%    0.00%    0.00%
 20  1     1    1  |1 0>          0.01%    0.00%    0.00%    0.00%    0.00%    0.00%    0.00%    0.00%
 21  1     2    1  |1 0>          3.41%    0.00%    0.00%    0.00%   10.66%    0.00%    0.00%    0.00%
 22  1     3    1  |1 0>         10.72%    0.00%    0.00%    0.00%    3.38%    0.00%    0.00%    0.00%
 23  1     4    1  |1 0>          0.00%    0.00%    0.00%   10.59%    0.00%    0.00%    3.45%    0.00%
 24  1     5    1  |1 0>          0.00%    0.00%   10.59%    0.00%    0.00%    0.00%    0.00%    3.51%
 25  1     6    1  |1 0>          0.00%   10.58%    0.00%    0.00%    0.00%    3.52%    0.00%    0.00%
 26  1     7    1  |1 0>          0.00%    7.44%    0.00%    0.00%    0.00%   26.87%    0.00%    0.00%
 27  1     8    1  |1 0>          0.00%    0.00%    0.00%    8.58%    0.00%    0.00%   26.97%    0.00%
 28  1     9    1  |1 0>          0.00%    0.00%    7.41%    0.00%    0.00%    0.00%    0.00%   26.83%
 29  1     1    1  |1 1>-         0.00%    0.01%    0.00%    0.00%    0.00%    0.00%    0.00%    0.00%
 30  1     2    1  |1 1>-         0.00%    3.69%    0.00%    0.00%    0.00%   10.38%    0.00%    0.00%
 31  1     3    1  |1 1>-         0.00%   10.44%    0.00%    0.00%    0.00%    3.66%    0.00%    0.00%
 32  1     4    1  |1 1>-         0.00%    0.00%   10.59%    0.00%    0.00%    0.00%    0.00%    3.51%
 33  1     5    1  |1 1>-         0.00%    0.00%    0.00%   10.48%    0.00%    0.00%    3.56%    0.00%
 34  1     6    1  |1 1>-        10.58%    0.00%    0.00%    0.00%    3.52%    0.00%    0.00%    0.00%
 35  1     7    1  |1 1>-         7.44%    0.00%    0.00%    0.00%   26.87%    0.00%    0.00%    0.00%
 36  1     8    1  |1 1>-         0.00%    0.00%    7.41%    0.00%    0.00%    0.00%    0.00%   26.83%
 37  1     9    1  |1 1>-         0.00%    0.00%    0.00%    8.86%    0.00%    0.00%   26.69%    0.00%

   Total
 Nr Sym  State Sym Spin / Nr.     33       34       35       36       37

  1  1     1    1  |0 0>          0.00%    0.00%    0.00%    0.00%    0.00%
  2  1     2    1  |0 0>          0.00%    0.00%    0.00%    0.00%    0.00%
  3  1     3    1  |0 0>          0.00%    0.00%    0.00%    0.00%    0.00%
  4  1     4    1  |0 0>          0.00%    0.00%    0.00%    0.00%    0.00%
  5  1     5    1  |0 0>          0.00%    0.00%    0.00%    0.00%    0.00%
  6  1     6    1  |0 0>          0.00%    0.00%    0.00%    0.00%    0.00%
  7  1     7    1  |0 0>          0.00%    0.00%    0.00%   25.28%    0.00%
  8  1     8    1  |0 0>          0.00%   25.32%    0.00%    0.00%    0.00%
  9  1     9    1  |0 0>          0.00%    0.00%   25.32%    0.00%    0.00%
 10  1    10    1  |0 0>          3.61%    0.00%    0.00%    0.00%   96.39%
 11  1     1    1  |1 1>+         0.00%    0.00%    0.00%    2.82%    0.00%
 12  1     2    1  |1 1>+         0.00%    0.00%    0.00%    0.11%    0.00%
 13  1     3    1  |1 1>+         0.00%    0.00%    0.00%    0.00%    0.00%
 14  1     4    1  |1 1>+         0.00%    0.00%    0.08%    0.00%    0.00%
 15  1     5    1  |1 1>+         0.00%    0.08%    0.00%    0.00%    0.00%
 16  1     6    1  |1 1>+         0.00%    0.00%    0.00%    0.00%    0.00%
 17  1     7    1  |1 1>+        31.67%    0.00%    0.00%    0.00%    1.20%
 18  1     8    1  |1 1>+         0.00%    0.00%   35.90%    0.00%    0.00%
 19  1     9    1  |1 1>+         0.00%   35.90%    0.00%    0.00%    0.00%
 20  1     1    1  |1 0>          0.00%    2.82%    0.00%    0.00%    0.00%
 21  1     2    1  |1 0>          0.00%    0.03%    0.00%    0.00%    0.00%
 22  1     3    1  |1 0>          0.00%    0.09%    0.00%    0.00%    0.00%
 23  1     4    1  |1 0>          0.00%    0.00%    0.00%    0.00%    0.00%
 24  1     5    1  |1 0>          0.00%    0.00%    0.00%    0.08%    0.00%
 25  1     6    1  |1 0>          0.00%    0.00%    0.08%    0.00%    0.00%
 26  1     7    1  |1 0>          0.00%    0.00%   35.69%    0.00%    0.00%
 27  1     8    1  |1 0>         32.36%    0.00%    0.00%    0.00%    1.20%
 28  1     9    1  |1 0>          0.00%    0.00%    0.00%   35.81%    0.00%
 29  1     1    1  |1 1>-         0.00%    0.00%    2.82%    0.00%    0.00%
 30  1     2    1  |1 1>-         0.00%    0.00%    0.03%    0.00%    0.00%
 31  1     3    1  |1 1>-         0.00%    0.00%    0.08%    0.00%    0.00%
 32  1     4    1  |1 1>-         0.00%    0.00%    0.00%    0.08%    0.00%
 33  1     5    1  |1 1>-         0.00%    0.00%    0.00%    0.00%    0.00%
 34  1     6    1  |1 1>-         0.00%    0.08%    0.00%    0.00%    0.00%
 35  1     7    1  |1 1>-         0.00%   35.69%    0.00%    0.00%    0.00%
 36  1     8    1  |1 1>-         0.00%    0.00%    0.00%   35.81%    0.00%
 37  1     9    1  |1 1>-        32.36%    0.00%    0.00%    0.00%    1.20%


 No matrix element <i|DMX|i> larger than 5E-7
 No matrix element <i|DMX|1> larger than 5E-7

 No matrix element <i|DMY|i> larger than 5E-7
 No matrix element <i|DMY|1> larger than 5E-7

 No matrix element <i|DMZ|i> larger than 5E-7
 No matrix element <i|DMZ|1> larger than 5E-7


 **********************************************************************************************************************************
 DATASETS  * FILE   NREC   LENGTH (MB)   RECORD NAMES
              1      24       55.90       500      610      700      900      950      970     1000      129      960     1700   
                                          VAR    BASINP    GEOM    SYMINP    ZMAT    AOBASIS   BASIS     P2S    ABASIS    OPER   
                                         1101     1401     1411     1412     1650     1100     1400     1410     1200     1210   
                                          SR      EKINR    POTR     PVPR    MOLCAS      S      EKIN      POT      H0       H01  
                                         1080     1600     1380     1700(1)
                                         AOSYM     SMH     JKOP     OPER   

              2       7     3339.68       700     1000      520     2100     2140     5201     5202   
                                         GEOM     BASIS   MCVARS     RHF     MCSCF    MRCI     MRCI   

 PROGRAMS   *        TOTAL        CI     LSINT        CI        CI     MULTI   RHF-SCF       INT
 CPU TIMES  *     61098.64  55378.46     17.79   2836.74   2853.19      8.20      0.39      3.42
 REAL TIME  *     62144.39 SEC
 DISK USED  *         3.32 GB (local),      104.76 GB (total)
 SF USED    *        17.10 GB
 GA USED    *         0.00 MB       (max)       0.00 MB       (current)
 **********************************************************************************************************************************

 CI/aug-cc-pWCV5Z-DK energy=   -528.729006007084

              CI              CI           MULTI         RHF-SCF
   -528.71281230   -528.69357599   -528.16482226   -527.39968833
 **********************************************************************************************************************************
 Molpro calculation terminated
