
 Working directory              : /wrk/irikura/molpro.4GDS2HO2uF/
 Global scratch directory       : /wrk/irikura/molpro.4GDS2HO2uF/
 Wavefunction directory         : /home/irikura/wfu/
 Main file repository           : /wrk/irikura/molpro.4GDS2HO2uF/

 id        : nistki

 Nodes            nprocs
 pn125343.nist.gov    6
 GA implementation: MPI file
 GA implementation (serial work in mppx): MPI file

 Using customized tuning parameters: mindgm=1; mindgv=20; mindgc=4; mindgr=1; noblas=0; minvec=7
 default implementation of scratch files=sf  


 Variables initialized (1009), CPU time= 0.01 sec
 ***,Ra SO-CI
                                                                                 ! larger core [15 19]
 memory,8,G
 
 gprint,orbitals,civector;
 
 symmetry,xyz
 geometry={Ra};
 
 basis=aug-cc-pwCVTZ-X2C
 
 set,dkho=101
 
 {rhf;wf,sym=1,spin=0}
 
 NSING=12
 NTRIP=16
 
                                                                                 ! active space (2/10) as orbitals [7 3]
 {multi
     closed,21,22
     occ,28,25
     wf,sym=1,spin=0;state,NSING;
     wf,sym=1,spin=2;state,NTRIP;
     expec2,lxx,lyy,lzz;
 }
 table, energy, ll
 title, Energies and &lt;L**2&gt; values
 
 core,15,19
 {ci;wf,sym=1,spin=0;state,NSING; save,5101.2}
 hlsdiag = energd4
 {ci;wf,sym=1,spin=2;state,NTRIP; save,5103.2}
 hlsdiag(NSING+1) = energd4
 
 table,hlsdiag
 
 lsint
 {ci;hlsmat,ls,5101.2,5103.2;print,vls=0,hls=0}                                  !compute and diagonalize SO matrix
 Commands initialized (810), CPU time= 0.01 sec, 661 directives.
 Default parameters read. Elapsed time= 0.09 sec

 Checking input...
 Passed
1


                                         ***  PROGRAM SYSTEM MOLPRO  ***
                                       Copyright, TTI GmbH Stuttgart, 2015
                                    Version 2021.2 linked Jun  2 2021 00:13:23


 **********************************************************************************************************************************
 LABEL *   Ra SO-CI                                                                      
  64 bit mpp version                                                                     DATE: 23-Apr-24          TIME: 17:16:20  
 **********************************************************************************************************************************

 SHA1:             1987c3f1b0c3ae76932bc24993909f2d7ae6b1f1
 **********************************************************************************************************************************

 Memory per process:      8000 MW
 Total memory per node:  48000 MW

 GA preallocation disabled
 GA check disabled

 Variable memory set to 8000.0 MW


 ZSYMEL=XYZ

 SETTING BASIS          =    AUG-CC-PWCVTZ-X2C
 SETTING DKHO           =       101.00000000                                  


 Recomputing integrals since basis changed


 Using spherical harmonics

 Library entry RA     S aug-cc-pwCVTZ-X      selected for orbital group  1
 Library entry RA     P aug-cc-pwCVTZ-X      selected for orbital group  1
 Library entry RA     D aug-cc-pwCVTZ-X      selected for orbital group  1
 Library entry RA     F aug-cc-pwCVTZ-X      selected for orbital group  1


 PROGRAM * SEWARD (Integral evaluation for generally contracted gaussian basis sets)     Author: Roland Lindh, 1990

 Geometry written to block  1 of record 700

 Orientation using atomic masses  
 Molecule type: Atom
 User-specified symmetry elements: XYZ
 Symmetry elements: XYZ
 Rotational constants:       0.0000000      0.0000000      0.0000000 GHz  (calculated with average atomic masses)

 Point group  Ci  



 ATOMIC COORDINATES

 NR  ATOM    CHARGE       X              Y              Z

   1  RA     88.00    0.000000000    0.000000000    0.000000000

 NUCLEAR CHARGE:                   88
 NUMBER OF PRIMITIVE AOS:         430
 NUMBER OF SYMMETRY AOS:          359
 NUMBER OF CONTRACTIONS:          125   (   57Ag  +   68Au  )
 NUMBER OF INNER CORE ORBITALS:    39   (   20Ag  +   19Au  )
 NUMBER OF OUTER CORE ORBITALS:     4   (    1Ag  +    3Au  )
 NUMBER OF VALENCE ORBITALS:        1   (    1Ag  +    0Au  )


 NUCLEAR REPULSION ENERGY    0.00000000

 One-electron integrals computed with SEWARD

 eXact-2-Component (X2C) method activated

 Computing Douglas-Kroll / X2C integrals

 AO integral compression algorithm  1   Integral accuracy      1.0D-11

     37.224 MB (compressed) written to integral file ( 12.9%)

     Node minimum: 3.932 MB, node maximum: 10.224 MB


 NUMBER OF SORTED TWO-ELECTRON INTEGRALS:    2626485.     BUFFER LENGTH:  32768
 NUMBER OF SEGMENTS:   1  SEGMENT LENGTH:    2626485      RECORD LENGTH: 524288

 Memory used in sort:       3.18 MW

 SORT1 READ    36081304. AND WROTE      538463. INTEGRALS IN      2 RECORDS. CPU TIME:     0.15 SEC, REAL TIME:     0.17 SEC
 SORT2 READ     3260452. AND WROTE    15753876. INTEGRALS IN    234 RECORDS. CPU TIME:     0.06 SEC, REAL TIME:     0.06 SEC

 Node minimum:     2624806.  Node maximum:     2626485. integrals

 OPERATOR DM      FOR CENTER  0  COORDINATES:    0.000000    0.000000    0.000000

 EXTRA SYMMETRY OF AOS IN SYMMETRY 1:   1 1 1 1 1 1 1 1 1 1   1 1 2 3 4 5 6 2 3 4   5 6 2 3 4 5 6 2 3 4   5 6 2 3 4 5 6 2 3 4
                                        5 6 2 3 4 5 6 2 3 4   5 6 2 3 4 5 6
 EXTRA SYMMETRY OF AOS IN SYMMETRY 2:   1 2 3 1 2 3 1 2 3 1   2 3 1 2 3 1 2 3 1 2   3 1 2 3 1 2 3 1 2 3   1 2 3 4 5 6 7 8 910
                                        4 5 6 7 8 910 4 5 6   7 8 910 4 5 6 7 8 9  10 4 5 6 7 8 910

 Eigenvalues of metric

         1 0.525E-03 0.161E-02 0.161E-02 0.161E-02 0.161E-02 0.161E-02 0.163E-02 0.203E-01
         2 0.243E-02 0.243E-02 0.243E-02 0.514E-02 0.514E-02 0.514E-02 0.700E-01 0.700E-01


 **********************************************************************************************************************************
 DATASETS  * FILE   NREC   LENGTH (MB)   RECORD NAMES
              1      22       30.07       500      610      700      900      950      970     1000      129      960     1700   
                                          VAR    BASINP    GEOM    SYMINP    ZMAT    AOBASIS   BASIS     P2S    ABASIS    OPER   
                                         1101     1401     1411     1412     1650     1100     1400     1410     1200     1210   
                                          SR      EKINR    POTR     PVPR    MOLCAS      S      EKIN      POT      H0       H01  
                                         1080     1600   
                                         AOSYM     SMH  

 PROGRAMS   *        TOTAL       INT
 CPU TIMES  *        14.12     13.95
 REAL TIME  *        17.28 SEC
 DISK USED  *        30.40 MB (local),      250.47 MB (total)
 GA USED    *         0.00 MB       (max)       0.00 MB       (current)
 **********************************************************************************************************************************


 Program * Restricted Hartree-Fock

 Orbital guess generated from atomic densities. Full valence occupancy:   22  22

 Initial occupancy:  22  22

 NELEC=   88   SYM=1   MS2= 0   THRE=1.0D-08   THRD=3.2D-06   THRG=3.2D-06  HFMA2=F  DIIS_START=2   DIIS_MAX=10   DIIS_INCORE=F

 Level shifts:    0.00 (CLOSED)    0.00 (OPEN)    0.30 (GAP_MIN)

 ITER           ETOT              DE          GRAD        DDIFF     DIIS  NEXP   TIME(IT)  TIME(TOT)  DIAG
   1   -24984.77408070  -24984.77408070     0.00D+00     0.21D+00     0     0       0.02      0.03    start
   2   -24984.77408070      -0.00000000     0.77D-06     0.16D-04     1     0       0.02      0.05    diag
   3   -24984.77408070      -0.00000000     0.14D-06     0.64D-05     2     0       0.01      0.06    diag
   4   -24984.77408070      -0.00000000     0.60D-07     0.33D-05     3     0       0.02      0.08    diag
   5   -24984.77408070      -0.00000000     0.28D-07     0.40D-05     4     0       0.01      0.09    diag
   6   -24984.77408070      -0.00000000     0.45D-08     0.16D-06     5     0       0.01      0.10    diag
   7   -24984.77408070       0.00000000     0.18D-08     0.12D-06     0     0       0.02      0.12    diag

 Final occupancy:  22  22

 !RHF STATE 1.1 Energy               -24984.7740807038    
  RHF One-electron energy            -33999.5252898202    
  RHF Two-electron energy            9014.751209116395
  RHF Kinetic energy                  43485.7340748081    
  RHF Nuclear energy                    0.000000000000
  RHF Virial quotient                  -0.574551047884

 !RHF STATE 1.1 Dipole moment           0.00000000     0.00000000     0.00000000
 Dipole moment /Debye                   0.00000000     0.00000000     0.00000000

 ELECTRON ORBITALS
 =================

  Orbital  Occupation    Energy    Cen Mu Typ  Coefficients
    1.1     2.00000 -3845.20679     1  1  s    1.00000
    2.1     2.00000  -712.75762     1  2  s    1.00000
    3.1     2.00000  -179.76742     1  3  s    1.00000
    4.1     2.00000  -118.10410     1  1  d0   0.99987
    5.1     2.00000  -118.10410     1  1  d2-  0.97395
    6.1     2.00000  -118.10410     1  1  d2+  0.97695
    7.1     2.00000  -118.10410     1  1  d1+  0.98888
    8.1     2.00000  -118.10410     1  1  d1-  0.98871
    9.1     2.00000   -45.72039     1  4  s    1.00000
   10.1     2.00000   -23.67489     1  2  d0   1.00000
   11.1     2.00000   -23.67489     1  2  d1+ -0.32497    1  2  d2+  0.93344
   12.1     2.00000   -23.67489     1  2  d2-  0.26867    1  2  d1-  0.95941
   13.1     2.00000   -23.67489     1  2  d2-  0.94783    1  2  d1- -0.26022
   14.1     2.00000   -23.67489     1  2  d1+  0.94033    1  2  d2+  0.31241
   15.1     2.00000   -10.01554     1  5  s    0.99999
   16.1     2.00000    -2.99474     1  3  d1-  0.96912
   17.1     2.00000    -2.99474     1  3  d2-  0.29358    1  3  d1+  0.95092
   18.1     2.00000    -2.99474     1  3  d2+  0.96569
   19.1     2.00000    -2.99474     1  3  d2-  0.92616    1  3  d1+ -0.29859
   20.1     2.00000    -2.99474     1  3  d0   0.99992
   21.1     2.00000    -1.62623     1  6  s    0.99951
   22.1     2.00000    -0.16560     1  7  s    1.00154
    1.2     2.00000  -604.13158     1  1  pz   0.99924
    2.2     2.00000  -604.13158     1  1  py   0.99938
    3.2     2.00000  -604.13158     1  1  px   0.99986
    4.2     2.00000  -148.72003     1  2  px   0.99991
    5.2     2.00000  -148.72003     1  2  py   0.99986
    6.2     2.00000  -148.72003     1  2  pz   0.99993
    7.2     2.00000   -35.35818     1  3  pz   0.99992
    8.2     2.00000   -35.35818     1  3  py   0.99978
    9.2     2.00000   -35.35818     1  3  px   0.99969
   10.2     2.00000   -11.20190     1  1  f0   0.99999
   11.2     2.00000   -11.20190     1  1  f3+  0.99820
   12.2     2.00000   -11.20190     1  1  f3-  0.99719
   13.2     2.00000   -11.20190     1  1  f2+  0.99940
   14.2     2.00000   -11.20190     1  1  f2-  0.99941
   15.2     2.00000   -11.20190     1  1  f1+  0.99791
   16.2     2.00000   -11.20190     1  1  f1-  0.99699
   17.2     2.00000    -6.80574     1  4  pz   1.00004
   18.2     2.00000    -6.80574     1  4  py   1.00004
   19.2     2.00000    -6.80574     1  4  px   1.00004
   20.2     2.00000    -0.80779     1  5  pz   0.99943
   21.2     2.00000    -0.80779     1  5  py   0.99943
   22.2     2.00000    -0.80779     1  5  px   0.99976


 HOMO     22.1    -0.165598 =      -4.5062eV
 LUMO     23.2     0.008544 =       0.2325eV
 LUMO-HOMO         0.174142 =       4.7386eV

 Orbitals saved in record  2100.2


 **********************************************************************************************************************************
 DATASETS  * FILE   NREC   LENGTH (MB)   RECORD NAMES
              1      22       30.07       500      610      700      900      950      970     1000      129      960     1700   
                                          VAR    BASINP    GEOM    SYMINP    ZMAT    AOBASIS   BASIS     P2S    ABASIS    OPER   
                                         1101     1401     1411     1412     1650     1100     1400     1410     1200     1210   
                                          SR      EKINR    POTR     PVPR    MOLCAS      S      EKIN      POT      H0       H01  
                                         1080     1600   
                                         AOSYM     SMH  

              2       4        2.77       700     1000      520     2100   
                                         GEOM     BASIS   MCVARS     RHF  

 PROGRAMS   *        TOTAL   RHF-SCF       INT
 CPU TIMES  *        14.26      0.14     13.95
 REAL TIME  *        17.43 SEC
 DISK USED  *        33.35 MB (local),      268.17 MB (total)
 GA USED    *         0.00 MB       (max)       0.00 MB       (current)
 **********************************************************************************************************************************
 SETTING NSING          =        12.00000000                                  
 SETTING NTRIP          =        16.00000000                                  

 PROGRAM * MULTI (Direct Multiconfiguration SCF)       Authors: P.J. Knowles, H.-J. Werner (1984)
                                                                D.A. Kreplin, P.J. Knowles, H.-J. Werner (2019)

 Number of closed-shell orbitals:  43 (  21  22 )
 Number of active  orbitals:       10 (   7   3 )
 Number of external orbitals:      72 (  29  43 )

 State symmetry 1

 Number of active electrons:   2    Spin symmetry=Singlet   Space symmetry=1
 Number of states:            12
 Number of CSFs:              34   (58 determinants, 100 intermediate states)

 State symmetry 2

 Number of active electrons:   2    Spin symmetry=Triplet   Space symmetry=1
 Number of states:            16
 Number of CSFs:              24   (24 determinants, 45 intermediate states)

 Molecular orbitals read from record     2100.2  Type=RHF/CANONICAL  
 *** IN SYMMETRY 1 ORBITAL  4 SYMMETRY CONTAMINATION OF 0.212D-01 HAS BEEN REMOVED
 *** IN SYMMETRY 1 ORBITAL  5 SYMMETRY CONTAMINATION OF 0.255D+00 HAS BEEN REMOVED
 *** IN SYMMETRY 1 ORBITAL  6 SYMMETRY CONTAMINATION OF 0.210D+00 HAS BEEN REMOVED
 *** IN SYMMETRY 1 ORBITAL  7 SYMMETRY CONTAMINATION OF 0.176D+00 HAS BEEN REMOVED
 *** IN SYMMETRY 1 ORBITAL  8 SYMMETRY CONTAMINATION OF 0.186D+00 HAS BEEN REMOVED
 *** IN SYMMETRY 1 ORBITAL 10 SYMMETRY CONTAMINATION OF 0.107D-02 HAS BEEN REMOVED
 *** IN SYMMETRY 1 ORBITAL 11 SYMMETRY CONTAMINATION OF 0.345D+00 HAS BEEN REMOVED
 *** IN SYMMETRY 1 ORBITAL 12 SYMMETRY CONTAMINATION OF 0.271D+00 HAS BEEN REMOVED
 *** IN SYMMETRY 1 ORBITAL 13 SYMMETRY CONTAMINATION OF 0.341D+00 HAS BEEN REMOVED
 *** IN SYMMETRY 1 ORBITAL 14 SYMMETRY CONTAMINATION OF 0.348D+00 HAS BEEN REMOVED
 *** IN SYMMETRY 1 ORBITAL 16 SYMMETRY CONTAMINATION OF 0.292D+00 HAS BEEN REMOVED
 *** IN SYMMETRY 1 ORBITAL 17 SYMMETRY CONTAMINATION OF 0.304D+00 HAS BEEN REMOVED
 *** IN SYMMETRY 1 ORBITAL 18 SYMMETRY CONTAMINATION OF 0.297D+00 HAS BEEN REMOVED
 *** IN SYMMETRY 1 ORBITAL 19 SYMMETRY CONTAMINATION OF 0.402D+00 HAS BEEN REMOVED
 *** IN SYMMETRY 1 ORBITAL 20 SYMMETRY CONTAMINATION OF 0.158D-02 HAS BEEN REMOVED
 *** IN SYMMETRY 1 ORBITAL 24 SYMMETRY CONTAMINATION OF 0.517D-03 HAS BEEN REMOVED
 *** IN SYMMETRY 1 ORBITAL 25 SYMMETRY CONTAMINATION OF 0.551D-02 HAS BEEN REMOVED
 *** IN SYMMETRY 1 ORBITAL 26 SYMMETRY CONTAMINATION OF 0.495D-02 HAS BEEN REMOVED
 *** IN SYMMETRY 1 ORBITAL 27 SYMMETRY CONTAMINATION OF 0.157D+00 HAS BEEN REMOVED
 *** IN SYMMETRY 1 ORBITAL 28 SYMMETRY CONTAMINATION OF 0.158D+00 HAS BEEN REMOVED

 EXTRA SYMMETRY OF MOS IN SYMMETRY 1:   1 1 1 2 3 5 4 6 1 2   5 6 3 4 1 6 4 5 3 2   1 1 1 2 3 5 6 4 2 3   5 6 4 1 6 4 2 3 5 1
                                        2 3 5 6 4 1 4 6 3 5   2 6 4 3 5 2 1
 *** IN SYMMETRY 2 ORBITAL  1 SYMMETRY CONTAMINATION OF 0.495D-01 HAS BEEN REMOVED
 *** IN SYMMETRY 2 ORBITAL  2 SYMMETRY CONTAMINATION OF 0.357D-01 HAS BEEN REMOVED
 *** IN SYMMETRY 2 ORBITAL  3 SYMMETRY CONTAMINATION OF 0.176D-01 HAS BEEN REMOVED
 *** IN SYMMETRY 2 ORBITAL  4 SYMMETRY CONTAMINATION OF 0.167D-01 HAS BEEN REMOVED
 *** IN SYMMETRY 2 ORBITAL  5 SYMMETRY CONTAMINATION OF 0.234D-01 HAS BEEN REMOVED
 *** IN SYMMETRY 2 ORBITAL  6 SYMMETRY CONTAMINATION OF 0.154D-01 HAS BEEN REMOVED
 *** IN SYMMETRY 2 ORBITAL  7 SYMMETRY CONTAMINATION OF 0.139D-01 HAS BEEN REMOVED
 *** IN SYMMETRY 2 ORBITAL  8 SYMMETRY CONTAMINATION OF 0.214D-01 HAS BEEN REMOVED
 *** IN SYMMETRY 2 ORBITAL  9 SYMMETRY CONTAMINATION OF 0.332D-01 HAS BEEN REMOVED
 *** IN SYMMETRY 2 ORBITAL 10 SYMMETRY CONTAMINATION OF 0.773D-02 HAS BEEN REMOVED
 *** IN SYMMETRY 2 ORBITAL 11 SYMMETRY CONTAMINATION OF 0.669D-01 HAS BEEN REMOVED
 *** IN SYMMETRY 2 ORBITAL 12 SYMMETRY CONTAMINATION OF 0.871D-01 HAS BEEN REMOVED
 *** IN SYMMETRY 2 ORBITAL 13 SYMMETRY CONTAMINATION OF 0.524D-01 HAS BEEN REMOVED
 *** IN SYMMETRY 2 ORBITAL 14 SYMMETRY CONTAMINATION OF 0.513D-01 HAS BEEN REMOVED
 *** IN SYMMETRY 2 ORBITAL 15 SYMMETRY CONTAMINATION OF 0.916D-01 HAS BEEN REMOVED
 *** IN SYMMETRY 2 ORBITAL 16 SYMMETRY CONTAMINATION OF 0.976D-01 HAS BEEN REMOVED
 *** IN SYMMETRY 2 ORBITAL 17 SYMMETRY CONTAMINATION OF 0.784D-03 HAS BEEN REMOVED
 *** IN SYMMETRY 2 ORBITAL 18 SYMMETRY CONTAMINATION OF 0.784D-03 HAS BEEN REMOVED
 *** IN SYMMETRY 2 ORBITAL 20 SYMMETRY CONTAMINATION OF 0.251D-01 HAS BEEN REMOVED
 *** IN SYMMETRY 2 ORBITAL 21 SYMMETRY CONTAMINATION OF 0.254D-01 HAS BEEN REMOVED
 *** IN SYMMETRY 2 ORBITAL 22 SYMMETRY CONTAMINATION OF 0.336D-03 HAS BEEN REMOVED
 *** IN SYMMETRY 2 ORBITAL 23 SYMMETRY CONTAMINATION OF 0.274D-04 HAS BEEN REMOVED
 *** IN SYMMETRY 2 ORBITAL 25 SYMMETRY CONTAMINATION OF 0.274D-04 HAS BEEN REMOVED
 EXTRA SYMMETRY OF MOS IN SYMMETRY 2:   3 2 1 1 2 3 3 2 1 6   7 910 8 4 5 3 2 1 3   2 1 2 1 3 2 1 3 2 1   3 6 5 4 810 9 7 2 1
                                        3 5 6 4 7 9 810 6 8  10 5 4 7 9 2 1 3 6 8  10 7 9 5 4 2 1 3

 Wavefunction dump at record             2140.2

 Convergence thresholds  0.10E-04 (gradient)  0.10E-05 (energy)

 Weight factors for state symmetry  1:    0.03571   0.03571   0.03571   0.03571   0.03571   0.03571   0.03571   0.03571
                                          0.03571   0.03571   0.03571   0.03571
 Weight factors for state symmetry  2:    0.03571   0.03571   0.03571   0.03571   0.03571   0.03571   0.03571   0.03571
                                          0.03571   0.03571   0.03571   0.03571   0.03571   0.03571   0.03571   0.03571
 
 Number of orbital rotations:  2100  ( 213 closed/active, 1555 closed/virtual, 0 active/active, 332 active/virtual )
 Total number of variables:    3180
 
  Second-order MCSCF: L-BFGS accelerated
 
 ITER  MIC  NCI  NEG     ENERGY(VAR)    ENERGY(PROJ) ENERGY CHANGE       GRAD(0)  GRAD(ORB)   GRAD(CI)      STEP      TIME
   1   18   34    5 -24984.57094296  -24984.69073691   -0.11979395    0.07476851 0.00011270 0.00000000  0.24E+01      3.38
   2    9   14    0 -24984.67365596  -24984.68008463   -0.00642867    0.04709594 0.00003582 0.00000000  0.46E+00      6.33
   3    9   14    0 -24984.68013074  -24984.68013379   -0.00000305    0.00083896 0.00000024 0.00000000  0.90E-02      9.26
   4    5    8    0 -24984.68013379  -24984.68013379   -0.00000000    0.00000130 0.00000001 0.00000000  0.17E-04     11.36

 CONVERGENCE REACHED!  Final gradient:    0.00000000 ( 0.28E-09)
                       Final energy: -24984.68013379
 
 Results for state 1.1 Singlet
 =============================
 !MCSCF STATE 1.1 Singlet Energy              -24984.7921011328    
 Nuclear energy                                  0.00000000
 Kinetic energy                              43485.57192753
 One electron energy                        -33998.85026787
 Two electron energy                          9014.05816673
 Virial ratio                                    1.57455360
 
 !MCSCF STATE 1.1 Singlet Dipole moment          0.00000000     0.00000000     0.00000000
 Dipole moment /Debye                            0.00000000     0.00000000     0.00000000
 
 Results for state 2.1 Singlet
 =============================
 !MCSCF STATE 2.1 Singlet Energy              -24984.7110445394    
 Nuclear energy                                  0.00000000
 Kinetic energy                              43485.22525404
 One electron energy                        -33999.56220063
 Two electron energy                          9014.85115610
 Virial ratio                                    1.57455632
 
 !MCSCF STATE 2.1 Singlet Dipole moment          0.00000000     0.00000000     0.00000000
 Dipole moment /Debye                            0.00000000     0.00000000     0.00000000
 
 Results for state 3.1 Singlet
 =============================
 !MCSCF STATE 3.1 Singlet Energy              -24984.7110445394    
 Nuclear energy                                  0.00000000
 Kinetic energy                              43485.22525404
 One electron energy                        -33999.56220063
 Two electron energy                          9014.85115609
 Virial ratio                                    1.57455632
 
 !MCSCF STATE 3.1 Singlet Dipole moment          0.00000000     0.00000000     0.00000000
 Dipole moment /Debye                            0.00000000     0.00000000     0.00000000
 
 Results for state 4.1 Singlet
 =============================
 !MCSCF STATE 4.1 Singlet Energy              -24984.7110445394    
 Nuclear energy                                  0.00000000
 Kinetic energy                              43485.22525404
 One electron energy                        -33999.56220063
 Two electron energy                          9014.85115609
 Virial ratio                                    1.57455632
 
 !MCSCF STATE 4.1 Singlet Dipole moment          0.00000000     0.00000000     0.00000000
 Dipole moment /Debye                            0.00000000     0.00000000     0.00000000
 
 Results for state 5.1 Singlet
 =============================
 !MCSCF STATE 5.1 Singlet Energy              -24984.7110445394    
 Nuclear energy                                  0.00000000
 Kinetic energy                              43485.22525404
 One electron energy                        -33999.56220064
 Two electron energy                          9014.85115610
 Virial ratio                                    1.57455632
 
 !MCSCF STATE 5.1 Singlet Dipole moment          0.00000000     0.00000000     0.00000000
 Dipole moment /Debye                            0.00000000     0.00000000     0.00000000
 
 Results for state 6.1 Singlet
 =============================
 !MCSCF STATE 6.1 Singlet Energy              -24984.7110445394    
 Nuclear energy                                  0.00000000
 Kinetic energy                              43485.22525404
 One electron energy                        -33999.56220064
 Two electron energy                          9014.85115610
 Virial ratio                                    1.57455632
 
 !MCSCF STATE 6.1 Singlet Dipole moment          0.00000000     0.00000000     0.00000000
 Dipole moment /Debye                            0.00000000     0.00000000     0.00000000
 
 Results for state 7.1 Singlet
 =============================
 !MCSCF STATE 7.1 Singlet Energy              -24984.6699011399    
 Nuclear energy                                  0.00000000
 Kinetic energy                              43485.12882353
 One electron energy                        -33990.97382372
 Two electron energy                          9006.30392258
 Virial ratio                                    1.57455665
 
 !MCSCF STATE 7.1 Singlet Dipole moment          0.00000000     0.00000000     0.00000000
 Dipole moment /Debye                            0.00000000     0.00000000     0.00000000
 
 Results for state 8.1 Singlet
 =============================
 !MCSCF STATE 8.1 Singlet Energy              -24984.6502225184    
 Nuclear energy                                  0.00000000
 Kinetic energy                              43484.94270457
 One electron energy                        -33999.24211454
 Two electron energy                          9014.59189202
 Virial ratio                                    1.57455866
 
 !MCSCF STATE 8.1 Singlet Dipole moment          0.00000000     0.00000000     0.00000000
 Dipole moment /Debye                            0.00000000     0.00000000     0.00000000
 
 Results for state 9.1 Singlet
 =============================
 !MCSCF STATE 9.1 Singlet Energy              -24984.6502225184    
 Nuclear energy                                  0.00000000
 Kinetic energy                              43484.94270457
 One electron energy                        -33999.24211454
 Two electron energy                          9014.59189202
 Virial ratio                                    1.57455866
 
 !MCSCF STATE 9.1 Singlet Dipole moment          0.00000000     0.00000000     0.00000000
 Dipole moment /Debye                            0.00000000     0.00000000     0.00000000
 
 Results for state 10.1 Singlet
 ==============================
 !MCSCF STATE 10.1 Singlet Energy             -24984.6502225184    
 Nuclear energy                                  0.00000000
 Kinetic energy                              43484.94270457
 One electron energy                        -33999.24211454
 Two electron energy                          9014.59189202
 Virial ratio                                    1.57455866
 
 !MCSCF STATE 10.1 Singlet Dipole moment         0.00000000     0.00000000     0.00000000
 Dipole moment /Debye                            0.00000000     0.00000000     0.00000000
 
 Results for state 11.1 Singlet
 ==============================
 !MCSCF STATE 11.1 Singlet Energy             -24984.6502225184    
 Nuclear energy                                  0.00000000
 Kinetic energy                              43484.94270457
 One electron energy                        -33999.24211454
 Two electron energy                          9014.59189202
 Virial ratio                                    1.57455866
 
 !MCSCF STATE 11.1 Singlet Dipole moment         0.00000000     0.00000000     0.00000000
 Dipole moment /Debye                            0.00000000     0.00000000     0.00000000
 
 Results for state 12.1 Singlet
 ==============================
 !MCSCF STATE 12.1 Singlet Energy             -24984.6502225184    
 Nuclear energy                                  0.00000000
 Kinetic energy                              43484.94270457
 One electron energy                        -33999.24211454
 Two electron energy                          9014.59189202
 Virial ratio                                    1.57455866
 
 !MCSCF STATE 12.1 Singlet Dipole moment         0.00000000     0.00000000     0.00000000
 Dipole moment /Debye                            0.00000000     0.00000000     0.00000000
 
 Results for state 1.1 Triplet
 =============================
 !MCSCF STATE 1.1 Triplet Energy              -24984.7206844526    
 Nuclear energy                                  0.00000000
 Kinetic energy                              43485.39007942
 One electron energy                        -34000.99729791
 Two electron energy                          9016.27661346
 Virial ratio                                    1.57455437
 
 !MCSCF STATE 1.1 Triplet Dipole moment          0.00000000     0.00000000     0.00000000
 Dipole moment /Debye                            0.00000000     0.00000000     0.00000000
 
 Results for state 2.1 Triplet
 =============================
 !MCSCF STATE 2.1 Triplet Energy              -24984.7206844526    
 Nuclear energy                                  0.00000000
 Kinetic energy                              43485.39007942
 One electron energy                        -34000.99729791
 Two electron energy                          9016.27661346
 Virial ratio                                    1.57455437
 
 !MCSCF STATE 2.1 Triplet Dipole moment          0.00000000     0.00000000     0.00000000
 Dipole moment /Debye                            0.00000000     0.00000000     0.00000000
 
 Results for state 3.1 Triplet
 =============================
 !MCSCF STATE 3.1 Triplet Energy              -24984.7206844525    
 Nuclear energy                                  0.00000000
 Kinetic energy                              43485.39007942
 One electron energy                        -34000.99729790
 Two electron energy                          9016.27661345
 Virial ratio                                    1.57455437
 
 !MCSCF STATE 3.1 Triplet Dipole moment          0.00000000     0.00000000     0.00000000
 Dipole moment /Debye                            0.00000000     0.00000000     0.00000000
 
 Results for state 4.1 Triplet
 =============================
 !MCSCF STATE 4.1 Triplet Energy              -24984.7206844525    
 Nuclear energy                                  0.00000000
 Kinetic energy                              43485.39007942
 One electron energy                        -34000.99729790
 Two electron energy                          9016.27661345
 Virial ratio                                    1.57455437
 
 !MCSCF STATE 4.1 Triplet Dipole moment          0.00000000     0.00000000     0.00000000
 Dipole moment /Debye                            0.00000000     0.00000000     0.00000000
 
 Results for state 5.1 Triplet
 =============================
 !MCSCF STATE 5.1 Triplet Energy              -24984.7206844525    
 Nuclear energy                                  0.00000000
 Kinetic energy                              43485.39007941
 One electron energy                        -34000.99729789
 Two electron energy                          9016.27661344
 Virial ratio                                    1.57455437
 
 !MCSCF STATE 5.1 Triplet Dipole moment          0.00000000     0.00000000     0.00000000
 Dipole moment /Debye                            0.00000000     0.00000000     0.00000000
 
 Results for state 6.1 Triplet
 =============================
 !MCSCF STATE 6.1 Triplet Energy              -24984.6774774086    
 Nuclear energy                                  0.00000000
 Kinetic energy                              43484.86842557
 One electron energy                        -33988.36453739
 Two electron energy                          9003.68705998
 Virial ratio                                    1.57456026
 
 !MCSCF STATE 6.1 Triplet Dipole moment          0.00000000     0.00000000     0.00000000
 Dipole moment /Debye                            0.00000000     0.00000000     0.00000000
 
 Results for state 7.1 Triplet
 =============================
 !MCSCF STATE 7.1 Triplet Energy              -24984.6535248900    
 Nuclear energy                                  0.00000000
 Kinetic energy                              43484.83046012
 One electron energy                        -33997.16988903
 Two electron energy                          9012.51636414
 Virial ratio                                    1.57456021
 
 !MCSCF STATE 7.1 Triplet Dipole moment          0.00000000     0.00000000     0.00000000
 Dipole moment /Debye                            0.00000000     0.00000000     0.00000000
 
 Results for state 8.1 Triplet
 =============================
 !MCSCF STATE 8.1 Triplet Energy              -24984.6535248900    
 Nuclear energy                                  0.00000000
 Kinetic energy                              43484.83046012
 One electron energy                        -33997.16988902
 Two electron energy                          9012.51636413
 Virial ratio                                    1.57456021
 
 !MCSCF STATE 8.1 Triplet Dipole moment          0.00000000     0.00000000     0.00000000
 Dipole moment /Debye                            0.00000000     0.00000000     0.00000000
 
 Results for state 9.1 Triplet
 =============================
 !MCSCF STATE 9.1 Triplet Energy              -24984.6535248900    
 Nuclear energy                                  0.00000000
 Kinetic energy                              43484.83046012
 One electron energy                        -33997.16988902
 Two electron energy                          9012.51636413
 Virial ratio                                    1.57456021
 
 !MCSCF STATE 9.1 Triplet Dipole moment          0.00000000     0.00000000     0.00000000
 Dipole moment /Debye                            0.00000000     0.00000000     0.00000000
 
 Results for state 10.1 Triplet
 ==============================
 !MCSCF STATE 10.1 Triplet Energy             -24984.6477048804    
 Nuclear energy                                  0.00000000
 Kinetic energy                              43485.11556078
 One electron energy                        -34002.57057288
 Two electron energy                          9017.92286800
 Virial ratio                                    1.57455631
 
 !MCSCF STATE 10.1 Triplet Dipole moment         0.00000000     0.00000000     0.00000000
 Dipole moment /Debye                            0.00000000     0.00000000     0.00000000
 
 Results for state 11.1 Triplet
 ==============================
 !MCSCF STATE 11.1 Triplet Energy             -24984.6477048804    
 Nuclear energy                                  0.00000000
 Kinetic energy                              43485.11556078
 One electron energy                        -34002.57057288
 Two electron energy                          9017.92286800
 Virial ratio                                    1.57455631
 
 !MCSCF STATE 11.1 Triplet Dipole moment         0.00000000     0.00000000     0.00000000
 Dipole moment /Debye                            0.00000000     0.00000000     0.00000000
 
 Results for state 12.1 Triplet
 ==============================
 !MCSCF STATE 12.1 Triplet Energy             -24984.6477048804    
 Nuclear energy                                  0.00000000
 Kinetic energy                              43485.11556078
 One electron energy                        -34002.57057287
 Two electron energy                          9017.92286799
 Virial ratio                                    1.57455631
 
 !MCSCF STATE 12.1 Triplet Dipole moment         0.00000000     0.00000000     0.00000000
 Dipole moment /Debye                            0.00000000     0.00000000     0.00000000
 
 Results for state 13.1 Triplet
 ==============================
 !MCSCF STATE 13.1 Triplet Energy             -24984.6477048804    
 Nuclear energy                                  0.00000000
 Kinetic energy                              43485.11556078
 One electron energy                        -34002.57057287
 Two electron energy                          9017.92286799
 Virial ratio                                    1.57455631
 
 !MCSCF STATE 13.1 Triplet Dipole moment         0.00000000     0.00000000     0.00000000
 Dipole moment /Debye                            0.00000000     0.00000000     0.00000000
 
 Results for state 14.1 Triplet
 ==============================
 !MCSCF STATE 14.1 Triplet Energy             -24984.6477048803    
 Nuclear energy                                  0.00000000
 Kinetic energy                              43485.11556078
 One electron energy                        -34002.57057287
 Two electron energy                          9017.92286799
 Virial ratio                                    1.57455631
 
 !MCSCF STATE 14.1 Triplet Dipole moment         0.00000000     0.00000000     0.00000000
 Dipole moment /Debye                            0.00000000     0.00000000     0.00000000
 
 Results for state 15.1 Triplet
 ==============================
 !MCSCF STATE 15.1 Triplet Energy             -24984.6477048803    
 Nuclear energy                                  0.00000000
 Kinetic energy                              43485.11556078
 One electron energy                        -34002.57057287
 Two electron energy                          9017.92286799
 Virial ratio                                    1.57455631
 
 !MCSCF STATE 15.1 Triplet Dipole moment         0.00000000     0.00000000     0.00000000
 Dipole moment /Debye                            0.00000000     0.00000000     0.00000000
 
 Results for state 16.1 Triplet
 ==============================
 !MCSCF STATE 16.1 Triplet Energy             -24984.6477048803    
 Nuclear energy                                  0.00000000
 Kinetic energy                              43485.11556078
 One electron energy                        -34002.57057287
 Two electron energy                          9017.92286799
 Virial ratio                                    1.57455631
 
 !MCSCF STATE 16.1 Triplet Dipole moment         0.00000000     0.00000000     0.00000000
 Dipole moment /Debye                            0.00000000     0.00000000     0.00000000
 
 State-averaged charge density matrix saved on record 2140.2 (density set 1)
 
 No non-zero expectation values
 
 Expectation values for two-electron operators:
 
 !MCSCF expec      <1.1 Singlet|LXLX|1.1 Singlet>     0.000000000000
 !MCSCF expec      <2.1 Singlet|LXLX|2.1 Singlet>     3.999993468366
 !MCSCF expec      <3.1 Singlet|LXLX|3.1 Singlet>     1.000005000068
 !MCSCF expec      <4.1 Singlet|LXLX|4.1 Singlet>     3.072872490696
 !MCSCF expec      <5.1 Singlet|LXLX|5.1 Singlet>     1.000000893903
 !MCSCF expec      <6.1 Singlet|LXLX|6.1 Singlet>     0.927128146968
 !MCSCF expec      <7.1 Singlet|LXLX|7.1 Singlet>     0.000000000000
 !MCSCF expec      <8.1 Singlet|LXLX|8.1 Singlet>     3.037648646682
 !MCSCF expec      <9.1 Singlet|LXLX|9.1 Singlet>     0.962351237551
 !MCSCF expec    <10.1 Singlet|LXLX|10.1 Singlet>     1.000000451933
 !MCSCF expec    <11.1 Singlet|LXLX|11.1 Singlet>     3.999993511799
 !MCSCF expec    <12.1 Singlet|LXLX|12.1 Singlet>     1.000006152035
 !MCSCF expec      <1.1 Triplet|LXLX|1.1 Triplet>     1.000000962112
 !MCSCF expec      <2.1 Triplet|LXLX|2.1 Triplet>     0.992467756996
 !MCSCF expec      <3.1 Triplet|LXLX|3.1 Triplet>     3.999998574940
 !MCSCF expec      <4.1 Triplet|LXLX|4.1 Triplet>     1.000001264689
 !MCSCF expec      <5.1 Triplet|LXLX|5.1 Triplet>     3.007531441263
 !MCSCF expec      <6.1 Triplet|LXLX|6.1 Triplet>     0.000000000000
 !MCSCF expec      <7.1 Triplet|LXLX|7.1 Triplet>     0.999999668063
 !MCSCF expec      <8.1 Triplet|LXLX|8.1 Triplet>     0.000002709218
 !MCSCF expec      <9.1 Triplet|LXLX|9.1 Triplet>     0.999997622719
 !MCSCF expec    <10.1 Triplet|LXLX|10.1 Triplet>     2.210500870726
 !MCSCF expec    <11.1 Triplet|LXLX|11.1 Triplet>     1.171815371741
 !MCSCF expec    <12.1 Triplet|LXLX|12.1 Triplet>     3.933496564317
 !MCSCF expec    <13.1 Triplet|LXLX|13.1 Triplet>     4.000019580068
 !MCSCF expec    <14.1 Triplet|LXLX|14.1 Triplet>     6.066482707485
 !MCSCF expec    <15.1 Triplet|LXLX|15.1 Triplet>     2.828209382755
 !MCSCF expec    <16.1 Triplet|LXLX|16.1 Triplet>     7.789475522909
 
 !MCSCF expec      <1.1 Singlet|LYLY|1.1 Singlet>     0.000000000000
 !MCSCF expec      <2.1 Singlet|LYLY|2.1 Singlet>     1.000004980430
 !MCSCF expec      <3.1 Singlet|LYLY|3.1 Singlet>     3.999995048886
 !MCSCF expec      <4.1 Singlet|LYLY|4.1 Singlet>     2.925310575388
 !MCSCF expec      <5.1 Singlet|LYLY|5.1 Singlet>     1.000001997905
 !MCSCF expec      <6.1 Singlet|LYLY|6.1 Singlet>     1.074687397392
 !MCSCF expec      <7.1 Singlet|LYLY|7.1 Singlet>     0.000000000000
 !MCSCF expec      <8.1 Singlet|LYLY|8.1 Singlet>     2.961872772270
 !MCSCF expec      <9.1 Singlet|LYLY|9.1 Singlet>     1.038127330631
 !MCSCF expec    <10.1 Singlet|LYLY|10.1 Singlet>     0.999999946289
 !MCSCF expec    <11.1 Singlet|LYLY|11.1 Singlet>     1.000006103079
 !MCSCF expec    <12.1 Singlet|LYLY|12.1 Singlet>     3.999993847731
 !MCSCF expec      <1.1 Triplet|LYLY|1.1 Triplet>     0.999999327738
 !MCSCF expec      <2.1 Triplet|LYLY|2.1 Triplet>     1.007551301585
 !MCSCF expec      <3.1 Triplet|LYLY|3.1 Triplet>     1.000001159201
 !MCSCF expec      <4.1 Triplet|LYLY|4.1 Triplet>     3.999998660670
 !MCSCF expec      <5.1 Triplet|LYLY|5.1 Triplet>     2.992449550806
 !MCSCF expec      <6.1 Triplet|LYLY|6.1 Triplet>     0.000000000000
 !MCSCF expec      <7.1 Triplet|LYLY|7.1 Triplet>     0.999999997649
 !MCSCF expec      <8.1 Triplet|LYLY|8.1 Triplet>     0.999997622632
 !MCSCF expec      <9.1 Triplet|LYLY|9.1 Triplet>     0.000002379720
 !MCSCF expec    <10.1 Triplet|LYLY|10.1 Triplet>     0.960792811390
 !MCSCF expec    <11.1 Triplet|LYLY|11.1 Triplet>     1.888769377304
 !MCSCF expec    <12.1 Triplet|LYLY|12.1 Triplet>     4.066799836838
 !MCSCF expec    <13.1 Triplet|LYLY|13.1 Triplet>     3.999984569110
 !MCSCF expec    <14.1 Triplet|LYLY|14.1 Triplet>     5.933216750878
 !MCSCF expec    <15.1 Triplet|LYLY|15.1 Triplet>     8.111205130794
 !MCSCF expec    <16.1 Triplet|LYLY|16.1 Triplet>     3.039231523687
 
 !MCSCF expec      <1.1 Singlet|LZLZ|1.1 Singlet>     0.000000000000
 !MCSCF expec      <2.1 Singlet|LZLZ|2.1 Singlet>     1.000001551204
 !MCSCF expec      <3.1 Singlet|LZLZ|3.1 Singlet>     0.999999951046
 !MCSCF expec      <4.1 Singlet|LZLZ|4.1 Singlet>     0.001816933917
 !MCSCF expec      <5.1 Singlet|LZLZ|5.1 Singlet>     3.999997108192
 !MCSCF expec      <6.1 Singlet|LZLZ|6.1 Singlet>     3.998184455640
 !MCSCF expec      <7.1 Singlet|LZLZ|7.1 Singlet>     0.000000000000
 !MCSCF expec      <8.1 Singlet|LZLZ|8.1 Singlet>     0.000478581048
 !MCSCF expec      <9.1 Singlet|LZLZ|9.1 Singlet>     3.999521431818
 !MCSCF expec    <10.1 Singlet|LZLZ|10.1 Singlet>     3.999999601778
 !MCSCF expec    <11.1 Singlet|LZLZ|11.1 Singlet>     1.000000385122
 !MCSCF expec    <12.1 Singlet|LZLZ|12.1 Singlet>     1.000000000234
 !MCSCF expec      <1.1 Triplet|LZLZ|1.1 Triplet>     3.999999710150
 !MCSCF expec      <2.1 Triplet|LZLZ|2.1 Triplet>     3.999980941419
 !MCSCF expec      <3.1 Triplet|LZLZ|3.1 Triplet>     1.000000265859
 !MCSCF expec      <4.1 Triplet|LZLZ|4.1 Triplet>     1.000000074641
 !MCSCF expec      <5.1 Triplet|LZLZ|5.1 Triplet>     0.000019007931
 !MCSCF expec      <6.1 Triplet|LZLZ|6.1 Triplet>     0.000000000000
 !MCSCF expec      <7.1 Triplet|LZLZ|7.1 Triplet>     0.000000334288
 !MCSCF expec      <8.1 Triplet|LZLZ|8.1 Triplet>     0.999999668150
 !MCSCF expec      <9.1 Triplet|LZLZ|9.1 Triplet>     0.999999997562
 !MCSCF expec    <10.1 Triplet|LZLZ|10.1 Triplet>     8.828706317884
 !MCSCF expec    <11.1 Triplet|LZLZ|11.1 Triplet>     8.939415250956
 !MCSCF expec    <12.1 Triplet|LZLZ|12.1 Triplet>     3.999703598846
 !MCSCF expec    <13.1 Triplet|LZLZ|13.1 Triplet>     3.999995850822
 !MCSCF expec    <14.1 Triplet|LZLZ|14.1 Triplet>     0.000300541637
 !MCSCF expec    <15.1 Triplet|LZLZ|15.1 Triplet>     1.060585486452
 !MCSCF expec    <16.1 Triplet|LZLZ|16.1 Triplet>     1.171292953404
 
 !MCSCF expec      <1.1 Singlet|L**2|1.1 Singlet>     0.000000000000
 !MCSCF expec      <2.1 Singlet|L**2|2.1 Singlet>     6.000000000000
 !MCSCF expec      <3.1 Singlet|L**2|3.1 Singlet>     6.000000000000
 !MCSCF expec      <4.1 Singlet|L**2|4.1 Singlet>     6.000000000000
 !MCSCF expec      <5.1 Singlet|L**2|5.1 Singlet>     6.000000000000
 !MCSCF expec      <6.1 Singlet|L**2|6.1 Singlet>     6.000000000000
 !MCSCF expec      <7.1 Singlet|L**2|7.1 Singlet>     0.000000000000
 !MCSCF expec      <8.1 Singlet|L**2|8.1 Singlet>     6.000000000000
 !MCSCF expec      <9.1 Singlet|L**2|9.1 Singlet>     6.000000000000
 !MCSCF expec    <10.1 Singlet|L**2|10.1 Singlet>     6.000000000000
 !MCSCF expec    <11.1 Singlet|L**2|11.1 Singlet>     6.000000000000
 !MCSCF expec    <12.1 Singlet|L**2|12.1 Singlet>     6.000000000000
 !MCSCF expec      <1.1 Triplet|L**2|1.1 Triplet>     6.000000000000
 !MCSCF expec      <2.1 Triplet|L**2|2.1 Triplet>     6.000000000000
 !MCSCF expec      <3.1 Triplet|L**2|3.1 Triplet>     6.000000000000
 !MCSCF expec      <4.1 Triplet|L**2|4.1 Triplet>     6.000000000000
 !MCSCF expec      <5.1 Triplet|L**2|5.1 Triplet>     6.000000000000
 !MCSCF expec      <6.1 Triplet|L**2|6.1 Triplet>     0.000000000000
 !MCSCF expec      <7.1 Triplet|L**2|7.1 Triplet>     2.000000000000
 !MCSCF expec      <8.1 Triplet|L**2|8.1 Triplet>     2.000000000000
 !MCSCF expec      <9.1 Triplet|L**2|9.1 Triplet>     2.000000000000
 !MCSCF expec    <10.1 Triplet|L**2|10.1 Triplet>    12.000000000000
 !MCSCF expec    <11.1 Triplet|L**2|11.1 Triplet>    12.000000000000
 !MCSCF expec    <12.1 Triplet|L**2|12.1 Triplet>    12.000000000000
 !MCSCF expec    <13.1 Triplet|L**2|13.1 Triplet>    12.000000000000
 !MCSCF expec    <14.1 Triplet|L**2|14.1 Triplet>    12.000000000000
 !MCSCF expec    <15.1 Triplet|L**2|15.1 Triplet>    12.000000000000
 !MCSCF expec    <16.1 Triplet|L**2|16.1 Triplet>    12.000000000000
 
  NATURAL ORBITALS (STATE AVERAGED)
  =================================

  Orbital  Occupation    Energy    Cen Mu Typ  Coefficients
    1.1     2.00000 -3845.20649     1  1  s    1.00000
    2.1     2.00000  -712.75581     1  2  s    1.00000
    3.1     2.00000  -179.76555     1  3  s    1.00000
    4.1     2.00000  -118.10266     1  1  d2-  0.99999
    5.1     2.00000  -118.10266     1  1  d2+  1.00000
    6.1     2.00000  -118.10266     1  1  d0   0.99999
    7.1     2.00000  -118.10266     1  1  d1+  0.99981
    8.1     2.00000  -118.10266     1  1  d1-  0.99981
    9.1     2.00000   -45.71845     1  4  s    1.00004
   10.1     2.00000   -23.67370     1  2  d0   1.00000
   11.1     2.00000   -23.67370     1  2  d2+  1.00000
   12.1     2.00000   -23.67370     1  2  d2-  1.00000
   13.1     2.00000   -23.67370     1  2  d1-  1.00000
   14.1     2.00000   -23.67370     1  2  d1+  1.00000
   15.1     2.00000   -10.01312     1  5  s    0.99839
   16.1     2.00000    -2.99317     1  3  d2+  1.00103
   17.1     2.00000    -2.99317     1  3  d2-  1.00103
   18.1     2.00000    -2.99317     1  3  d1-  1.00106
   19.1     2.00000    -2.99317     1  3  d1+  1.00106
   20.1     2.00000    -2.99317     1  3  d0   1.00107
   21.1     2.00000    -1.61963     1  6  s    0.98599
   22.1     0.46199    -0.04980     1  7  s    1.10404
   23.1     0.24283     0.04699     1  4  d2-  0.94397
   24.1     0.24283     0.04699     1  4  d2+  0.94397
   25.1     0.24283     0.04699     1  4  d1-  0.94397
   26.1     0.24283     0.04699     1  4  d1+  0.94397
   27.1     0.24283     0.04699     1  4  d0   0.94397
   28.1     0.07207     0.02918     1  7  s    1.04269    1 12  s    1.47319
    1.2     2.00000  -604.13010     1  1  pz   1.00000
    2.2     2.00000  -604.13010     1  1  py   0.99999
    3.2     2.00000  -604.13010     1  1  px   0.99999
    4.2     2.00000  -148.71852     1  2  px   1.00000
    5.2     2.00000  -148.71852     1  2  py   1.00000
    6.2     2.00000  -148.71852     1  2  pz   1.00000
    7.2     2.00000   -35.35678     1  3  py   0.99997
    8.2     2.00000   -35.35678     1  3  px   0.99997
    9.2     2.00000   -35.35678     1  3  pz   0.99999
   10.2     2.00000   -11.20062     1  1  f0   1.00000
   11.2     2.00000   -11.20062     1  1  f3+  1.00000
   12.2     2.00000   -11.20062     1  1  f3-  1.00000
   13.2     2.00000   -11.20062     1  1  f2+  0.99999
   14.2     2.00000   -11.20062     1  1  f2-  0.99999
   15.2     2.00000   -11.20062     1  1  f1+  0.99999
   16.2     2.00000   -11.20062     1  1  f1-  0.99999
   17.2     2.00000    -6.80443     1  4  pz   1.00027
   18.2     2.00000    -6.80443     1  4  py   1.00027
   19.2     2.00000    -6.80443     1  4  px   1.00027
   20.2     2.00000    -0.80853     1  5  py   0.99518
   21.2     2.00000    -0.80853     1  5  pz   0.99518
   22.2     2.00000    -0.80853     1  5  px   0.99518
   23.2     0.08393     0.03977     1  6  pz  -0.96836
   24.2     0.08393     0.03977     1  6  py  -0.96836
   25.2     0.08393     0.03977     1  6  px  -0.96836
 *** IN SYMMETRY  1 ORBITAL   4 SYMMETRY CONTAMINATION OF 0.477D-02 HAS BEEN REMOVED
 *** IN SYMMETRY  1 ORBITAL   5 SYMMETRY CONTAMINATION OF 0.295D-02 HAS BEEN REMOVED
 *** IN SYMMETRY  1 ORBITAL   6 SYMMETRY CONTAMINATION OF 0.475D-02 HAS BEEN REMOVED
 *** IN SYMMETRY  1 ORBITAL   7 SYMMETRY CONTAMINATION OF 0.194D-01 HAS BEEN REMOVED
 *** IN SYMMETRY  1 ORBITAL   8 SYMMETRY CONTAMINATION OF 0.193D-01 HAS BEEN REMOVED
 *** IN SYMMETRY  1 ORBITAL  10 SYMMETRY CONTAMINATION OF 0.164D-03 HAS BEEN REMOVED
 *** IN SYMMETRY  1 ORBITAL  11 SYMMETRY CONTAMINATION OF 0.151D-02 HAS BEEN REMOVED
 *** IN SYMMETRY  1 ORBITAL  12 SYMMETRY CONTAMINATION OF 0.128D-02 HAS BEEN REMOVED
 *** IN SYMMETRY  1 ORBITAL  13 SYMMETRY CONTAMINATION OF 0.529D-03 HAS BEEN REMOVED
 *** IN SYMMETRY  1 ORBITAL  14 SYMMETRY CONTAMINATION OF 0.100D-02 HAS BEEN REMOVED
 *** IN SYMMETRY  1 ORBITAL  16 SYMMETRY CONTAMINATION OF 0.852D-02 HAS BEEN REMOVED
 *** IN SYMMETRY  1 ORBITAL  17 SYMMETRY CONTAMINATION OF 0.852D-02 HAS BEEN REMOVED
 *** IN SYMMETRY  1 ORBITAL  18 SYMMETRY CONTAMINATION OF 0.236D-02 HAS BEEN REMOVED
 *** IN SYMMETRY  1 ORBITAL  19 SYMMETRY CONTAMINATION OF 0.236D-02 HAS BEEN REMOVED
 *** IN SYMMETRY  1 ORBITAL  20 SYMMETRY CONTAMINATION OF 0.754D-04 HAS BEEN REMOVED
 *** IN SYMMETRY  1 ORBITAL  30 SYMMETRY CONTAMINATION OF 0.233D-02 HAS BEEN REMOVED
 *** IN SYMMETRY  1 ORBITAL  31 SYMMETRY CONTAMINATION OF 0.233D-02 HAS BEEN REMOVED
 *** IN SYMMETRY  1 ORBITAL  32 SYMMETRY CONTAMINATION OF 0.889D-04 HAS BEEN REMOVED
 *** IN SYMMETRY  1 ORBITAL  33 SYMMETRY CONTAMINATION OF 0.889D-04 HAS BEEN REMOVED
 *** IN SYMMETRY  1 ORBITAL  35 SYMMETRY CONTAMINATION OF 0.324D-04 HAS BEEN REMOVED
 *** IN SYMMETRY  1 ORBITAL  36 SYMMETRY CONTAMINATION OF 0.324D-04 HAS BEEN REMOVED
 *** IN SYMMETRY  1 ORBITAL  38 SYMMETRY CONTAMINATION OF 0.130D-03 HAS BEEN REMOVED
 *** IN SYMMETRY  1 ORBITAL  39 SYMMETRY CONTAMINATION OF 0.130D-03 HAS BEEN REMOVED
 *** IN SYMMETRY  1 ORBITAL  42 SYMMETRY CONTAMINATION OF 0.579D-04 HAS BEEN REMOVED
 *** IN SYMMETRY  1 ORBITAL  43 SYMMETRY CONTAMINATION OF 0.579D-04 HAS BEEN REMOVED
 *** IN SYMMETRY  1 ORBITAL  47 SYMMETRY CONTAMINATION OF 0.106D-03 HAS BEEN REMOVED
 *** IN SYMMETRY  1 ORBITAL  48 SYMMETRY CONTAMINATION OF 0.106D-03 HAS BEEN REMOVED
 *** IN SYMMETRY  1 ORBITAL  49 SYMMETRY CONTAMINATION OF 0.184D-04 HAS BEEN REMOVED
 *** IN SYMMETRY  1 ORBITAL  50 SYMMETRY CONTAMINATION OF 0.184D-04 HAS BEEN REMOVED
 *** IN SYMMETRY  1 ORBITAL  54 SYMMETRY CONTAMINATION OF 0.326D-04 HAS BEEN REMOVED
 *** IN SYMMETRY  1 ORBITAL  55 SYMMETRY CONTAMINATION OF 0.326D-04 HAS BEEN REMOVED

 EXTRA SYMMETRY OF MOS IN SYMMETRY 1:   1 1 1 3 5 2 4 6 1 2   5 3 6 4 1 5 3 6 4 2   1 1 3 5 6 4 2 1 2 5   3 6 4 1 6 4 2 3 5 1
                                        2 3 5 6 4 1 6 4 3 5   2 6 4 3 5 2 1
 *** IN SYMMETRY  2 ORBITAL   2 SYMMETRY CONTAMINATION OF 0.476D-02 HAS BEEN REMOVED
 *** IN SYMMETRY  2 ORBITAL   3 SYMMETRY CONTAMINATION OF 0.476D-02 HAS BEEN REMOVED
 *** IN SYMMETRY  2 ORBITAL   4 SYMMETRY CONTAMINATION OF 0.155D-02 HAS BEEN REMOVED
 *** IN SYMMETRY  2 ORBITAL   5 SYMMETRY CONTAMINATION OF 0.155D-02 HAS BEEN REMOVED
 *** IN SYMMETRY  2 ORBITAL   7 SYMMETRY CONTAMINATION OF 0.526D-02 HAS BEEN REMOVED
 *** IN SYMMETRY  2 ORBITAL   8 SYMMETRY CONTAMINATION OF 0.526D-02 HAS BEEN REMOVED
 *** IN SYMMETRY  2 ORBITAL  10 SYMMETRY CONTAMINATION OF 0.917D-04 HAS BEEN REMOVED
 *** IN SYMMETRY  2 ORBITAL  11 SYMMETRY CONTAMINATION OF 0.140D-02 HAS BEEN REMOVED
 *** IN SYMMETRY  2 ORBITAL  12 SYMMETRY CONTAMINATION OF 0.140D-02 HAS BEEN REMOVED
 *** IN SYMMETRY  2 ORBITAL  13 SYMMETRY CONTAMINATION OF 0.512D-02 HAS BEEN REMOVED
 *** IN SYMMETRY  2 ORBITAL  14 SYMMETRY CONTAMINATION OF 0.512D-02 HAS BEEN REMOVED
 *** IN SYMMETRY  2 ORBITAL  15 SYMMETRY CONTAMINATION OF 0.365D-02 HAS BEEN REMOVED
 *** IN SYMMETRY  2 ORBITAL  16 SYMMETRY CONTAMINATION OF 0.365D-02 HAS BEEN REMOVED
 *** IN SYMMETRY  2 ORBITAL  18 SYMMETRY CONTAMINATION OF 0.227D-04 HAS BEEN REMOVED
 *** IN SYMMETRY  2 ORBITAL  19 SYMMETRY CONTAMINATION OF 0.227D-04 HAS BEEN REMOVED
 *** IN SYMMETRY  2 ORBITAL  20 SYMMETRY CONTAMINATION OF 0.106D-03 HAS BEEN REMOVED
 *** IN SYMMETRY  2 ORBITAL  22 SYMMETRY CONTAMINATION OF 0.106D-03 HAS BEEN REMOVED
 *** IN SYMMETRY  2 ORBITAL  26 SYMMETRY CONTAMINATION OF 0.130D-03 HAS BEEN REMOVED
 *** IN SYMMETRY  2 ORBITAL  27 SYMMETRY CONTAMINATION OF 0.130D-03 HAS BEEN REMOVED
 *** IN SYMMETRY  2 ORBITAL  33 SYMMETRY CONTAMINATION OF 0.523D-03 HAS BEEN REMOVED
 *** IN SYMMETRY  2 ORBITAL  34 SYMMETRY CONTAMINATION OF 0.523D-03 HAS BEEN REMOVED
 *** IN SYMMETRY  2 ORBITAL  36 SYMMETRY CONTAMINATION OF 0.238D-04 HAS BEEN REMOVED
 *** IN SYMMETRY  2 ORBITAL  37 SYMMETRY CONTAMINATION OF 0.125D-03 HAS BEEN REMOVED
 *** IN SYMMETRY  2 ORBITAL  38 SYMMETRY CONTAMINATION OF 0.123D-03 HAS BEEN REMOVED
 *** IN SYMMETRY  2 ORBITAL  44 SYMMETRY CONTAMINATION OF 0.388D-04 HAS BEEN REMOVED
 *** IN SYMMETRY  2 ORBITAL  45 SYMMETRY CONTAMINATION OF 0.416D-04 HAS BEEN REMOVED
 *** IN SYMMETRY  2 ORBITAL  46 SYMMETRY CONTAMINATION OF 0.147D-04 HAS BEEN REMOVED
 *** IN SYMMETRY  2 ORBITAL  52 SYMMETRY CONTAMINATION OF 0.190D-04 HAS BEEN REMOVED
 *** IN SYMMETRY  2 ORBITAL  53 SYMMETRY CONTAMINATION OF 0.196D-04 HAS BEEN REMOVED
 *** IN SYMMETRY  2 ORBITAL  54 SYMMETRY CONTAMINATION OF 0.102D-04 HAS BEEN REMOVED
 *** IN SYMMETRY  2 ORBITAL  62 SYMMETRY CONTAMINATION OF 0.147D-04 HAS BEEN REMOVED
 *** IN SYMMETRY  2 ORBITAL  63 SYMMETRY CONTAMINATION OF 0.146D-04 HAS BEEN REMOVED
 *** IN SYMMETRY  2 ORBITAL  64 SYMMETRY CONTAMINATION OF 0.201D+00 HAS BEEN REMOVED
 *** IN SYMMETRY  2 ORBITAL  65 SYMMETRY CONTAMINATION OF 0.201D+00 HAS BEEN REMOVED
 EXTRA SYMMETRY OF MOS IN SYMMETRY 2:   3 2 1 1 2 3 2 1 3 6   7 910 8 4 5 3 2 1 2   3 1 3 2 1 2 1 3 2 1   3 6 5 4 810 7 9 2 1
                                        3 7 9 5 4 6 810 6 8  10 5 4 7 9 2 1 3 6 8  10 7 9 5 4 2 1 3
 
 Natural orbital dump (state averaged) at molpro section 2140.2 (Orbital set 2)
 
 Reoptimze the CI vectors with natural orbitals 
 
 CI Coefficients of symmetry 1 (Singlet)
 =======================================

 State:                1               2               3               4               5               6               7
 2000000 000      0.96616608     -0.00000000      0.00000000     -0.00000000     -0.00000000      0.00000000      0.03063637
 b00000a 000      0.01160347      0.00000000     -0.00000000      0.00000000      0.00000000     -0.00000000     -0.66967833
 a00000b 000     -0.01160347     -0.00000000      0.00000000     -0.00000000     -0.00000000      0.00000000      0.66967833
 ab00000 000     -0.00000000      0.00044062      0.00007934     -0.00036204      0.64569298      0.00042966      0.00000000
 ba00000 000      0.00000000     -0.00044062     -0.00007934      0.00036204     -0.64569298     -0.00042966     -0.00000000
 a000b00 000      0.00000000     -0.00082242      0.64569273      0.00034749     -0.00007847     -0.00017024     -0.00000000
 b000a00 000     -0.00000000      0.00082242     -0.64569273     -0.00034749      0.00007847      0.00017024      0.00000000
 a00b000 000      0.00000000      0.64569269      0.00082243     -0.00007633     -0.00044081      0.00006854     -0.00000000
 b00a000 000     -0.00000000     -0.64569269     -0.00082243      0.00007633      0.00044081     -0.00006854      0.00000000
 a0b0000 000      0.00000000     -0.00006739      0.00016266      0.01376029     -0.00042182      0.64554658     -0.00000000
 b0a0000 000     -0.00000000      0.00006739     -0.00016266     -0.01376029      0.00042182     -0.64554658      0.00000000
 a0000b0 000      0.00000000      0.00007847     -0.00035089      0.64554654      0.00037110     -0.01375995      0.00000000
 b0000a0 000     -0.00000000     -0.00007847      0.00035089     -0.64554654     -0.00037110      0.01375995     -0.00000000
 0b000a0 000     -0.00000000      0.00007818      0.00001408     -0.00006424      0.11456948      0.00007624     -0.00000000
 0a000b0 000      0.00000000     -0.00007818     -0.00001408      0.00006424     -0.11456948     -0.00007624      0.00000000
 0200000 000     -0.05026114     -0.00001392      0.00006226     -0.11454350     -0.00006585      0.00244152     -0.10539743
 0020000 000     -0.05026114     -0.00001392      0.00006226     -0.11454350     -0.00006585      0.00244152     -0.10539743
 0000020 000     -0.05026114      0.00001392     -0.00006226      0.11454350      0.00006585     -0.00244152     -0.10539742
 00b00a0 000     -0.00000000     -0.00001196      0.00002886      0.00244158     -0.00007485      0.11454351      0.00000000
 00a00b0 000      0.00000000      0.00001196     -0.00002886     -0.00244158      0.00007485     -0.11454351     -0.00000000
 0000000 200     -0.13329916      0.00003411     -0.00015254      0.28062160      0.00016132     -0.00598151      0.09519014
 0002000 000     -0.05026114      0.00001732     -0.00005613      0.05515728      0.00009774     -0.10041835     -0.10539743
 000ba00 000      0.00000000     -0.00006771     -0.00001219      0.00005563     -0.09922008     -0.00006602      0.00000000
 000ab00 000     -0.00000000      0.00006771      0.00001219     -0.00005563      0.09922008      0.00006602     -0.00000000
 0b0a000 000      0.00000000      0.00012638     -0.09922005     -0.00005340      0.00001206      0.00002616      0.00000000
 0a0b000 000     -0.00000000     -0.00012638      0.09922005      0.00005340     -0.00001206     -0.00002616     -0.00000000
 00a0b00 000     -0.00000000     -0.00012638      0.09922005      0.00005340     -0.00001206     -0.00002616     -0.00000000
 00b0a00 000      0.00000000      0.00012638     -0.09922005     -0.00005340      0.00001206      0.00002616      0.00000000
 0a00b00 000      0.00000000      0.09922004      0.00012638     -0.00001173     -0.00006774      0.00001053      0.00000000
 0b00a00 000     -0.00000000     -0.09922004     -0.00012638      0.00001173      0.00006774     -0.00001053     -0.00000000
 00ba000 000      0.00000000      0.09922004      0.00012638     -0.00001173     -0.00006774      0.00001053     -0.00000000
 00ab000 000     -0.00000000     -0.09922004     -0.00012638      0.00001173      0.00006774     -0.00001053      0.00000000
 0000200 000     -0.05026114     -0.00000339     -0.00000614      0.05938622     -0.00003190      0.09797683     -0.10539742
 0000000 002     -0.13329916     -0.00004243      0.00013750     -0.13513054     -0.00023946      0.24601620      0.09519014
 0000000 0ba      0.00000000     -0.00016588     -0.00002987      0.00013629     -0.24308057     -0.00016175     -0.00000000
 0000000 0ab     -0.00000000      0.00016588      0.00002987     -0.00013629      0.24308057      0.00016175      0.00000000
 0000000 b0a     -0.00000000      0.00030961     -0.24308047     -0.00013082      0.00002954      0.00006409      0.00000000
 0000000 a0b      0.00000000     -0.00030961      0.24308047      0.00013082     -0.00002954     -0.00006409     -0.00000000
 0000000 ba0     -0.00000000     -0.24308046     -0.00030961      0.00002874      0.00016595     -0.00002580      0.00000000
 0000000 ab0      0.00000000      0.24308046      0.00030961     -0.00002874     -0.00016595      0.00002580     -0.00000000
 0000000 020     -0.13329916      0.00000831      0.00001503     -0.14549107      0.00007814     -0.24003470      0.09519014
 0000ba0 000     -0.00000000      0.00007296     -0.05728472     -0.00003083      0.00000696      0.00001510      0.00000000
 0000ab0 000      0.00000000     -0.00007296      0.05728472      0.00003083     -0.00000696     -0.00001510     -0.00000000
 000a0b0 000      0.00000000      0.05728472      0.00007296     -0.00000677     -0.00003911      0.00000608     -0.00000000
 000b0a0 000     -0.00000000     -0.05728472     -0.00007296      0.00000677      0.00003911     -0.00000608      0.00000000
 0000002 000     -0.01780195     -0.00000000      0.00000000     -0.00000000     -0.00000000      0.00000000      0.13927206
 0b0000a 000     -0.00000000      0.00002180      0.00000393     -0.00001792      0.03195319      0.00002126      0.00000000
 0a0000b 000      0.00000000     -0.00002180     -0.00000393      0.00001792     -0.03195319     -0.00002126     -0.00000000
 0000a0b 000     -0.00000000      0.00004070     -0.03195318     -0.00001720      0.00000388      0.00000842      0.00000000
 0000b0a 000      0.00000000     -0.00004070      0.03195318      0.00001720     -0.00000388     -0.00000842     -0.00000000
 000b00a 000      0.00000000      0.03195318      0.00004070     -0.00000378     -0.00002181      0.00000339     -0.00000000
 000a00b 000     -0.00000000     -0.03195318     -0.00004070      0.00000378      0.00002181     -0.00000339      0.00000000
 00000ba 000      0.00000000      0.00000388     -0.00001736      0.03194595      0.00001836     -0.00068093     -0.00000000
 00000ab 000     -0.00000000     -0.00000388      0.00001736     -0.03194595     -0.00001836      0.00068093      0.00000000
 00b000a 000     -0.00000000     -0.00000334      0.00000805      0.00068095     -0.00002087      0.03194595      0.00000000
 00a000b 000      0.00000000      0.00000334     -0.00000805     -0.00068095      0.00002087     -0.03194595     -0.00000000
 
 Energy:     -24984.79210113 -24984.71104454 -24984.71104454 -24984.71104454 -24984.71104454 -24984.71104454 -24984.66990114

 State:                8               9              10              11              12
 2000000 000      0.00000000     -0.00000000      0.00000000      0.00000000     -0.00000000
 b00000a 000     -0.00000000     -0.00000000      0.00000000      0.00000000     -0.00000000
 a00000b 000      0.00000000      0.00000000     -0.00000000     -0.00000000      0.00000000
 ab00000 000      0.00000030      0.00000277     -0.00619287      0.00000197      0.00000044
 ba00000 000     -0.00000030     -0.00000277      0.00619287     -0.00000197     -0.00000044
 a000b00 000      0.00000076      0.00000032      0.00000044      0.00000839      0.00619287
 b000a00 000     -0.00000076     -0.00000032     -0.00000044     -0.00000839     -0.00619287
 a00b000 000     -0.00000001      0.00000022     -0.00000197     -0.00619287      0.00000839
 b00a000 000      0.00000001     -0.00000022      0.00000197      0.00619287     -0.00000839
 a0b0000 000     -0.00006787     -0.00619250     -0.00000278     -0.00000022      0.00000033
 b0a0000 000      0.00006787      0.00619250      0.00000278      0.00000022     -0.00000033
 a0000b0 000     -0.00619250      0.00006787     -0.00000027      0.00000001      0.00000076
 b0000a0 000      0.00619250     -0.00006787      0.00000027     -0.00000001     -0.00000076
 0b000a0 000      0.00002147      0.00020081     -0.44849618      0.00014293      0.00003189
 0a000b0 000     -0.00002147     -0.00020081      0.44849618     -0.00014293     -0.00003189
 0200000 000      0.44846931     -0.00491534      0.00001927     -0.00000105     -0.00005496
 0020000 000      0.44846931     -0.00491534      0.00001927     -0.00000105     -0.00005496
 0000020 000     -0.44846931      0.00491534     -0.00001927      0.00000105      0.00005496
 00b00a0 000     -0.00491533     -0.44846927     -0.00020104     -0.00001599      0.00002364
 00a00b0 000      0.00491533      0.44846927      0.00020104      0.00001599     -0.00002364
 0000000 200      0.43333216     -0.00474943      0.00001862     -0.00000101     -0.00005311
 0002000 000     -0.21997786      0.39084345      0.00016447      0.00001437      0.00000701
 000ba00 000     -0.00001860     -0.00017391      0.38840909     -0.00012378     -0.00002762
 000ab00 000      0.00001860      0.00017391     -0.38840909      0.00012378      0.00002762
 0b0a000 000     -0.00004782     -0.00001992     -0.00002780     -0.00052601     -0.38840879
 0a0b000 000      0.00004782      0.00001992      0.00002780      0.00052601      0.38840879
 00a0b00 000      0.00004782      0.00001992      0.00002780      0.00052601      0.38840879
 00b0a00 000     -0.00004782     -0.00001992     -0.00002780     -0.00052601     -0.38840879
 0a00b00 000     -0.00000069      0.00001394     -0.00012374     -0.38840877      0.00052602
 0b00a00 000      0.00000069     -0.00001394      0.00012374      0.38840877     -0.00052602
 00ba000 000     -0.00000069      0.00001394     -0.00012374     -0.38840877      0.00052602
 00ab000 000      0.00000069     -0.00001394      0.00012374      0.38840877     -0.00052602
 0000200 000     -0.22849146     -0.38592811     -0.00018374     -0.00001332      0.00004795
 0000000 002     -0.21255296      0.37765134      0.00015892      0.00001389      0.00000677
 0000000 0ba      0.00001797      0.00016804     -0.37529914      0.00011960      0.00002669
 0000000 0ab     -0.00001797     -0.00016804      0.37529914     -0.00011960     -0.00002669
 0000000 b0a      0.00004620      0.00001924      0.00002686      0.00050825      0.37529885
 0000000 a0b     -0.00004620     -0.00001924     -0.00002686     -0.00050825     -0.37529885
 0000000 ba0     -0.00000066      0.00001347     -0.00011956     -0.37529884      0.00050826
 0000000 ab0      0.00000066     -0.00001347      0.00011956      0.37529884     -0.00050826
 0000000 020     -0.22077920     -0.37290190     -0.00017754     -0.00001287      0.00004633
 0000ba0 000     -0.00002761     -0.00001150     -0.00001605     -0.00030369     -0.22424792
 0000ab0 000      0.00002761      0.00001150      0.00001605      0.00030369      0.22424792
 000a0b0 000     -0.00000040      0.00000805     -0.00007144     -0.22424791      0.00030370
 000b0a0 000      0.00000040     -0.00000805      0.00007144      0.22424791     -0.00030370
 0000002 000      0.00000000      0.00000000     -0.00000000     -0.00000000      0.00000000
 0b0000a 000     -0.00000403     -0.00003773      0.08427099     -0.00002686     -0.00000599
 0a0000b 000      0.00000403      0.00003773     -0.08427099      0.00002686      0.00000599
 0000a0b 000      0.00001037      0.00000432      0.00000603      0.00011413      0.08427093
 0000b0a 000     -0.00001037     -0.00000432     -0.00000603     -0.00011413     -0.08427093
 000b00a 000      0.00000015     -0.00000302      0.00002685      0.08427093     -0.00011413
 000a00b 000     -0.00000015      0.00000302     -0.00002685     -0.08427093      0.00011413
 00000ba 000      0.08426594     -0.00092358      0.00000362     -0.00000020     -0.00001033
 00000ab 000     -0.08426594      0.00092358     -0.00000362      0.00000020      0.00001033
 00b000a 000      0.00092357      0.08426594      0.00003777      0.00000300     -0.00000444
 00a000b 000     -0.00092357     -0.08426594     -0.00003777     -0.00000300      0.00000444
 
 Energy:     -24984.65022252 -24984.65022252 -24984.65022252 -24984.65022252 -24984.65022252
 
 
 CI Coefficients of symmetry 1 (Triplet)
 =======================================

 State:                1               2               3               4               5               6               7
 a00000a 000     -0.00000000     -0.00000000      0.00000000      0.00000000     -0.00000000      1.00000000      0.00000000
 a000a00 000      0.00000076      0.00017414     -0.00061306      0.99999939      0.00011650     -0.00000000      0.00000000
 a00a000 000      0.00029125     -0.00005724      0.99999937      0.00061307     -0.00001479     -0.00000000     -0.00000000
 a0000a0 000     -0.00009143     -0.00217977      0.00001476     -0.00011612      0.99999722      0.00000000      0.00000000
 aa00000 000      0.99999719      0.00217393     -0.00029112     -0.00000133      0.00009617      0.00000000      0.00000000
 00a00a0 000      0.00000000     -0.00000000     -0.00000000      0.00000000     -0.00000000     -0.00000000     -0.00000000
 a0a0000 000     -0.00217412      0.99999485      0.00005801     -0.00017435      0.00217954      0.00000000     -0.00000000
 0a000a0 000     -0.00000000     -0.00000000      0.00000000      0.00000000     -0.00000000     -0.00000000      0.00000000
 000aa00 000     -0.00000000      0.00000000     -0.00000000      0.00000000      0.00000000      0.00000000     -0.32193367
 0a0a000 000     -0.00000000      0.00000000     -0.00000000      0.00000000      0.00000000     -0.00000000      0.00001542
 0a00a00 000     -0.00000000     -0.00000000      0.00000000     -0.00000000     -0.00000000     -0.00000000     -0.00018549
 0000000 0aa     -0.00000000      0.00000000      0.00000000     -0.00000000      0.00000000     -0.00000000      0.69411326
 0000000 a0a     -0.00000000     -0.00000000      0.00000000     -0.00000000     -0.00000000     -0.00000000      0.00003325
 0000000 aa0     -0.00000000      0.00000000     -0.00000000     -0.00000000      0.00000000     -0.00000000     -0.00039992
 00aa000 000      0.00000000     -0.00000000      0.00000000      0.00000000      0.00000000      0.00000000      0.00018549
 00a0a00 000      0.00000000     -0.00000000      0.00000000     -0.00000000     -0.00000000     -0.00000000      0.00001542
 0aa0000 000      0.00000000     -0.00000000      0.00000000     -0.00000000      0.00000000      0.00000000     -0.64386735
 000a0a0 000     -0.00000000      0.00000000     -0.00000000     -0.00000000      0.00000000     -0.00000000     -0.00032127
 0000aa0 000      0.00000000     -0.00000000      0.00000000     -0.00000000     -0.00000000     -0.00000000      0.00002671
 
 Energy:     -24984.72068445 -24984.72068445 -24984.72068445 -24984.72068445 -24984.72068445 -24984.67747741 -24984.65352489

 State:                8               9              10              11              12              13              14
 a00000a 000      0.00000000      0.00000000      0.00000000      0.00000000      0.00000000      0.00000000      0.00000000
 a000a00 000      0.00000000      0.00000000     -0.00000000     -0.00000000     -0.00000000      0.00000000     -0.00000000
 a00a000 000      0.00000000     -0.00000000      0.00000000     -0.00000000      0.00000000     -0.00000000     -0.00000000
 a0000a0 000     -0.00000000     -0.00000000      0.00000000      0.00000000      0.00000000      0.00000000      0.00000000
 aa00000 000      0.00000000      0.00000000      0.00000000     -0.00000000      0.00000000      0.00000000     -0.00000000
 00a00a0 000     -0.00000000      0.00000000      0.00005358      0.00001333     -0.00222946      0.99999693      0.00104181
 a0a0000 000     -0.00000000      0.00000000      0.00000000      0.00000000     -0.00000000      0.00000000      0.00000000
 0a000a0 000      0.00000000      0.00000000      0.00001761     -0.00013267      0.99996039      0.00223836     -0.00860501
 000aa00 000     -0.00018546      0.00001568      0.00003949      0.00013651      0.00769875     -0.00091465      0.89439352
 0a0a000 000      0.00045260      0.32193341      0.77963994      0.00149217     -0.00001008     -0.00016991     -0.00004479
 0a00a00 000      0.32193336     -0.00045259     -0.00152960      0.75208658     -0.00007729      0.00000755      0.00005973
 0000000 0aa      0.00039987     -0.00003382     -0.00000000     -0.00000000     -0.00000000      0.00000000     -0.00000000
 0000000 a0a      0.00097584      0.69411269     -0.00000000      0.00000000     -0.00000000      0.00000000      0.00000000
 0000000 aa0      0.69411258     -0.00097582     -0.00000000      0.00000000      0.00000000     -0.00000000     -0.00000000
 00aa000 000     -0.32193336      0.00045259     -0.00138151      0.65675892      0.00030722     -0.00003002     -0.00032083
 00a0a00 000      0.00045260      0.32193341     -0.61934876     -0.00144777      0.00001623     -0.00015541      0.00001249
 0aa0000 000     -0.00037093      0.00003137     -0.00001974     -0.00006826     -0.00384937      0.00045733     -0.44719676
 000a0a0 000      0.55760492     -0.00078391      0.00008550     -0.05503745      0.00022200     -0.00002169     -0.00021972
 0000aa0 000      0.00078392      0.55760501     -0.09254416     -0.00002563     -0.00000355      0.00018782      0.00001864
 
 Energy:     -24984.65352489 -24984.65352489 -24984.64770488 -24984.64770488 -24984.64770488 -24984.64770488 -24984.64770488

 State:               15              16
 a00000a 000     -0.00000000      0.00000000
 a000a00 000     -0.00000000     -0.00000000
 a00a000 000      0.00000000     -0.00000000
 a0000a0 000     -0.00000000      0.00000000
 aa00000 000     -0.00000000      0.00000000
 00a00a0 000      0.00003732      0.00029225
 a0a0000 000      0.00000000      0.00000000
 0a000a0 000     -0.00036686     -0.00000713
 000aa00 000      0.00032112      0.00001985
 0a0a000 000      0.00089991      0.43835887
 0a00a00 000     -0.48410958      0.00115419
 0000000 0aa     -0.00000000     -0.00000000
 0000000 a0a     -0.00000000     -0.00000001
 0000000 aa0      0.00000001     -0.00000000
 00aa000 000      0.60717753     -0.00102505
 00a0a00 000      0.00124619      0.64529330
 0aa0000 000     -0.00016056     -0.00000993
 000a0a0 000      0.63005491     -0.00125818
 0000aa0 000     -0.00123905     -0.62564687
 
 Energy:     -24984.64770488 -24984.64770488
 


 **********************************************************************************************************************************
 DATASETS  * FILE   NREC   LENGTH (MB)   RECORD NAMES
              1      24      158.71       500      610      700      900      950      970     1000      129      960     1700   
                                          VAR    BASINP    GEOM    SYMINP    ZMAT    AOBASIS   BASIS     P2S    ABASIS    OPER   
                                         1101     1401     1411     1412     1650     1100     1400     1410     1200     1210   
                                          SR      EKINR    POTR     PVPR    MOLCAS      S      EKIN      POT      H0       H01  
                                         1080     1600     1380     1700(1)
                                         AOSYM     SMH     JKOP     OPER   

              2       5        5.45       700     1000      520     2100     2140   
                                         GEOM     BASIS   MCVARS     RHF     MCSCF   

 PROGRAMS   *        TOTAL     MULTI   RHF-SCF       INT
 CPU TIMES  *        22.85      8.59      0.14     13.95
 REAL TIME  *        30.30 SEC
 DISK USED  *       164.24 MB (local),        1.03 GB (total)
 SF USED    *       307.60 MB
 GA USED    *         0.00 MB       (max)       0.00 MB       (current)
 **********************************************************************************************************************************

 Energies and &lt;L**2&gt; values

          ENERGY     LL
    -24984.79210    0.0
    -24984.71104    6.0
    -24984.71104    6.0
    -24984.71104    6.0
    -24984.71104    6.0
    -24984.71104    6.0
    -24984.66990    0.0
    -24984.65022    6.0
    -24984.65022    6.0
    -24984.65022    6.0
    -24984.65022    6.0
    -24984.65022    6.0
    -24984.72068    6.0
    -24984.72068    6.0
    -24984.72068    6.0
    -24984.72068    6.0
    -24984.72068    6.0
    -24984.67748    0.0
    -24984.65352    2.0
    -24984.65352    2.0
    -24984.65352    2.0
    -24984.64770   12.0
    -24984.64770   12.0
    -24984.64770   12.0
    -24984.64770   12.0
    -24984.64770   12.0
    -24984.64770   12.0
    -24984.64770   12.0
                                                  


 PROGRAM * CI (Multireference internally contracted CI)     Authors: H.-J. Werner, P.J. Knowles, 1987


 Convergence thresholds:  THRVAR = 1.00D-08  THRDEN = 1.00D-06

 Number of optimized states: 12  Roots:   1   2   3   4   5   6   7   8   9  10  11  12
 Number of reference states: 12  Roots:   1   2   3   4   5   6   7   8   9  10  11  12

 Reference symmetry:                   1   Singlet 
 Number of electrons:                 88
 Maximum number of shells:             5
 Maximum number of spin couplings:    14

 Reference space:       34 conf       34 CSFs
 N elec internal:    29620 conf    75790 CSFs
 N-1 el internal:     9955 conf    31960 CSFs
 N-2 el internal:     1621 conf     5743 CSFs

 Number of electrons in valence space:                     20
 Maximum number of open shell orbitals in reference space:  2
 Maximum number of open shell orbitals in internal spaces:  8


 Number of core orbitals:          34 (  15  19 )
 Number of closed-shell orbitals:   9 (   6   3 )
 Number of active  orbitals:       10 (   7   3 )
 Number of external orbitals:      72 (  29  43 )

 Molecular orbitals read from record     2140.2  Type=MCSCF/NATURAL (state averaged)

 Integral transformation finished. Total CPU:   0.13 sec, npass=  1  Memory used:   1.80 MW


 Number of p-space configurations:  34

 Reference wavefunction optimized for reference space (refopt=1)

 State     Reference Energy 
     1    -24984.79210113
     2    -24984.71104454
     3    -24984.71104454
     4    -24984.71104454
     5    -24984.71104454
     6    -24984.71104454
     7    -24984.66990114
     8    -24984.65022252
     9    -24984.65022252
    10    -24984.65022252
    11    -24984.65022252
    12    -24984.65022252

 Number of blocks in overlap matrix:  1099   Smallest eigenvalue:  0.77D+00
 Number of N-2 electron functions:    1153
 Number of N-1 electron functions:   31960

 Number of internal configurations:                38116
 Number of singly external configurations:       1148936
 Number of doubly external configurations:       1504729
 Total number of contracted configurations:      2691781
 Total number of uncontracted configurations:    8644507

 Diagonal Coupling coefficients finished.               Storage:24934866 words, CPU-Time:     44.31 seconds.
 Energy denominators for pairs finished in 1 passes.    Storage: 1100569 words, CPU-time:      0.16 seconds.

  ITER. STATE  ROOT     SQ.NORM     CORR.ENERGY   TOTAL ENERGY   ENERGY CHANGE       DEN1      VAR(S)    VAR(P)      TIME
    1     1     1     1.00000000     0.00000000-24984.79210113     0.00000000    -0.36436918  0.37D-01  0.62D-01    55.23
    1     2     2     1.00000000     0.00000000-24984.71104454     0.00000000    -0.36636937  0.42D-01  0.66D-01    55.23
    1     3     3     1.00000000     0.00000000-24984.71104454     0.00000000    -0.36639361  0.42D-01  0.66D-01    55.23
    1     4     4     1.00000000     0.00000000-24984.71104454     0.00000000    -0.36614813  0.42D-01  0.66D-01    55.23
    1     5     5     1.00000000     0.00000000-24984.71104454    -0.00000000    -0.36626782  0.42D-01  0.66D-01    55.23
    1     6     6     1.00000000     0.00000000-24984.71104454    -0.00000000    -0.36621804  0.42D-01  0.66D-01    55.23
    1     7     7     1.00000000     0.00000000-24984.66990114     0.00000000    -0.35998336  0.44D-01  0.62D-01    55.23
    1     8     8     1.00000000     0.00000000-24984.65022252    -0.00000000    -0.36143783  0.34D-01  0.69D-01    55.23
    1     9     9     1.00000000     0.00000000-24984.65022252    -0.00000000    -0.36172307  0.35D-01  0.70D-01    55.23
    1    10    10     1.00000000     0.00000000-24984.65022252     0.00000000    -0.36201076  0.35D-01  0.70D-01    55.23
    1    11    11     1.00000000     0.00000000-24984.65022252     0.00000000    -0.36207081  0.35D-01  0.70D-01    55.23
    1    12    12     1.00000000     0.00000000-24984.65022252     0.00000000    -0.36206284  0.35D-01  0.70D-01    55.23
    2     1     1     1.07077713    -0.31848005-24985.11058119    -0.31848005    -0.00667866  0.18D-02  0.79D-03   320.36
    2     2     2     1.07597510    -0.31600005-24985.02704459    -0.31600005    -0.00644100  0.18D-02  0.89D-03   320.36
    2     3     3     1.07604495    -0.31598335-24985.02702789    -0.31598335    -0.00646606  0.18D-02  0.90D-03   320.36
    2     4     4     1.07612292    -0.31597098-24985.02701551    -0.31597098    -0.00648329  0.18D-02  0.90D-03   320.36
    2     5     5     1.07618104    -0.31594876-24985.02699330    -0.31594876    -0.00650759  0.18D-02  0.91D-03   320.36
    2     6     6     1.07617950    -0.31594789-24985.02699242    -0.31594789    -0.00650841  0.18D-02  0.90D-03   320.36
    2     7     7     1.07437125    -0.31466854-24984.98456968    -0.31466854    -0.00664333  0.23D-02  0.83D-03   320.36
    2     8     8     1.07377106    -0.31236250-24984.96258502    -0.31236250    -0.00602573  0.15D-02  0.94D-03   320.36
    2     9     9     1.07388364    -0.31228485-24984.96250737    -0.31228485    -0.00612469  0.16D-02  0.96D-03   320.36
[...]
 48  1     4    1  |1 1>-         0.00%    0.00%    0.00%    0.00%    0.00%    0.00%    0.00%    0.00%
 49  1     5    1  |1 1>-         0.00%    0.00%    0.00%    0.00%    0.00%    0.00%    0.00%    0.00%
 50  1     6    1  |1 1>-         0.07%    0.00%    0.00%    0.00%    0.00%    0.00%    0.00%    0.00%
 51  1     7    1  |1 1>-         0.00%    0.00%    0.00%    0.00%   11.95%    0.00%    0.00%    0.00%
 52  1     8    1  |1 1>-         0.00%    0.00%    0.00%    0.00%    0.00%    0.00%    0.00%    0.01%
 53  1     9    1  |1 1>-         0.00%    0.00%   32.78%    0.00%    0.00%    0.00%    1.10%    0.00%
 54  1    10    1  |1 1>-         0.00%    0.00%    0.00%    0.27%    0.00%   33.96%    0.00%    0.00%
 55  1    11    1  |1 1>-         0.00%    0.00%   22.58%    0.00%    0.00%    0.00%   26.48%    0.00%
 56  1    12    1  |1 1>-         0.00%    0.00%    0.00%    0.00%   21.24%    0.00%    0.00%    0.00%
 57  1    13    1  |1 1>-         0.00%    0.00%    0.00%    0.00%    0.00%    0.00%    0.00%   49.95%
 58  1    14    1  |1 1>-         0.00%    0.00%    0.00%    0.00%    0.00%    0.00%    0.01%    0.00%
 59  1    15    1  |1 1>-         0.00%    0.00%    0.00%    0.00%    0.00%    0.00%    0.00%    0.00%
 60  1    16    1  |1 1>-         0.00%   49.96%    0.00%    0.00%    0.00%    0.00%    0.00%    0.00%

   Total
 Nr Sym  State Sym Spin / Nr.     41       42       43       44       45       46       47       48

  1  1     1    1  |0 0>          0.00%    0.00%    0.00%    0.00%    0.00%    0.00%    0.00%    0.00%
  2  1     2    1  |0 0>          0.00%    0.00%    0.00%    0.00%    0.00%    0.06%    0.00%    0.00%
  3  1     3    1  |0 0>          0.00%    0.06%    0.00%    0.00%    0.00%    0.00%    0.00%    0.00%
  4  1     4    1  |0 0>          0.00%    0.00%    0.06%    0.00%    0.00%    0.00%    0.00%    0.00%
  5  1     5    1  |0 0>          0.00%    0.00%    0.00%    0.06%    0.00%    0.00%    0.00%    0.00%
  6  1     6    1  |0 0>          0.00%    0.00%    0.00%    0.00%    0.06%    0.00%    0.00%    0.00%
  7  1     7    1  |0 0>          0.00%    0.00%    0.00%    0.00%    0.00%    0.00%    0.00%    0.00%
  8  1     8    1  |0 0>          0.00%    0.00%    0.00%   46.54%    0.00%    0.00%    0.00%    0.00%
  9  1     9    1  |0 0>          0.00%    0.00%    0.00%    0.00%   46.54%    0.00%    0.00%    0.00%
 10  1    10    1  |0 0>          0.02%    0.00%   46.58%    0.00%    0.00%    0.00%    0.00%    0.00%
 11  1    11    1  |0 0>          0.00%   46.56%    0.00%    0.00%    0.00%    0.03%    0.00%    0.00%
 12  1    12    1  |0 0>          0.00%    0.03%    0.00%    0.00%    0.00%   46.49%    0.00%    0.00%
 13  1     1    1  |1 1>+         0.00%    0.00%    0.00%    0.00%    0.00%    0.00%    0.00%    0.00%
 14  1     2    1  |1 1>+         0.00%    0.00%    0.00%    0.00%    0.00%    0.00%    0.00%    0.00%
 15  1     3    1  |1 1>+         0.00%    0.00%    0.00%    0.00%    0.00%    0.00%    0.00%    0.00%
 16  1     4    1  |1 1>+         0.00%    0.00%    0.00%    0.00%    0.00%    0.00%    0.00%    0.00%
 17  1     5    1  |1 1>+         0.00%    0.00%    0.00%    0.00%    0.00%    0.00%    0.00%    0.00%
 18  1     6    1  |1 1>+         0.00%    0.00%    0.00%    0.00%    0.00%    0.00%    0.00%    0.00%
 19  1     7    1  |1 1>+        12.29%    0.00%   10.96%    0.00%    0.00%    0.00%    0.00%   50.01%
 20  1     8    1  |1 1>+         0.00%   10.77%    0.00%    0.00%    0.00%    0.00%   47.44%    0.00%
 21  1     9    1  |1 1>+         0.00%    0.00%    0.00%    0.00%    6.48%    0.00%    0.00%    0.00%
 22  1    10    1  |1 1>+         0.00%    0.00%    0.00%    6.12%    0.00%    0.00%    0.00%    0.00%
 23  1    11    1  |1 1>+         0.00%    0.00%    0.00%    0.00%    5.08%    0.00%    0.00%    0.00%
 24  1    12    1  |1 1>+        20.61%    0.00%    0.61%    0.00%    0.00%    0.00%    0.00%    0.01%
 25  1    13    1  |1 1>+         0.00%    0.59%    0.00%    0.00%    0.00%    8.43%    1.02%    0.00%
 26  1    14    1  |1 1>+         0.00%    0.00%    0.00%    0.00%   11.97%    0.00%    0.00%    0.00%
 27  1    15    1  |1 1>+         0.00%    0.00%   11.97%    0.00%    0.00%    0.00%    0.00%    0.00%
 28  1    16    1  |1 1>+         0.00%   11.93%    0.00%    0.00%    0.00%    3.98%    0.00%    0.00%
 29  1     1    1  |1 0>          0.00%    0.00%    0.00%    0.00%    0.00%    0.00%    0.00%    0.00%
 30  1     2    1  |1 0>          0.00%    0.00%    0.00%    0.00%    0.00%    0.00%    0.00%    0.00%
 31  1     3    1  |1 0>          0.00%    0.00%    0.00%    0.00%    0.00%    0.00%    0.00%    0.00%
 32  1     4    1  |1 0>          0.00%    0.00%    0.00%    0.00%    0.00%    0.00%    0.00%    0.00%
 33  1     5    1  |1 0>          0.00%    0.00%    0.00%    0.00%    0.00%    0.00%    0.00%    0.00%
 34  1     6    1  |1 0>          0.00%    0.00%    0.00%    0.00%    0.00%    0.00%    0.00%    0.00%
 35  1     7    1  |1 0>          0.00%    0.00%    0.00%    0.01%    0.00%    0.00%    0.00%    0.00%
 36  1     8    1  |1 0>          0.00%    0.00%    0.00%    0.00%    0.01%    0.00%    0.00%    0.00%
 37  1     9    1  |1 0>          0.00%    6.74%    0.00%    0.00%    0.00%    0.00%    0.00%    0.00%
 38  1    10    1  |1 0>         34.07%    0.00%    6.28%    0.00%    0.00%    0.00%    0.00%    0.00%
 39  1    11    1  |1 0>          0.00%    0.00%    0.00%    0.00%    0.00%   12.72%    3.13%    0.00%
 40  1    12    1  |1 0>          0.00%    0.00%    0.00%   11.73%    0.00%    0.00%    0.00%    0.00%
 41  1    13    1  |1 0>          0.00%    0.00%    0.00%    0.00%   11.73%    0.00%    0.00%    0.00%
 42  1    14    1  |1 0>          0.00%    0.00%    0.00%    0.00%    0.00%   15.90%    0.00%    0.00%
 43  1    15    1  |1 0>          0.00%    0.00%    0.00%   12.00%    0.00%    0.00%    0.00%    0.00%
 44  1    16    1  |1 0>          0.00%    0.00%    0.00%    0.00%   12.00%    0.00%    0.00%    0.00%
 45  1     1    1  |1 1>-         0.00%    0.00%    0.00%    0.00%    0.00%    0.00%    0.00%    0.00%
 46  1     2    1  |1 1>-         0.00%    0.00%    0.00%    0.00%    0.00%    0.00%    0.00%    0.00%
 47  1     3    1  |1 1>-         0.00%    0.00%    0.00%    0.00%    0.00%    0.00%    0.00%    0.00%
 48  1     4    1  |1 1>-         0.00%    0.00%    0.00%    0.00%    0.00%    0.00%    0.00%    0.00%
 49  1     5    1  |1 1>-         0.00%    0.00%    0.00%    0.00%    0.00%    0.00%    0.00%    0.00%
 50  1     6    1  |1 1>-         0.00%    0.00%    0.00%    0.00%    0.00%    0.00%    0.00%    0.00%
 51  1     7    1  |1 1>-         0.00%   10.77%    0.00%    0.00%    0.00%    0.00%   47.41%    0.00%
 52  1     8    1  |1 1>-        12.30%    0.00%   10.96%    0.00%    0.00%    0.00%    0.00%   49.98%
 53  1     9    1  |1 1>-         0.00%    0.00%    0.00%    6.48%    0.00%    0.00%    0.00%    0.00%
 54  1    10    1  |1 1>-         0.00%    0.00%    0.00%    0.00%    6.12%    0.00%    0.00%    0.00%
 55  1    11    1  |1 1>-         0.00%    0.00%    0.00%    5.08%    0.00%    0.00%    0.00%    0.00%
 56  1    12    1  |1 1>-         0.00%    0.59%    0.00%    0.00%    0.00%    8.42%    1.01%    0.00%
 57  1    13    1  |1 1>-        20.70%    0.00%    0.61%    0.00%    0.00%    0.00%    0.00%    0.01%
 58  1    14    1  |1 1>-         0.00%    0.00%    0.00%   11.97%    0.00%    0.00%    0.00%    0.00%
 59  1    15    1  |1 1>-         0.00%   11.95%    0.00%    0.00%    0.00%    3.96%    0.00%    0.00%
 60  1    16    1  |1 1>-         0.00%    0.00%   11.97%    0.00%    0.00%    0.00%    0.00%    0.00%

   Total
 Nr Sym  State Sym Spin / Nr.     49       50       51       52       53       54       55       56

  1  1     1    1  |0 0>          0.00%    0.00%    0.00%    0.00%    0.00%    0.00%    0.00%    0.00%
  2  1     2    1  |0 0>          0.00%    0.00%    0.00%    0.00%    0.00%    0.00%    0.00%    0.00%
  3  1     3    1  |0 0>          0.00%    0.00%    0.00%    0.00%    0.00%    0.00%    0.00%    0.00%
  4  1     4    1  |0 0>          0.00%    0.00%    0.00%    0.00%    0.00%    0.00%    0.00%    0.00%
  5  1     5    1  |0 0>          0.00%    0.00%    0.00%    0.00%    0.00%    0.00%    0.00%    0.00%
  6  1     6    1  |0 0>          0.00%    0.00%    0.00%    0.00%    0.00%    0.00%    0.00%    0.10%
  7  1     7    1  |0 0>          0.00%    0.00%    0.00%    0.00%    0.00%    0.00%    0.00%    0.00%
  8  1     8    1  |0 0>          0.00%    0.00%    0.00%    0.00%    0.00%    0.00%    0.00%    0.00%
  9  1     9    1  |0 0>          0.00%    0.00%    0.00%    0.00%    0.00%    0.00%    0.00%   30.42%
 10  1    10    1  |0 0>          0.00%    0.00%    0.00%    0.00%    0.00%    0.00%    0.00%    0.00%
 11  1    11    1  |0 0>          0.00%    0.00%    0.00%    0.00%    0.00%    0.00%    0.00%    0.00%
 12  1    12    1  |0 0>          0.00%    0.00%    0.00%    0.00%    0.00%    0.00%    0.00%    0.00%
 13  1     1    1  |1 1>+         0.00%    0.00%    0.00%    0.00%    0.00%    0.00%    0.00%    0.00%
 14  1     2    1  |1 1>+         0.00%    0.00%    0.00%    0.00%    0.00%    0.00%    0.00%    0.00%
 15  1     3    1  |1 1>+         0.00%    0.00%    0.00%    0.00%    0.00%    0.00%    0.00%    0.00%
 16  1     4    1  |1 1>+         0.00%    0.00%    0.00%    0.00%    0.00%    0.00%    0.00%    0.00%
 17  1     5    1  |1 1>+         0.00%    0.00%    0.00%    0.00%    0.00%    0.00%    0.00%    0.00%
 18  1     6    1  |1 1>+         0.00%    0.00%    0.00%    0.00%    0.00%    0.00%    0.00%    0.00%
 19  1     7    1  |1 1>+         0.00%    0.00%    0.00%    1.62%    0.00%    0.00%    0.00%    0.00%
 20  1     8    1  |1 1>+         0.00%    0.00%    1.92%    0.00%    0.00%    0.00%    2.57%    0.00%
 21  1     9    1  |1 1>+        42.85%    0.00%    0.00%    0.00%    0.00%    0.00%    0.00%    0.08%
 22  1    10    1  |1 1>+         0.00%   24.12%    0.00%    0.00%   18.76%    0.00%    0.00%    0.00%
 23  1    11    1  |1 1>+         4.52%    0.00%    0.00%    0.00%    0.00%   31.20%    0.00%    0.05%
 24  1    12    1  |1 1>+         0.00%    0.00%    0.00%   26.93%    0.00%    0.00%    0.00%    0.00%
 25  1    13    1  |1 1>+         0.00%    0.00%   26.62%    0.00%    0.00%    0.00%   20.44%    0.00%
 26  1    14    1  |1 1>+         0.00%    0.00%    0.00%    0.00%    0.00%    0.00%    0.00%   34.57%
 27  1    15    1  |1 1>+         0.00%    0.00%    0.00%    0.00%    0.00%    0.00%    0.00%    0.00%
 28  1    16    1  |1 1>+         0.00%    0.00%    0.00%    0.00%    0.00%    0.00%    0.00%    0.00%
 29  1     1    1  |1 0>          0.00%    0.00%    0.00%    0.00%    0.00%    0.00%    0.00%    0.00%
 30  1     2    1  |1 0>          0.00%    0.00%    0.00%    0.00%    0.00%    0.00%    0.00%    0.00%
 31  1     3    1  |1 0>          0.00%    0.00%    0.00%    0.00%    0.00%    0.00%    0.00%    0.00%
 32  1     4    1  |1 0>          0.00%    0.00%    0.00%    0.00%    0.00%    0.00%    0.00%    0.00%
 33  1     5    1  |1 0>          0.00%    0.00%    0.00%    0.00%    0.00%    0.00%    0.00%    0.00%
 34  1     6    1  |1 0>          0.00%    0.00%    0.00%    0.00%    0.00%    0.00%    0.00%    0.00%
 35  1     7    1  |1 0>          0.00%   22.11%    0.00%    0.00%    2.87%    0.00%    0.00%    0.00%
 36  1     8    1  |1 0>         22.08%    0.00%    0.00%    0.00%    0.00%    2.90%    0.00%    0.00%
 37  1     9    1  |1 0>          0.00%    0.00%   42.84%    0.00%    0.00%    0.00%    0.00%    0.00%
 38  1    10    1  |1 0>          0.00%    0.00%    0.00%   42.87%    0.00%    0.00%    0.00%    0.00%
 39  1    11    1  |1 0>          0.00%    0.00%    0.00%    0.00%    0.00%    0.00%   54.00%    0.00%
 40  1    12    1  |1 0>          0.00%    6.45%    0.00%    0.00%   47.12%    0.00%    0.00%    0.00%
 41  1    13    1  |1 0>          6.52%    0.00%    0.00%    0.00%    0.00%   47.05%    0.00%    0.13%
 42  1    14    1  |1 0>          0.00%    0.00%    0.00%    0.00%    0.00%    0.00%    0.00%    0.00%
 43  1    15    1  |1 0>          0.00%    0.00%    0.00%    0.00%    0.00%    0.00%    0.00%    0.00%
 44  1    16    1  |1 0>          0.00%    0.00%    0.00%    0.00%    0.00%    0.00%    0.00%   34.57%
 45  1     1    1  |1 1>-         0.00%    0.00%    0.00%    0.00%    0.00%    0.00%    0.00%    0.00%
 46  1     2    1  |1 1>-         0.00%    0.00%    0.00%    0.00%    0.00%    0.00%    0.00%    0.00%
 47  1     3    1  |1 1>-         0.00%    0.00%    0.00%    0.00%    0.00%    0.00%    0.00%    0.00%
 48  1     4    1  |1 1>-         0.00%    0.00%    0.00%    0.00%    0.00%    0.00%    0.00%    0.00%
 49  1     5    1  |1 1>-         0.00%    0.00%    0.00%    0.00%    0.00%    0.00%    0.00%    0.00%
 50  1     6    1  |1 1>-         0.00%    0.00%    0.00%    0.00%    0.00%    0.00%    0.00%    0.00%
 51  1     7    1  |1 1>-         0.00%    0.00%    1.95%    0.00%    0.00%    0.00%    2.58%    0.00%
 52  1     8    1  |1 1>-         0.00%    0.00%    0.00%    1.64%    0.00%    0.00%    0.00%    0.00%
 53  1     9    1  |1 1>-         0.00%   42.85%    0.00%    0.00%    0.00%    0.00%    0.00%    0.00%
 54  1    10    1  |1 1>-        24.03%    0.00%    0.00%    0.00%    0.00%   18.84%    0.00%    0.08%
 55  1    11    1  |1 1>-         0.00%    4.47%    0.00%    0.00%   31.25%    0.00%    0.00%    0.00%
 56  1    12    1  |1 1>-         0.00%    0.00%   26.67%    0.00%    0.00%    0.00%   20.41%    0.00%
 57  1    13    1  |1 1>-         0.00%    0.00%    0.00%   26.94%    0.00%    0.00%    0.00%    0.00%
 58  1    14    1  |1 1>-         0.00%    0.00%    0.00%    0.00%    0.00%    0.00%    0.00%    0.00%
 59  1    15    1  |1 1>-         0.00%    0.00%    0.00%    0.00%    0.00%    0.00%    0.00%    0.00%
 60  1    16    1  |1 1>-         0.00%    0.00%    0.00%    0.00%    0.00%    0.00%    0.00%    0.00%

   Total
 Nr Sym  State Sym Spin / Nr.     57       58       59       60

  1  1     1    1  |0 0>          0.00%    0.00%    0.00%    0.00%
  2  1     2    1  |0 0>          0.00%    0.00%    0.00%    0.10%
  3  1     3    1  |0 0>          0.00%    0.00%    0.10%    0.00%
  4  1     4    1  |0 0>          0.00%    0.10%    0.00%    0.00%
  5  1     5    1  |0 0>          0.10%    0.00%    0.00%    0.00%
  6  1     6    1  |0 0>          0.00%    0.00%    0.00%    0.00%
  7  1     7    1  |0 0>          0.00%    0.00%    0.00%    0.00%
  8  1     8    1  |0 0>         30.42%    0.00%    0.00%    0.00%
  9  1     9    1  |0 0>          0.00%    0.00%    0.00%    0.00%
 10  1    10    1  |0 0>          0.00%   30.42%    0.00%    0.00%
 11  1    11    1  |0 0>          0.00%    0.00%   30.40%    0.02%
 12  1    12    1  |0 0>          0.00%    0.00%    0.02%   30.41%
 13  1     1    1  |1 1>+         0.00%    0.00%    0.00%    0.00%
 14  1     2    1  |1 1>+         0.00%    0.00%    0.00%    0.00%
 15  1     3    1  |1 1>+         0.00%    0.00%    0.00%    0.00%
 16  1     4    1  |1 1>+         0.00%    0.00%    0.00%    0.00%
 17  1     5    1  |1 1>+         0.00%    0.00%    0.00%    0.00%
 18  1     6    1  |1 1>+         0.00%    0.00%    0.00%    0.00%
 19  1     7    1  |1 1>+         0.00%    0.12%    0.00%    0.00%
 20  1     8    1  |1 1>+         0.00%    0.00%    0.12%    0.00%
 21  1     9    1  |1 1>+         0.00%    0.00%    0.00%    0.00%
 22  1    10    1  |1 1>+         0.08%    0.00%    0.00%    0.00%
 23  1    11    1  |1 1>+         0.00%    0.00%    0.00%    0.00%
 24  1    12    1  |1 1>+         0.00%    0.01%    0.00%    0.00%
 25  1    13    1  |1 1>+         0.00%    0.00%    0.01%    0.09%
 26  1    14    1  |1 1>+         0.00%    0.00%    0.00%    0.00%
 27  1    15    1  |1 1>+         0.00%   34.57%    0.00%    0.00%
 28  1    16    1  |1 1>+         0.00%    0.00%   34.61%   11.50%
 29  1     1    1  |1 0>          0.00%    0.00%    0.00%    0.00%
 30  1     2    1  |1 0>          0.00%    0.00%    0.00%    0.00%
 31  1     3    1  |1 0>          0.00%    0.00%    0.00%    0.00%
 32  1     4    1  |1 0>          0.00%    0.00%    0.00%    0.00%
 33  1     5    1  |1 0>          0.00%    0.00%    0.00%    0.00%
 34  1     6    1  |1 0>          0.00%    0.00%    0.00%    0.00%
 35  1     7    1  |1 0>          0.00%    0.00%    0.00%    0.00%
 36  1     8    1  |1 0>          0.00%    0.00%    0.00%    0.00%
 37  1     9    1  |1 0>          0.00%    0.00%    0.08%    0.00%
 38  1    10    1  |1 0>          0.00%    0.08%    0.00%    0.00%
 39  1    11    1  |1 0>          0.00%    0.00%    0.00%    0.13%
 40  1    12    1  |1 0>          0.13%    0.00%    0.00%    0.00%
 41  1    13    1  |1 0>          0.00%    0.00%    0.00%    0.00%
 42  1    14    1  |1 0>          0.00%    0.00%    0.00%   46.10%
 43  1    15    1  |1 0>         34.57%    0.00%    0.00%    0.00%
 44  1    16    1  |1 0>          0.00%    0.00%    0.00%    0.00%
 45  1     1    1  |1 1>-         0.00%    0.00%    0.00%    0.00%
 46  1     2    1  |1 1>-         0.00%    0.00%    0.00%    0.00%
 47  1     3    1  |1 1>-         0.00%    0.00%    0.00%    0.00%
 48  1     4    1  |1 1>-         0.00%    0.00%    0.00%    0.00%
 49  1     5    1  |1 1>-         0.00%    0.00%    0.00%    0.00%
 50  1     6    1  |1 1>-         0.00%    0.00%    0.00%    0.00%
 51  1     7    1  |1 1>-         0.00%    0.00%    0.12%    0.00%
 52  1     8    1  |1 1>-         0.00%    0.12%    0.00%    0.00%
 53  1     9    1  |1 1>-         0.08%    0.00%    0.00%    0.00%
 54  1    10    1  |1 1>-         0.00%    0.00%    0.00%    0.00%
 55  1    11    1  |1 1>-         0.05%    0.00%    0.00%    0.00%
 56  1    12    1  |1 1>-         0.00%    0.00%    0.01%    0.09%
 57  1    13    1  |1 1>-         0.00%    0.01%    0.00%    0.00%
 58  1    14    1  |1 1>-        34.57%    0.00%    0.00%    0.00%
 59  1    15    1  |1 1>-         0.00%    0.00%   34.55%   11.55%
 60  1    16    1  |1 1>-         0.00%   34.57%    0.00%    0.00%



 **********************************************************************************************************************************
 DATASETS  * FILE   NREC   LENGTH (MB)   RECORD NAMES
              1      24      450.05       500      610      700      900      950      970     1000      129      960     1700   
                                          VAR    BASINP    GEOM    SYMINP    ZMAT    AOBASIS   BASIS     P2S    ABASIS    OPER   
                                         1101     1401     1411     1412     1650     1100     1400     1410     1200     1210   
                                          SR      EKINR    POTR     PVPR    MOLCAS      S      EKIN      POT      H0       H01  
                                         1080     1600     1380     1700(1)
                                         AOSYM     SMH     JKOP     OPER   

              2       7      839.47       700     1000      520     2100     2140     5101     5103   
                                         GEOM     BASIS   MCVARS     RHF     MCSCF    MRCI     MRCI   

 PROGRAMS   *        TOTAL        CI     LSINT        CI        CI     MULTI   RHF-SCF       INT
 CPU TIMES  *     58816.61  41256.03    301.93  13715.21   3520.53      8.59      0.14     13.95
 REAL TIME  *     59215.41 SEC
 DISK USED  *       998.35 MB (local),        6.48 GB (total)
 SF USED    *         5.02 GB
 GA USED    *         0.00 MB       (max)       0.00 MB       (current)
 **********************************************************************************************************************************

 CI/aug-cc-pWCVTZ-X2C energy= -24984.984692645899

              CI              CI           MULTI         RHF-SCF
 -24984.96950877 -24984.96874946 -24984.64770488 -24984.77408070
 **********************************************************************************************************************************
 Molpro calculation terminated
