
 Working directory              : /wrk/irikura/molpro.qktRUwfuiR/
 Global scratch directory       : /wrk/irikura/molpro.qktRUwfuiR/
 Wavefunction directory         : /home/irikura/wfu/
 Main file repository           : /wrk/irikura/molpro.qktRUwfuiR/

 id        : nistki

 Nodes            nprocs
 pn125343.nist.gov    6
 GA implementation: MPI file
 GA implementation (serial work in mppx): MPI file

 Using customized tuning parameters: mindgm=1; mindgv=20; mindgc=4; mindgr=1; noblas=0; minvec=7
 default implementation of scratch files=sf  


 Variables initialized (1042), CPU time= 0.01 sec
 ***,Ra SO-CI
                                                                                 ! larger core [15 19]
 memory,8,G
 
 gprint,orbitals,civector;
 
 symmetry,xyz
 geometry={Ra};
 
 basis=aug-cc-pwCVQZ-X2C
 
 set,dkho=101
 
 {rhf,so-sci;wf,sym=1,spin=0}
 
 NSING=7
 NTRIP=16
 
                                                                                 ! active space (2/10) as orbitals [7 3]
 {multi
     closed,21,22
     occ,28,25
     wf,sym=1,spin=0;state,NSING;
     wf,sym=1,spin=2;state,NTRIP;
     expec2,lxx,lyy,lzz;
 }
 table, energy, ll
 title, Energies and &lt;L**2&gt; values
 
 core,15,19
 {ci;wf,sym=1,spin=0;state,NSING; save,5101.2}
 hlsdiag = energd4
 {ci;wf,sym=1,spin=2;state,NTRIP; save,5103.2}
 hlsdiag(NSING+1) = energd4
 
 table,hlsdiag
 
 lsint
 {ci;hlsmat,ls,5101.2,5103.2;print,vls=0,hls=0}                                  !compute and diagonalize SO matrix
 Commands initialized (847), CPU time= 0.01 sec, 718 directives.
 Default parameters read. Elapsed time= 0.10 sec

 Checking input...
 Passed
1


                                         ***  PROGRAM SYSTEM MOLPRO  ***
                                       Copyright, TTI GmbH Stuttgart, 2015
                                    Version 2024.1 linked Wed Jan 31 05:42:09 2024


 **********************************************************************************************************************************
 LABEL *   Ra SO-CI                                                                                                                                                      
  (64 PROC) 64 bit mpp version                                                           DATE: 07-May-24          TIME: 09:32:55  
 **********************************************************************************************************************************

 SHA1:             675817fde4514a4a933b69e420913a90cee4ef91
 **********************************************************************************************************************************

 Memory per process:      8000 MW
 Total memory per node:  48000 MW

 GA preallocation disabled
 GA check disabled

 Variable memory set to 8000.0 MW


 ZSYMEL=XYZ

 SETTING BASIS          =    AUG-CC-PWCVQZ-X2C
 SETTING DKHO           =       101.00000000                                  


 Recomputing integrals since basis changed


 Using spherical harmonics

 Library entry RA     S aug-cc-pwCVQZ-X      selected for orbital group  1
 Library entry RA     P aug-cc-pwCVQZ-X      selected for orbital group  1
 Library entry RA     D aug-cc-pwCVQZ-X      selected for orbital group  1
 Library entry RA     F aug-cc-pwCVQZ-X      selected for orbital group  1
 Library entry RA     G aug-cc-pwCVQZ-X      selected for orbital group  1


 PROGRAM * SEWARD (Integral evaluation for generally contracted gaussian basis sets)     Author: Roland Lindh, 1990

 Geometry written to block  1 of record 700

 Orientation using atomic masses  
 Molecule type: Atom
 User-specified symmetry elements: XYZ
 Symmetry elements: XYZ
 Rotational constants:       0.0000000      0.0000000      0.0000000 GHz  (calculated with average atomic masses)

 Point group  Ci  



 ATOMIC COORDINATES

 NR  ATOM    CHARGE       X              Y              Z

   1  RA     88.00    0.000000000    0.000000000    0.000000000

 NUCLEAR CHARGE:                   88
 NUMBER OF PRIMITIVE AOS:         568
 NUMBER OF SYMMETRY AOS:          462
 NUMBER OF CONTRACTIONS:          184   (   96Ag  +   88Au  )
 NUMBER OF INNER CORE ORBITALS:    39   (   20Ag  +   19Au  )
 NUMBER OF OUTER CORE ORBITALS:     4   (    1Ag  +    3Au  )
 NUMBER OF VALENCE ORBITALS:        1   (    1Ag  +    0Au  )


 NUCLEAR REPULSION ENERGY    0.00000000

 One-electron integrals computed with SEWARD

 eXact-2-Component (X2C) method activated

 Computing Douglas-Kroll / X2C integrals

 AO integral compression algorithm  1   Integral accuracy      1.0D-11

     139.985 MB (compressed) written to integral file ( 12.3%)

     Node minimum: 16.777 MB, node maximum: 31.457 MB


 NUMBER OF SORTED TWO-ELECTRON INTEGRALS:   12193260.     BUFFER LENGTH:  32768
 NUMBER OF SEGMENTS:   1  SEGMENT LENGTH:   12193260      RECORD LENGTH: 524288

 Memory used in sort:      12.75 MW

 SORT1 READ   142077448. AND WROTE     2282850. INTEGRALS IN      7 RECORDS. CPU TIME:     0.58 SEC, REAL TIME:     0.61 SEC
 SORT2 READ    14096359. AND WROTE    73209670. INTEGRALS IN    642 RECORDS. CPU TIME:     0.18 SEC, REAL TIME:     0.21 SEC

 Node minimum:    12191832.  Node maximum:    12208288. integrals

 OPERATOR DM      FOR CENTER  0  COORDINATES:    0.000000    0.000000    0.000000

 EXTRA SYMMETRY OF AOS IN SYMMETRY 1:   1 1 1 1 1 1 1 1 1 1   1 1 1 1 2 3 4 5 6 2   3 4 5 6 2 3 4 5 6 2   3 4 5 6 2 3 4 5 6 2
                                        3 4 5 6 2 3 4 5 6 2   3 4 5 6 2 3 4 5 6 2   3 4 5 6 2 3 4 5 6 7   8 9101112131415 7 8
                                        9101112131415 7 8 9  101112131415
 EXTRA SYMMETRY OF AOS IN SYMMETRY 2:   1 2 3 1 2 3 1 2 3 1   2 3 1 2 3 1 2 3 1 2   3 1 2 3 1 2 3 1 2 3   1 2 3 1 2 3 1 2 3 4
                                        5 6 7 8 910 4 5 6 7   8 910 4 5 6 7 8 910   4 5 6 7 8 910 4 5 6   7 8 910 4 5 6 7 8 9
                                       10 4 5 6 7 8 910

 Eigenvalues of metric

         1 0.988E-05 0.177E-04 0.169E-03 0.169E-03 0.169E-03 0.169E-03 0.169E-03 0.803E-03
         2 0.347E-04 0.347E-04 0.347E-04 0.111E-03 0.111E-03 0.111E-03 0.369E-02 0.369E-02


 **********************************************************************************************************************************
 DATASETS  * FILE   NREC   LENGTH (MB)   RECORD NAMES
              1      22       31.22       500      610      700      900      950      970     1000      129      960     1700   
                                          VAR    BASINP    GEOM    SYMINP    ZMAT    AOBASIS   BASIS     P2S    ABASIS    OPER   
                                         1101     1401     1411     1412     1650     1100     1400     1410     1200     1210   
                                          SR      EKINR    POTR     PVPR    MOLCAS      S      EKIN      POT      H0       H01  
                                         1080     1600   
                                         AOSYM     SMH  

 PROGRAMS   *        TOTAL       INT
 CPU TIMES  *        44.16     43.99
 REAL TIME  *        47.83 SEC
 DISK USED  *        31.65 MB (local),      469.76 MB (total)
 GA USED    *         0.00 MB       (max)       0.00 MB       (current)
 **********************************************************************************************************************************


 Program * Restricted Hartree-Fock

 Orbital guess generated from atomic densities.

 Initial occupancy:  21  23
 
 SO-SCI SOLVER WITH NELEC=88 SYM=1 MS2=0 THRE=1.0D-08 THRG=3.2D-06
 
 Authors: D.A. Kreplin, H.-J. Werner (2022)
 
 Number of closed-shell orbitals:                43   (   21   22)
 Number of doubly occupied active orbitals:       1   (    0    1)
 Number of non-occupied active orbitals:          2   (    0    2)
 Number of virtual orbitals:                    138   (   75   63)
 
 ITER.  MIC  NCI          ENERGY    ENERGY CHANGE          GRAD      ORB GRAD        CI RES  NQN        STEP      TIME
    1    1    0  -24984.27705580  -24984.27705580    0.54233078    0.54233078    0.00000000    0    0.14E+01      0.28
    2    2    0  -24984.57686305      -0.29980725    0.30931709    0.30931709    0.00000000    0    0.13E+01      0.62
    3    2    0  -24984.58550944      -0.00864639    0.20978451    0.20978451    0.00000000    0    0.15E+01      0.89
    4    2    0  -24984.58411961       0.00138984    0.16681461    0.16681461    0.00000000    0    0.18E+00      1.11
    5    2    0  -24984.60583131      -0.02171171    0.06954206    0.06954206    0.00000000    1    0.90E-01      1.33
    6    2    0  -24984.60848525      -0.00265394    0.03066617    0.03066617    0.00000000    2    0.16E-01      1.55
    7    2    0  -24984.60857170      -0.00008645    0.01091556    0.01091556    0.00000000    3    0.18E-02      1.76
    8    2    0  -24984.60857719      -0.00000548    0.00041347    0.00041347    0.00000000    4    0.29E-03      1.98
    9    2    0  -24984.60857725      -0.00000007    0.00009633    0.00009633    0.00000000    5    0.10E-03      2.19
   10    2    0  -24984.60857725      -0.00000000    0.00001159    0.00001159    0.00000000    6    0.64E-05      2.41

 CONVERGENCE REACHED!  Final gradient:     0.00000238 ( 0.24E-05)
                       Final energy:  -24984.60857725
 

 Final occupancy:  21  23

 !RHF STATE 1.1 Energy               -24984.6085772549    
  RHF One-electron energy            -33990.6653307968    
  RHF Two-electron energy            9006.056753541874
  RHF Kinetic energy                  43484.7291978975    
  RHF Nuclear energy                    0.000000000000
  RHF Virial quotient                  -0.574560519017

 !RHF STATE 1.1 Dipole moment           0.00000000     0.00000000     0.00000000
 Dipole moment /Debye                   0.00000000     0.00000000     0.00000000

 ELECTRON ORBITALS
 =================

  Orbital  Occupation    Energy    Cen Mu Typ  Coefficients
    1.1     2.00000 -3845.30812     1  1  s    1.00000
    2.1     2.00000  -712.85837     1  2  s    0.99997
    3.1     2.00000  -179.86819     1  3  s    1.00000
    4.1     2.00000  -118.20565     1  1  d0   0.86598    1  1  d2-  0.47461
    5.1     2.00000  -118.20565     1  1  d1+  0.81065    1  1  d1- -0.58544
    6.1     2.00000  -118.20514     1  1  d2-  0.31445    1  1  d2+  0.94927
    7.1     2.00000  -118.20514     1  1  d1+  0.58547    1  1  d1-  0.81069
    8.1     2.00000  -118.20497     1  1  d0  -0.50000    1  1  d2-  0.82209    1  1  d2+ -0.27232
    9.1     2.00000   -45.82096     1  4  s    0.99900
   10.1     2.00000   -23.77685     1  2  d1+  0.81064    1  2  d1- -0.58543
   11.1     2.00000   -23.77685     1  2  d0   0.86597    1  2  d2-  0.47461
   12.1     2.00000   -23.77567     1  2  d2-  0.31444    1  2  d2+  0.94926
   13.1     2.00000   -23.77567     1  2  d1+  0.58546    1  2  d1-  0.81068
   14.1     2.00000   -23.77528     1  2  d0  -0.49999    1  2  d2-  0.82208    1  2  d2+ -0.27231
   15.1     2.00000   -10.11538     1  5  s    0.99912
   16.1     2.00000    -3.09670     1  3  d1+  0.81055    1  3  d1- -0.58537
   17.1     2.00000    -3.09670     1  3  d0   0.86588    1  3  d2-  0.47456
   18.1     2.00000    -3.09412     1  3  d1+  0.58551    1  3  d1-  0.81075
   19.1     2.00000    -3.09412     1  3  d2-  0.31446    1  3  d2+  0.94935
   20.1     2.00000    -3.09329     1  3  d0  -0.50005    1  3  d2-  0.82218    1  3  d2+ -0.27233
   21.1     2.00000    -1.72328     1  6  s    0.95719
    1.2     2.00000  -604.23277     1  1  px   0.81069    1  1  py  -0.58547
    2.2     2.00000  -604.23277     1  1  pz   1.00000
    3.2     2.00000  -604.23268     1  1  px   0.58547    1  1  py   0.81070
    4.2     2.00000  -148.82148     1  2  px   0.81069    1  2  py  -0.58547
    5.2     2.00000  -148.82148     1  2  pz   1.00000
    6.2     2.00000  -148.82096     1  2  px   0.58547    1  2  py   0.81069
    7.2     2.00000   -35.45986     1  3  px   0.81074    1  3  py  -0.58550
    8.2     2.00000   -35.45986     1  3  pz   1.00006
    9.2     2.00000   -35.45869     1  3  px   0.58555    1  3  py   0.81081
   10.2     2.00000   -11.30405     1  1  f0   0.79058    1  1  f2-  0.58131
   11.2     2.00000   -11.30405     1  1  f1+  0.78496    1  1  f1- -0.56688
   12.2     2.00000   -11.30307     1  1  f1+  0.46281    1  1  f1-  0.64084    1  1  f3+ -0.58395
   13.2     2.00000   -11.30307     1  1  f2-  0.31442    1  1  f2+  0.94918
   14.2     2.00000   -11.30248     1  1  f3+  0.29129    1  1  f3-  0.92338
   15.2     2.00000   -11.30248     1  1  f0  -0.61237    1  1  f2-  0.75046
   16.2     2.00000   -11.30229     1  1  f1+  0.35852    1  1  f1-  0.49644    1  1  f3+  0.75393
   17.2     2.00000    -6.90738     1  4  pz   0.99702
   18.2     2.00000    -6.90738     1  4  px   0.80827    1  4  py  -0.58373
   19.2     2.00000    -6.90527     1  4  px   0.58072    1  4  py   0.80411
   20.2     2.00000    -0.90803     1  5  pz   0.97672
   21.2     2.00000    -0.90803     1  5  px   0.79181    1  5  py  -0.57185
   22.2     2.00000    -0.90163     1  5  px   0.58053    1  5  py   0.80383
   23.2     2.00000    -0.10004     1  6  px   0.60430    1  6  py   0.83676


 HOMO     23.2    -0.100040 =      -2.7222eV
 LUMO     22.1    -0.073928 =      -2.0117eV
 LUMO-HOMO         0.026112 =       0.7105eV

 Orbitals saved in record  2100.2


 **********************************************************************************************************************************
 DATASETS  * FILE   NREC   LENGTH (MB)   RECORD NAMES
              1      22       31.22       500      610      700      900      950      970     1000      129      960     1700   
                                          VAR    BASINP    GEOM    SYMINP    ZMAT    AOBASIS   BASIS     P2S    ABASIS    OPER   
                                         1101     1401     1411     1412     1650     1100     1400     1410     1200     1210   
                                          SR      EKINR    POTR     PVPR    MOLCAS      S      EKIN      POT      H0       H01  
                                         1080     1600   
                                         AOSYM     SMH  

              2       4        0.82       700     1000      520     2100   
                                         GEOM     BASIS   MCVARS     RHF  

 PROGRAMS   *        TOTAL   RHF-SCF       INT
 CPU TIMES  *        46.73      2.57     43.99
 REAL TIME  *        50.52 SEC
 DISK USED  *        33.60 MB (local),      481.48 MB (total)
 SF USED    *         6.33 MB
 GA USED    *         0.00 MB       (max)       0.00 MB       (current)
 **********************************************************************************************************************************
 SETTING NSING          =         7.00000000                                  
 SETTING NTRIP          =        16.00000000                                  

 PROGRAM * MULTI (Direct Multiconfiguration SCF)       Authors: P.J. Knowles, H.-J. Werner (1984)
                                                                D.A. Kreplin, P.J. Knowles, H.-J. Werner (2019)

 Number of closed-shell orbitals:  43 (   21   22)
 Number of active  orbitals:       10 (    7    3)
 Number of external orbitals:     131 (   68   63)

 State symmetry 1

 Number of active electrons:   2    Spin symmetry=Singlet   Space symmetry=1
 Number of states:             7
 Number of CSFs:              34   (58 determinants, 100 intermediate states)

 State symmetry 2

 Number of active electrons:   2    Spin symmetry=Triplet   Space symmetry=1
 Number of states:            16
 Number of CSFs:              24   (24 determinants, 45 intermediate states)

 Molecular orbitals read from record     2100.2  Type=RHF/CANONICAL (state 1.1)
 *** IN SYMMETRY 1 ORBITAL  3 SYMMETRY CONTAMINATION OF 0.506D-04 HAS BEEN REMOVED
 *** IN SYMMETRY 1 ORBITAL  4 SYMMETRY CONTAMINATION OF 0.427D+00 HAS BEEN REMOVED
 *** IN SYMMETRY 1 ORBITAL  5 SYMMETRY CONTAMINATION OF 0.426D+00 HAS BEEN REMOVED
 *** IN SYMMETRY 1 ORBITAL  6 SYMMETRY CONTAMINATION OF 0.249D+00 HAS BEEN REMOVED
 *** IN SYMMETRY 1 ORBITAL  7 SYMMETRY CONTAMINATION OF 0.419D+00 HAS BEEN REMOVED
 *** IN SYMMETRY 1 ORBITAL  8 SYMMETRY CONTAMINATION OF 0.484D+00 HAS BEEN REMOVED
 *** IN SYMMETRY 1 ORBITAL  9 SYMMETRY CONTAMINATION OF 0.423D-03 HAS BEEN REMOVED
 *** IN SYMMETRY 1 ORBITAL 10 SYMMETRY CONTAMINATION OF 0.426D+00 HAS BEEN REMOVED
 *** IN SYMMETRY 1 ORBITAL 11 SYMMETRY CONTAMINATION OF 0.428D+00 HAS BEEN REMOVED
 *** IN SYMMETRY 1 ORBITAL 12 SYMMETRY CONTAMINATION OF 0.249D+00 HAS BEEN REMOVED
 *** IN SYMMETRY 1 ORBITAL 13 SYMMETRY CONTAMINATION OF 0.420D+00 HAS BEEN REMOVED
 *** IN SYMMETRY 1 ORBITAL 14 SYMMETRY CONTAMINATION OF 0.485D+00 HAS BEEN REMOVED
 *** IN SYMMETRY 1 ORBITAL 15 SYMMETRY CONTAMINATION OF 0.149D-02 HAS BEEN REMOVED
 *** IN SYMMETRY 1 ORBITAL 16 SYMMETRY CONTAMINATION OF 0.427D+00 HAS BEEN REMOVED
 *** IN SYMMETRY 1 ORBITAL 17 SYMMETRY CONTAMINATION OF 0.429D+00 HAS BEEN REMOVED
 *** IN SYMMETRY 1 ORBITAL 18 SYMMETRY CONTAMINATION OF 0.420D+00 HAS BEEN REMOVED
 *** IN SYMMETRY 1 ORBITAL 19 SYMMETRY CONTAMINATION OF 0.250D+00 HAS BEEN REMOVED
 *** IN SYMMETRY 1 ORBITAL 20 SYMMETRY CONTAMINATION OF 0.488D+00 HAS BEEN REMOVED
 *** IN SYMMETRY 1 ORBITAL 21 SYMMETRY CONTAMINATION OF 0.580D-01 HAS BEEN REMOVED
 *** IN SYMMETRY 1 ORBITAL 22 SYMMETRY CONTAMINATION OF 0.844D-01 HAS BEEN REMOVED
 *** IN SYMMETRY 1 ORBITAL 23 SYMMETRY CONTAMINATION OF 0.444D+00 HAS BEEN REMOVED
 *** IN SYMMETRY 1 ORBITAL 24 SYMMETRY CONTAMINATION OF 0.440D+00 HAS BEEN REMOVED
 *** IN SYMMETRY 1 ORBITAL 25 SYMMETRY CONTAMINATION OF 0.283D+00 HAS BEEN REMOVED
 *** IN SYMMETRY 1 ORBITAL 26 SYMMETRY CONTAMINATION OF 0.445D+00 HAS BEEN REMOVED
 *** IN SYMMETRY 1 ORBITAL 27 SYMMETRY CONTAMINATION OF 0.286D-01 HAS BEEN REMOVED
 *** IN SYMMETRY 1 ORBITAL 28 SYMMETRY CONTAMINATION OF 0.722D+00 HAS BEEN REMOVED

 EXTRA SYMMETRY OF MOS IN SYMMETRY 1:   1 1 1 2 4 5 6 3 1 4   2 5 6 3 1 4 2 6 5 3   1 1 2 4 5 6 1 3 2 4   5 6 1 1 2 4 5 6 3 1
                                        7 91214 2 4 6 5 3 2   4 5 6 1 1 7 9141215  101113 3 4 2 6 5 3 1   7 9121415101113 8 4
                                        2 6 5 3 4 2 6 5 3 3  15 8111310 8
 *** IN SYMMETRY 2 ORBITAL  1 SYMMETRY CONTAMINATION OF 0.420D+00 HAS BEEN REMOVED
 *** IN SYMMETRY 2 ORBITAL  2 SYMMETRY CONTAMINATION OF 0.119D-02 HAS BEEN REMOVED
 *** IN SYMMETRY 2 ORBITAL  3 SYMMETRY CONTAMINATION OF 0.419D+00 HAS BEEN REMOVED
 *** IN SYMMETRY 2 ORBITAL  4 SYMMETRY CONTAMINATION OF 0.419D+00 HAS BEEN REMOVED
 *** IN SYMMETRY 2 ORBITAL  5 SYMMETRY CONTAMINATION OF 0.343D-03 HAS BEEN REMOVED
 *** IN SYMMETRY 2 ORBITAL  6 SYMMETRY CONTAMINATION OF 0.419D+00 HAS BEEN REMOVED
 *** IN SYMMETRY 2 ORBITAL  7 SYMMETRY CONTAMINATION OF 0.420D+00 HAS BEEN REMOVED
 *** IN SYMMETRY 2 ORBITAL  8 SYMMETRY CONTAMINATION OF 0.965D-03 HAS BEEN REMOVED
 *** IN SYMMETRY 2 ORBITAL  9 SYMMETRY CONTAMINATION OF 0.419D+00 HAS BEEN REMOVED
 *** IN SYMMETRY 2 ORBITAL 10 SYMMETRY CONTAMINATION OF 0.495D+00 HAS BEEN REMOVED
 *** IN SYMMETRY 2 ORBITAL 11 SYMMETRY CONTAMINATION OF 0.529D+00 HAS BEEN REMOVED
 *** IN SYMMETRY 2 ORBITAL 12 SYMMETRY CONTAMINATION OF 0.661D+00 HAS BEEN REMOVED
 *** IN SYMMETRY 2 ORBITAL 13 SYMMETRY CONTAMINATION OF 0.264D+00 HAS BEEN REMOVED
 *** IN SYMMETRY 2 ORBITAL 14 SYMMETRY CONTAMINATION OF 0.410D+00 HAS BEEN REMOVED
 *** IN SYMMETRY 2 ORBITAL 15 SYMMETRY CONTAMINATION OF 0.535D+00 HAS BEEN REMOVED
 *** IN SYMMETRY 2 ORBITAL 16 SYMMETRY CONTAMINATION OF 0.592D+00 HAS BEEN REMOVED
 *** IN SYMMETRY 2 ORBITAL 17 SYMMETRY CONTAMINATION OF 0.693D-02 HAS BEEN REMOVED
 *** IN SYMMETRY 2 ORBITAL 18 SYMMETRY CONTAMINATION OF 0.422D+00 HAS BEEN REMOVED
 *** IN SYMMETRY 2 ORBITAL 19 SYMMETRY CONTAMINATION OF 0.423D+00 HAS BEEN REMOVED
 *** IN SYMMETRY 2 ORBITAL 20 SYMMETRY CONTAMINATION OF 0.230D-01 HAS BEEN REMOVED
 *** IN SYMMETRY 2 ORBITAL 21 SYMMETRY CONTAMINATION OF 0.429D+00 HAS BEEN REMOVED
 *** IN SYMMETRY 2 ORBITAL 22 SYMMETRY CONTAMINATION OF 0.430D+00 HAS BEEN REMOVED
 *** IN SYMMETRY 2 ORBITAL 23 SYMMETRY CONTAMINATION OF 0.483D+00 HAS BEEN REMOVED
 *** IN SYMMETRY 2 ORBITAL 24 SYMMETRY CONTAMINATION OF 0.501D-01 HAS BEEN REMOVED
 *** IN SYMMETRY 2 ORBITAL 25 SYMMETRY CONTAMINATION OF 0.440D+00 HAS BEEN REMOVED
 EXTRA SYMMETRY OF MOS IN SYMMETRY 2:   1 3 2 1 3 2 1 3 2 6   4 510 9 8 7 3 1 2 3   1 2 2 3 1 3 1 2 1 3   2 6 410 5 8 9 7 1 3
                                        2 6 4 510 8 9 7 1 3   2 4 6 510 9 8 7 1 3   2 4 6 510 8 9 7 1 3   2 4 610 5 8 9 7 4 6
                                        510 8 9 7 1 3 2

 Wavefunction dump at record             2140.2

 Convergence thresholds  0.10E-04 (gradient)  0.10E-05 (energy)

 Weight factors for state symmetry  1:    0.04348   0.04348   0.04348   0.04348   0.04348   0.04348   0.04348
 Weight factors for state symmetry  2:    0.04348   0.04348   0.04348   0.04348   0.04348   0.04348   0.04348   0.04348
                                          0.04348   0.04348   0.04348   0.04348   0.04348   0.04348   0.04348   0.04348
 
 Number of orbital rotations:  3692  ( 213 closed/active, 2814 closed/virtual, 0 active/active, 665 active/virtual )
 Total number of variables:    4482
 
 Second-order MCSCF: L-BFGS accelerated
 
 ITER  MIC  NCI  NEG     ENERGY(VAR)    ENERGY(PROJ) ENERGY CHANGE       GRAD(0)  GRAD(ORB)   GRAD(CI)      STEP      TIME
   1    8   14    0 -24984.66945295  -24984.68782390   -0.01837095    0.05841091 0.00001518 0.00000000  0.12E+01      5.75
   2    9   14    0 -24984.68736034  -24984.68740585   -0.00004551    0.00225922 0.00000092 0.00000000  0.53E-01     12.16
   3    8   12    0 -24984.68740593  -24984.68740593   -0.00000000    0.00000960 0.00000000 0.00000000  0.15E-03     17.50
   4    7    8    0 -24984.68740593  -24984.68740593    0.00000000    0.00000000 0.00000001 0.00000000  0.43E-07     21.93

 CONVERGENCE REACHED!  Final gradient:    0.00000000 ( 0.29E-08)
                       Final energy: -24984.68740593
 
 Results for state 1.1 Singlet
 =============================
 !MCSCF STATE 1.1 Singlet Energy              -24984.7931656989    
 Nuclear energy                                  0.00000000
 Kinetic energy                              43485.26648564
 One electron energy                        -33998.82391569
 Two electron energy                          9014.03074999
 Virial ratio                                    1.57455766
 
 !MCSCF STATE 1.1 Singlet Dipole moment          0.00000000     0.00000000     0.00000000
 Dipole moment /Debye                            0.00000000     0.00000000     0.00000000
 
 Results for state 2.1 Singlet
 =============================
 !MCSCF STATE 2.1 Singlet Energy              -24984.7119973102    
 Nuclear energy                                  0.00000000
 Kinetic energy                              43484.94562279
 One electron energy                        -33999.79389092
 Two electron energy                          9015.08189361
 Virial ratio                                    1.57456004
 
 !MCSCF STATE 2.1 Singlet Dipole moment          0.00000000     0.00000000     0.00000000
 Dipole moment /Debye                            0.00000000     0.00000000     0.00000000
 
 Results for state 3.1 Singlet
 =============================
 !MCSCF STATE 3.1 Singlet Energy              -24984.7119973102    
 Nuclear energy                                  0.00000000
 Kinetic energy                              43484.94562278
 One electron energy                        -33999.79389085
 Two electron energy                          9015.08189354
 Virial ratio                                    1.57456004
 
 !MCSCF STATE 3.1 Singlet Dipole moment          0.00000000     0.00000000     0.00000000
 Dipole moment /Debye                            0.00000000     0.00000000     0.00000000
 
 Results for state 4.1 Singlet
 =============================
 !MCSCF STATE 4.1 Singlet Energy              -24984.7119973102    
 Nuclear energy                                  0.00000000
 Kinetic energy                              43484.94562279
 One electron energy                        -33999.79389093
 Two electron energy                          9015.08189362
 Virial ratio                                    1.57456004
 
 !MCSCF STATE 4.1 Singlet Dipole moment          0.00000000     0.00000000     0.00000000
 Dipole moment /Debye                            0.00000000     0.00000000     0.00000000
 
 Results for state 5.1 Singlet
 =============================
 !MCSCF STATE 5.1 Singlet Energy              -24984.7119973102    
 Nuclear energy                                  0.00000000
 Kinetic energy                              43484.94562280
 One electron energy                        -33999.79389095
 Two electron energy                          9015.08189364
 Virial ratio                                    1.57456004
 
 !MCSCF STATE 5.1 Singlet Dipole moment          0.00000000     0.00000000     0.00000000
 Dipole moment /Debye                            0.00000000     0.00000000     0.00000000
 
 Results for state 6.1 Singlet
 =============================
 !MCSCF STATE 6.1 Singlet Energy              -24984.7119973102    
 Nuclear energy                                  0.00000000
 Kinetic energy                              43484.94562281
 One electron energy                        -33999.79389113
 Two electron energy                          9015.08189382
 Virial ratio                                    1.57456004
 
 !MCSCF STATE 6.1 Singlet Dipole moment          0.00000000     0.00000000     0.00000000
 Dipole moment /Debye                            0.00000000     0.00000000     0.00000000
 
 Results for state 7.1 Singlet
 =============================
 !MCSCF STATE 7.1 Singlet Energy              -24984.6708155154    
 Nuclear energy                                  0.00000000
 Kinetic energy                              43484.74063897
 One electron energy                        -33990.11112623
 Two electron energy                          9005.44031071
 Virial ratio                                    1.57456180
 
 !MCSCF STATE 7.1 Singlet Dipole moment          0.00000000     0.00000000     0.00000000
 Dipole moment /Debye                            0.00000000     0.00000000     0.00000000
 
 Results for state 1.1 Triplet
 =============================
 !MCSCF STATE 1.1 Triplet Energy              -24984.7215431352    
 Nuclear energy                                  0.00000000
 Kinetic energy                              43485.09634343
 One electron energy                        -34001.11283335
 Two electron energy                          9016.39129021
 Virial ratio                                    1.57455827
 
 !MCSCF STATE 1.1 Triplet Dipole moment          0.00000000     0.00000000     0.00000000
 Dipole moment /Debye                            0.00000000     0.00000000     0.00000000
 
 Results for state 2.1 Triplet
 =============================
 !MCSCF STATE 2.1 Triplet Energy              -24984.7215431350    
 Nuclear energy                                  0.00000000
 Kinetic energy                              43485.09634341
 One electron energy                        -34001.11283317
 Two electron energy                          9016.39129004
 Virial ratio                                    1.57455827
 
 !MCSCF STATE 2.1 Triplet Dipole moment          0.00000000     0.00000000     0.00000000
 Dipole moment /Debye                            0.00000000     0.00000000     0.00000000
 
 Results for state 3.1 Triplet
 =============================
 !MCSCF STATE 3.1 Triplet Energy              -24984.7215431350    
 Nuclear energy                                  0.00000000
 Kinetic energy                              43485.09634341
 One electron energy                        -34001.11283315
 Two electron energy                          9016.39129002
 Virial ratio                                    1.57455827
 
 !MCSCF STATE 3.1 Triplet Dipole moment          0.00000000     0.00000000     0.00000000
 Dipole moment /Debye                            0.00000000     0.00000000     0.00000000
 
 Results for state 4.1 Triplet
 =============================
 !MCSCF STATE 4.1 Triplet Energy              -24984.7215431349    
 Nuclear energy                                  0.00000000
 Kinetic energy                              43485.09634342
 One electron energy                        -34001.11283326
 Two electron energy                          9016.39129012
 Virial ratio                                    1.57455827
 
 !MCSCF STATE 4.1 Triplet Dipole moment          0.00000000     0.00000000     0.00000000
 Dipole moment /Debye                            0.00000000     0.00000000     0.00000000
 
 Results for state 5.1 Triplet
 =============================
 !MCSCF STATE 5.1 Triplet Energy              -24984.7215431349    
 Nuclear energy                                  0.00000000
 Kinetic energy                              43485.09634341
 One electron energy                        -34001.11283317
 Two electron energy                          9016.39129003
 Virial ratio                                    1.57455827
 
 !MCSCF STATE 5.1 Triplet Dipole moment          0.00000000     0.00000000     0.00000000
 Dipole moment /Debye                            0.00000000     0.00000000     0.00000000
 
 Results for state 6.1 Triplet
 =============================
 !MCSCF STATE 6.1 Triplet Energy              -24984.6779054990    
 Nuclear energy                                  0.00000000
 Kinetic energy                              43484.50604958
 One electron energy                        -33987.84408067
 Two electron energy                          9003.16617517
 Virial ratio                                    1.57456506
 
 !MCSCF STATE 6.1 Triplet Dipole moment          0.00000000     0.00000000     0.00000000
 Dipole moment /Debye                            0.00000000     0.00000000     0.00000000
 
 Results for state 7.1 Triplet
 =============================
 !MCSCF STATE 7.1 Triplet Energy              -24984.6535775431    
 Nuclear energy                                  0.00000000
 Kinetic energy                              43484.57673086
 One electron energy                        -33997.74155059
 Two electron energy                          9013.08797305
 Virial ratio                                    1.57456357
 
 !MCSCF STATE 7.1 Triplet Dipole moment          0.00000000     0.00000000     0.00000000
 Dipole moment /Debye                            0.00000000     0.00000000     0.00000000
 
 Results for state 8.1 Triplet
 =============================
 !MCSCF STATE 8.1 Triplet Energy              -24984.6535775422    
 Nuclear energy                                  0.00000000
 Kinetic energy                              43484.57673090
 One electron energy                        -33997.74155108
 Two electron energy                          9013.08797353
 Virial ratio                                    1.57456357
 
 !MCSCF STATE 8.1 Triplet Dipole moment          0.00000000     0.00000000     0.00000000
 Dipole moment /Debye                            0.00000000     0.00000000     0.00000000
 
 Results for state 9.1 Triplet
 =============================
 !MCSCF STATE 9.1 Triplet Energy              -24984.6535775420    
 Nuclear energy                                  0.00000000
 Kinetic energy                              43484.57673091
 One electron energy                        -33997.74155122
 Two electron energy                          9013.08797368
 Virial ratio                                    1.57456357
 
 !MCSCF STATE 9.1 Triplet Dipole moment          0.00000000     0.00000000     0.00000000
 Dipole moment /Debye                            0.00000000     0.00000000     0.00000000
 
 Results for state 10.1 Triplet
 ==============================
 !MCSCF STATE 10.1 Triplet Energy             -24984.6485735347    
 Nuclear energy                                  0.00000000
 Kinetic energy                              43484.84664240
 One electron energy                        -34002.92820579
 Two electron energy                          9018.27963226
 Virial ratio                                    1.57455989
 
 !MCSCF STATE 10.1 Triplet Dipole moment         0.00000000     0.00000000     0.00000000
 Dipole moment /Debye                            0.00000000     0.00000000     0.00000000
 
 Results for state 11.1 Triplet
 ==============================
 !MCSCF STATE 11.1 Triplet Energy             -24984.6485735347    
 Nuclear energy                                  0.00000000
 Kinetic energy                              43484.84664238
 One electron energy                        -34002.92820557
 Two electron energy                          9018.27963204
 Virial ratio                                    1.57455989
 
 !MCSCF STATE 11.1 Triplet Dipole moment         0.00000000     0.00000000     0.00000000
 Dipole moment /Debye                            0.00000000     0.00000000     0.00000000
 
 Results for state 12.1 Triplet
 ==============================
 !MCSCF STATE 12.1 Triplet Energy             -24984.6485735347    
 Nuclear energy                                  0.00000000
 Kinetic energy                              43484.84664239
 One electron energy                        -34002.92820565
 Two electron energy                          9018.27963211
 Virial ratio                                    1.57455989
 
 !MCSCF STATE 12.1 Triplet Dipole moment         0.00000000     0.00000000     0.00000000
 Dipole moment /Debye                            0.00000000     0.00000000     0.00000000
 
 Results for state 13.1 Triplet
 ==============================
 !MCSCF STATE 13.1 Triplet Energy             -24984.6485735347    
 Nuclear energy                                  0.00000000
 Kinetic energy                              43484.84664238
 One electron energy                        -34002.92820552
 Two electron energy                          9018.27963199
 Virial ratio                                    1.57455989
 
 !MCSCF STATE 13.1 Triplet Dipole moment         0.00000000     0.00000000     0.00000000
 Dipole moment /Debye                            0.00000000     0.00000000     0.00000000
 
 Results for state 14.1 Triplet
 ==============================
 !MCSCF STATE 14.1 Triplet Energy             -24984.6485735347    
 Nuclear energy                                  0.00000000
 Kinetic energy                              43484.84664239
 One electron energy                        -34002.92820568
 Two electron energy                          9018.27963214
 Virial ratio                                    1.57455989
 
 !MCSCF STATE 14.1 Triplet Dipole moment         0.00000000     0.00000000     0.00000000
 Dipole moment /Debye                            0.00000000     0.00000000     0.00000000
 
 Results for state 15.1 Triplet
 ==============================
 !MCSCF STATE 15.1 Triplet Energy             -24984.6485735346    
 Nuclear energy                                  0.00000000
 Kinetic energy                              43484.84664238
 One electron energy                        -34002.92820554
 Two electron energy                          9018.27963201
 Virial ratio                                    1.57455989
 
 !MCSCF STATE 15.1 Triplet Dipole moment         0.00000000     0.00000000     0.00000000
 Dipole moment /Debye                            0.00000000     0.00000000     0.00000000
 
 Results for state 16.1 Triplet
 ==============================
 !MCSCF STATE 16.1 Triplet Energy             -24984.6485735346    
 Nuclear energy                                  0.00000000
 Kinetic energy                              43484.84664238
 One electron energy                        -34002.92820555
 Two electron energy                          9018.27963201
 Virial ratio                                    1.57455989
 
 !MCSCF STATE 16.1 Triplet Dipole moment         0.00000000     0.00000000     0.00000000
 Dipole moment /Debye                            0.00000000     0.00000000     0.00000000
 
 State-averaged charge density matrix saved on record 2140.2 (density set 1)
 
 No non-zero expectation values
 
 Expectation values for two-electron operators:
 
 ? Warning
 ? Transition properties are only calculated between states of the same symmetry
 ? The problem occurs in mu_properties_expec2

 !MCSCF expec      <1.1 Singlet|LXLX|1.1 Singlet>    -0.000000000000
 !MCSCF expec      <2.1 Singlet|LXLX|2.1 Singlet>     1.572217436141
 !MCSCF expec      <3.1 Singlet|LXLX|3.1 Singlet>     1.000001769496
 !MCSCF expec      <4.1 Singlet|LXLX|4.1 Singlet>     1.000012544604
 !MCSCF expec      <5.1 Singlet|LXLX|5.1 Singlet>     3.999984855535
 !MCSCF expec      <6.1 Singlet|LXLX|6.1 Singlet>     2.427789072353
 !MCSCF expec      <7.1 Singlet|LXLX|7.1 Singlet>    -0.000000000000
 !MCSCF expec      <1.1 Triplet|LXLX|1.1 Triplet>     2.719224880094
 !MCSCF expec      <2.1 Triplet|LXLX|2.1 Triplet>     1.000011787624
 !MCSCF expec      <3.1 Triplet|LXLX|3.1 Triplet>     3.999988095476
 !MCSCF expec      <4.1 Triplet|LXLX|4.1 Triplet>     1.280774241181
 !MCSCF expec      <5.1 Triplet|LXLX|5.1 Triplet>     0.999999989181
 !MCSCF expec      <6.1 Triplet|LXLX|6.1 Triplet>    -0.000000000000
 !MCSCF expec      <7.1 Triplet|LXLX|7.1 Triplet>     0.999999982135
 !MCSCF expec      <8.1 Triplet|LXLX|8.1 Triplet>     0.999999995888
 !MCSCF expec      <9.1 Triplet|LXLX|9.1 Triplet>     0.000000022059
 !MCSCF expec    <10.1 Triplet|LXLX|10.1 Triplet>     4.000019848118
 !MCSCF expec    <11.1 Triplet|LXLX|11.1 Triplet>     6.849933955978
 !MCSCF expec    <12.1 Triplet|LXLX|12.1 Triplet>     2.652000326132
 !MCSCF expec    <13.1 Triplet|LXLX|13.1 Triplet>     5.206401083216
 !MCSCF expec    <14.1 Triplet|LXLX|14.1 Triplet>     4.793569141914
 !MCSCF expec    <15.1 Triplet|LXLX|15.1 Triplet>     3.150045534090
 !MCSCF expec    <16.1 Triplet|LXLX|16.1 Triplet>     1.348047995289
 
 !MCSCF expec      <1.1 Singlet|LYLY|1.1 Singlet>     0.000000000000
 !MCSCF expec      <2.1 Singlet|LYLY|2.1 Singlet>     3.905857708928
 !MCSCF expec      <3.1 Singlet|LYLY|3.1 Singlet>     3.999998427409
 !MCSCF expec      <4.1 Singlet|LYLY|4.1 Singlet>     0.999999503607
 !MCSCF expec      <5.1 Singlet|LYLY|5.1 Singlet>     1.000000824787
 !MCSCF expec      <6.1 Singlet|LYLY|6.1 Singlet>     0.094141758419
 !MCSCF expec      <7.1 Singlet|LYLY|7.1 Singlet>     0.000000000000
 !MCSCF expec      <1.1 Triplet|LYLY|1.1 Triplet>     0.024207925713
 !MCSCF expec      <2.1 Triplet|LYLY|2.1 Triplet>     1.000000201074
 !MCSCF expec      <3.1 Triplet|LYLY|3.1 Triplet>     1.000000166805
 !MCSCF expec      <4.1 Triplet|LYLY|4.1 Triplet>     3.975791889841
 !MCSCF expec      <5.1 Triplet|LYLY|5.1 Triplet>     3.999999988091
 !MCSCF expec      <6.1 Triplet|LYLY|6.1 Triplet>     0.000000000000
 !MCSCF expec      <7.1 Triplet|LYLY|7.1 Triplet>     0.000000018176
 !MCSCF expec      <8.1 Triplet|LYLY|8.1 Triplet>     0.999999999690
 !MCSCF expec      <9.1 Triplet|LYLY|9.1 Triplet>     0.999999982123
 !MCSCF expec    <10.1 Triplet|LYLY|10.1 Triplet>     3.999983284987
 !MCSCF expec    <11.1 Triplet|LYLY|11.1 Triplet>     1.664363385823
 !MCSCF expec    <12.1 Triplet|LYLY|12.1 Triplet>     1.012581383683
 !MCSCF expec    <13.1 Triplet|LYLY|13.1 Triplet>     0.040297880365
 !MCSCF expec    <14.1 Triplet|LYLY|14.1 Triplet>     3.959715261132
 !MCSCF expec    <15.1 Triplet|LYLY|15.1 Triplet>     8.335651537062
 !MCSCF expec    <16.1 Triplet|LYLY|16.1 Triplet>     8.987402931498
 
 !MCSCF expec      <1.1 Singlet|LZLZ|1.1 Singlet>    -0.000000000000
 !MCSCF expec      <2.1 Singlet|LZLZ|2.1 Singlet>     0.521924854931
 !MCSCF expec      <3.1 Singlet|LZLZ|3.1 Singlet>     0.999999803095
 !MCSCF expec      <4.1 Singlet|LZLZ|4.1 Singlet>     3.999987951789
 !MCSCF expec      <5.1 Singlet|LZLZ|5.1 Singlet>     1.000014319678
 !MCSCF expec      <6.1 Singlet|LZLZ|6.1 Singlet>     3.478069169227
 !MCSCF expec      <7.1 Singlet|LZLZ|7.1 Singlet>    -0.000000000000
 !MCSCF expec      <1.1 Triplet|LZLZ|1.1 Triplet>     3.256567194193
 !MCSCF expec      <2.1 Triplet|LZLZ|2.1 Triplet>     3.999988011301
 !MCSCF expec      <3.1 Triplet|LZLZ|3.1 Triplet>     1.000011737719
 !MCSCF expec      <4.1 Triplet|LZLZ|4.1 Triplet>     0.743433868978
 !MCSCF expec      <5.1 Triplet|LZLZ|5.1 Triplet>     1.000000022729
 !MCSCF expec      <6.1 Triplet|LZLZ|6.1 Triplet>    -0.000000000000
 !MCSCF expec      <7.1 Triplet|LZLZ|7.1 Triplet>     0.999999999689
 !MCSCF expec      <8.1 Triplet|LZLZ|8.1 Triplet>     0.000000004422
 !MCSCF expec      <9.1 Triplet|LZLZ|9.1 Triplet>     0.999999995817
 !MCSCF expec    <10.1 Triplet|LZLZ|10.1 Triplet>     3.999996866895
 !MCSCF expec    <11.1 Triplet|LZLZ|11.1 Triplet>     3.485702658199
 !MCSCF expec    <12.1 Triplet|LZLZ|12.1 Triplet>     8.335418290185
 !MCSCF expec    <13.1 Triplet|LZLZ|13.1 Triplet>     6.753301036419
 !MCSCF expec    <14.1 Triplet|LZLZ|14.1 Triplet>     3.246715596954
 !MCSCF expec    <15.1 Triplet|LZLZ|15.1 Triplet>     0.514302928848
 !MCSCF expec    <16.1 Triplet|LZLZ|16.1 Triplet>     1.664549073213
 
 !MCSCF expec      <1.1 Singlet|L**2|1.1 Singlet>    -0.000000000000
 !MCSCF expec      <2.1 Singlet|L**2|2.1 Singlet>     6.000000000000
 !MCSCF expec      <3.1 Singlet|L**2|3.1 Singlet>     6.000000000000
 !MCSCF expec      <4.1 Singlet|L**2|4.1 Singlet>     6.000000000000
 !MCSCF expec      <5.1 Singlet|L**2|5.1 Singlet>     6.000000000000
 !MCSCF expec      <6.1 Singlet|L**2|6.1 Singlet>     6.000000000000
 !MCSCF expec      <7.1 Singlet|L**2|7.1 Singlet>    -0.000000000000
 !MCSCF expec      <1.1 Triplet|L**2|1.1 Triplet>     6.000000000000
 !MCSCF expec      <2.1 Triplet|L**2|2.1 Triplet>     6.000000000000
 !MCSCF expec      <3.1 Triplet|L**2|3.1 Triplet>     6.000000000000
 !MCSCF expec      <4.1 Triplet|L**2|4.1 Triplet>     6.000000000000
 !MCSCF expec      <5.1 Triplet|L**2|5.1 Triplet>     6.000000000000
 !MCSCF expec      <6.1 Triplet|L**2|6.1 Triplet>    -0.000000000000
 !MCSCF expec      <7.1 Triplet|L**2|7.1 Triplet>     2.000000000000
 !MCSCF expec      <8.1 Triplet|L**2|8.1 Triplet>     2.000000000000
 !MCSCF expec      <9.1 Triplet|L**2|9.1 Triplet>     2.000000000000
 !MCSCF expec    <10.1 Triplet|L**2|10.1 Triplet>    12.000000000000
 !MCSCF expec    <11.1 Triplet|L**2|11.1 Triplet>    12.000000000000
 !MCSCF expec    <12.1 Triplet|L**2|12.1 Triplet>    12.000000000000
 !MCSCF expec    <13.1 Triplet|L**2|13.1 Triplet>    12.000000000000
 !MCSCF expec    <14.1 Triplet|L**2|14.1 Triplet>    12.000000000000
 !MCSCF expec    <15.1 Triplet|L**2|15.1 Triplet>    12.000000000000
 !MCSCF expec    <16.1 Triplet|L**2|16.1 Triplet>    12.000000000000
 
 EXTRA SYMMETRY OF MOS IN SYMMETRY 1:   1 1 1 2 4 3 5 6 1 4   2 3 5 6 1 3 4 2 5 6   1 1 2 6 4 3 5 1 2 5   3 4 6 1 5 3 2 4 6 1
                                       1310151412 8 9 711 3   5 4 2 6 110131514 9  12 8 711 4 6 2 5 3 1  1013141512 8 9 711 4
                                        6 2 5 3 4 6 2 5 3 1   4 6 5 3 2 1
 EXTRA SYMMETRY OF MOS IN SYMMETRY 2:   3 1 2 1 3 2 1 3 2 4   610 8 9 7 5 1 3 2 1   3 2 3 2 1 3 2 1 2 3   1 810 9 7 4 6 5 2 1
                                        3 9 7 810 4 5 6 1 2   3 6 4 9 7 510 8 1 2   3 4 5 9 710 8 6 1 2   3 4 5 6 9 710 8 4 5
                                        6 9 710 8 1 2 3
 
  NATURAL ORBITALS (STATE AVERAGED)
  =================================

  Orbital  Occupation    Energy    Cen Mu Typ  Coefficients
    1.1     2.00000 -3845.20368     1  1  s    1.00000
    2.1     2.00000  -712.75287     1  2  s    0.99997
    3.1     2.00000  -179.76262     1  3  s    1.00000
    4.1     2.00000  -118.09970     1  1  d0   1.00000
    5.1     2.00000  -118.09970     1  1  d1+  1.00000
    6.1     2.00000  -118.09970     1  1  d2-  1.00000
    7.1     2.00000  -118.09970     1  1  d2+  1.00000
    8.1     2.00000  -118.09970     1  1  d1-  1.00000
    9.1     2.00000   -45.71554     1  4  s    0.99898
   10.1     2.00000   -23.67077     1  2  d1+  0.99998
   11.1     2.00000   -23.67077     1  2  d0   0.99998
   12.1     2.00000   -23.67077     1  2  d2-  0.99998
   13.1     2.00000   -23.67077     1  2  d2+  0.99998
   14.1     2.00000   -23.67077     1  2  d1-  0.99998
   15.1     2.00000   -10.01027     1  5  s    0.99879
   16.1     2.00000    -2.99031     1  3  d2-  1.00075
   17.1     2.00000    -2.99031     1  3  d1+  1.00075
   18.1     2.00000    -2.99031     1  3  d0   1.00075
   19.1     2.00000    -2.99031     1  3  d2+  1.00075
   20.1     2.00000    -2.99031     1  3  d1-  1.00075
   21.1     2.00000    -1.61696     1  6  s    1.06238
   22.1     0.56364    -0.05621     1  6  s    0.35680    1  7  s   -0.60714    1  8  s    0.31014
   23.1     0.23442     0.04960     1  4  d0   0.97277
   24.1     0.23442     0.04960     1  4  d1-  0.97277
   25.1     0.23442     0.04960     1  4  d1+  0.97277
   26.1     0.23442     0.04960     1  4  d2-  0.97277
   27.1     0.23442     0.04960     1  4  d2+  0.97277
   28.1     0.08555     0.02573     1  6  s   -0.25519    1  7  s    0.27688    1  8  s   -0.50736    1  9  s   -0.30029
                                    1 14  s    1.37345
    1.2     2.00000  -604.12718     1  1  pz   1.00000
    2.2     2.00000  -604.12718     1  1  px   1.00000
    3.2     2.00000  -604.12718     1  1  py   1.00000
    4.2     2.00000  -148.71557     1  2  px   1.00000
    5.2     2.00000  -148.71557     1  2  pz   1.00000
    6.2     2.00000  -148.71557     1  2  py   1.00000
    7.2     2.00000   -35.35385     1  3  px   1.00006
    8.2     2.00000   -35.35385     1  3  pz   1.00006
    9.2     2.00000   -35.35385     1  3  py   1.00006
   10.2     2.00000   -11.19769     1  1  f1+  1.00000
   11.2     2.00000   -11.19769     1  1  f0   1.00000
   12.2     2.00000   -11.19769     1  1  f2+  1.00000
   13.2     2.00000   -11.19769     1  1  f2-  1.00000
   14.2     2.00000   -11.19769     1  1  f3-  1.00000
   15.2     2.00000   -11.19769     1  1  f3+  1.00000
   16.2     2.00000   -11.19769     1  1  f1-  1.00000
   17.2     2.00000    -6.80154     1  4  px   0.99951
   18.2     2.00000    -6.80154     1  4  pz   0.99951
   19.2     2.00000    -6.80154     1  4  py   0.99951
   20.2     2.00000    -0.80576     1  5  px   0.99242
   21.2     2.00000    -0.80576     1  5  pz   0.99242
   22.2     2.00000    -0.80576     1  5  py   0.99242
   23.2     0.05956     0.04381     1  6  pz   1.59859    1  8  pz  -0.36306
   24.2     0.05956     0.04381     1  6  py   1.59859    1  8  py  -0.36306
   25.2     0.05956     0.04381     1  6  px   1.59859    1  8  px  -0.36306
 
 Natural orbital dump (state averaged) at molpro section 2140.2 (Orbital set 2)
 
 Transform the CI vectors
 
 CI Coefficients of symmetry 1 (Singlet)
 =======================================
 
 2000000 000      0.96584800     -0.00000000      0.00000000     -0.00000000     -0.00000000      0.00000000     -0.02193851
 b00000a 000     -0.00827759      0.00000000     -0.00000000      0.00000000      0.00000000     -0.00000000     -0.67813973
 a00000b 000      0.00827759     -0.00000000      0.00000000     -0.00000000     -0.00000000      0.00000000      0.67813973
 a00b000 000     -0.00000000      0.00027304      0.64630040      0.00004377     -0.00042710      0.00012053      0.00000000
 b00a000 000      0.00000000     -0.00027304     -0.64630040     -0.00004377      0.00042710     -0.00012053     -0.00000000
 b0a0000 000      0.00000000      0.00009848     -0.00042694     -0.00129064     -0.64629892     -0.00057622      0.00000000
 a0b0000 000     -0.00000000     -0.00009848      0.00042694      0.00129064      0.64629892      0.00057622     -0.00000000
 b000a00 000     -0.00000000      0.00019491      0.00004468     -0.64629887      0.00129130     -0.00074116      0.00000000
 a000b00 000      0.00000000     -0.00019491     -0.00004468      0.64629887     -0.00129130      0.00074116     -0.00000000
 ab00000 000      0.00000000      0.60266229     -0.00029822     -0.00008623     -0.00011595      0.23345780     -0.00000000
 ba00000 000     -0.00000000     -0.60266229      0.00029822      0.00008623      0.00011595     -0.23345780      0.00000000
 a0000b0 000     -0.00000000     -0.23345777     -0.00001409     -0.00076266     -0.00057135      0.60266164     -0.00000001
 b0000a0 000      0.00000000      0.23345777      0.00001409      0.00076266      0.00057135     -0.60266164      0.00000001
 0000000 020     -0.13466421      0.04269757     -0.00006947     -0.00030299     -0.00023805      0.27502323     -0.07630523
 0000000 200     -0.13466421     -0.25952610      0.00012842      0.00003713      0.00004993     -0.10053457     -0.07630524
 0000000 a0b      0.00000000     -0.00010183     -0.24103055     -0.00001632      0.00015928     -0.00004495      0.00000000
 0000000 b0a     -0.00000000      0.00010183      0.24103055      0.00001632     -0.00015928      0.00004495     -0.00000000
 0000000 ba0     -0.00000000     -0.00003673      0.00015922      0.00048133      0.24102999      0.00021489     -0.00000000
 0000000 ab0      0.00000000      0.00003673     -0.00015922     -0.00048133     -0.24102999     -0.00021489      0.00000000
 0000000 0ab     -0.00000000      0.00007269      0.00001666     -0.24102997      0.00048158     -0.00027641     -0.00000000
 0000000 0ba      0.00000000     -0.00007269     -0.00001666      0.24102997     -0.00048158      0.00027641      0.00000000
 0000000 002     -0.13466420      0.21682853     -0.00005896      0.00026586      0.00018811     -0.17448867     -0.07630525
 0000002 000     -0.01602037      0.00000000     -0.00000000      0.00000000      0.00000000     -0.00000000     -0.13833766
 0a00b00 000     -0.00000000     -0.00003480     -0.00000798      0.11538004     -0.00023053      0.00013231     -0.00000000
 0b00a00 000      0.00000000      0.00003480      0.00000798     -0.11538004      0.00023053     -0.00013231      0.00000000
 0002000 000     -0.04968021     -0.01770082      0.00002880      0.00012561      0.00009868     -0.11401438      0.09291604
 0000020 000     -0.04968021      0.10758985     -0.00005324     -0.00001539     -0.00002070      0.04167788      0.09291603
 0000200 000     -0.04968021      0.10758985     -0.00005324     -0.00001539     -0.00002070      0.04167789      0.09291603
 0200000 000     -0.04968021     -0.10758985      0.00005324      0.00001539      0.00002070     -0.04167788      0.09291603
 0b000a0 000      0.00000000      0.04167788      0.00000252      0.00013615      0.00010200     -0.10758973      0.00000001
 0a000b0 000     -0.00000000     -0.04167788     -0.00000252     -0.00013615     -0.00010200      0.10758973     -0.00000001
 000a0b0 000      0.00000000     -0.00004221     -0.09992228     -0.00000677      0.00006603     -0.00001863     -0.00000000
 000b0a0 000     -0.00000000      0.00004221      0.09992228      0.00000677     -0.00006603      0.00001863      0.00000000
 00a0b00 000     -0.00000000     -0.00004221     -0.09992228     -0.00000677      0.00006603     -0.00001863      0.00000000
 00b0a00 000      0.00000000      0.00004221      0.09992228      0.00000677     -0.00006603      0.00001863     -0.00000000
 000ab00 000      0.00000000      0.00001523     -0.00006601     -0.00019954     -0.09992205     -0.00008909     -0.00000000
 000ba00 000     -0.00000000     -0.00001523      0.00006601      0.00019954      0.09992205      0.00008909      0.00000000
 00b00a0 000      0.00000000      0.00001523     -0.00006601     -0.00019954     -0.09992205     -0.00008909     -0.00000000
 00a00b0 000     -0.00000000     -0.00001523      0.00006601      0.00019954      0.09992205      0.00008909      0.00000000
 00ba000 000     -0.00000000     -0.00003013     -0.00000691      0.09992204     -0.00019964      0.00011459     -0.00000000
 00ab000 000      0.00000000      0.00003013      0.00000691     -0.09992204      0.00019964     -0.00011459      0.00000000
 0020000 000     -0.04968021     -0.08988903      0.00002444     -0.00011022     -0.00007799      0.07233650      0.09291602
 0b0a000 000      0.00000000      0.00002437      0.05769016      0.00000391     -0.00003812      0.00001076      0.00000000
 0a0b000 000     -0.00000000     -0.00002437     -0.05769016     -0.00000391      0.00003812     -0.00001076     -0.00000000
 0ab0000 000      0.00000000      0.00000879     -0.00003811     -0.00011521     -0.05769002     -0.00005143     -0.00000000
 0ba0000 000     -0.00000000     -0.00000879      0.00003811      0.00011521      0.05769002      0.00005143      0.00000000
 
 Energy:     -24984.79316570 -24984.71199731 -24984.71199731 -24984.71199731 -24984.71199731 -24984.71199731 -24984.67081552
 
 
 CI Coefficients of symmetry 1 (Triplet)
 =======================================

 State:                1               2               3               4               5               6               7
 a00000a 000     -0.00000000     -0.00000000      0.00000000     -0.00000000      0.00000000      1.00000000     -0.00000000
 a00a000 000     -0.00004358     -0.00002593      0.00004527      0.00018735      0.99999886     -0.00000000      0.00000000
 a0a0000 000     -0.00008910      0.00197230      0.99999691      0.00022825     -0.00004527     -0.00000000     -0.00000000
 a000a00 000     -0.00008363      0.99999690     -0.00197225     -0.00027234      0.00002607     -0.00000000     -0.00000000
 0a000a0 000      0.00000000      0.00000000     -0.00000000      0.00000000     -0.00000000      0.00000000      0.00000000
 0a00a00 000     -0.00000000      0.00000000     -0.00000000     -0.00000000      0.00000000     -0.00000000      0.00000000
 a0000a0 000      0.90229705     -0.00004160      0.00017889     -0.43111222      0.00012008     -0.00000000     -0.00000000
 aa00000 000      0.43111226      0.00028146     -0.00016809      0.90229699     -0.00015024      0.00000000      0.00000000
 00a0a00 000      0.00000000     -0.00000000     -0.00000000     -0.00000000     -0.00000000     -0.00000000     -0.32637912
 000a0a0 000     -0.00000000     -0.00000000      0.00000000      0.00000000      0.00000000     -0.00000000     -0.32637910
 00a00a0 000     -0.00000000      0.00000000      0.00000000      0.00000000     -0.00000000      0.00000000      0.00004362
 00aa000 000     -0.00000000      0.00000000      0.00000000     -0.00000000     -0.00000000      0.00000000      0.00000576
 000aa00 000     -0.00000000     -0.00000000     -0.00000000     -0.00000000     -0.00000000     -0.00000000     -0.00004362
 0000000 a0a      0.00000000      0.00000000     -0.00000000     -0.00000000     -0.00000000      0.00000000      0.68365443
 0000000 0aa      0.00000000     -0.00000000      0.00000000      0.00000000     -0.00000000     -0.00000000     -0.00001206
 0000000 aa0     -0.00000000      0.00000000      0.00000000      0.00000000     -0.00000000     -0.00000000      0.00009138
 0000aa0 000     -0.00000000      0.00000000     -0.00000000     -0.00000000      0.00000000      0.00000000      0.00001152
 0aa0000 000      0.00000000      0.00000000      0.00000000      0.00000000     -0.00000000      0.00000000     -0.00007556
 0a0a000 000      0.00000000     -0.00000000      0.00000000      0.00000000      0.00000000     -0.00000000     -0.56530518
 
 Energy:     -24984.72154314 -24984.72154314 -24984.72154314 -24984.72154313 -24984.72154313 -24984.67790550 -24984.65357754

 State:                8               9              10              11              12              13              14
 a00000a 000      0.00000000      0.00000000     -0.00000000     -0.00000000     -0.00000000      0.00000000      0.00000000
 a00a000 000     -0.00000000     -0.00000000     -0.00000000     -0.00000000     -0.00000000      0.00000000     -0.00000000
 a0a0000 000     -0.00000000     -0.00000000      0.00000000      0.00000000     -0.00000000     -0.00000000     -0.00000000
 a000a00 000      0.00000000     -0.00000000      0.00000000     -0.00000000     -0.00000000      0.00000000      0.00000000
 0a000a0 000     -0.00000000     -0.00000000      0.99999638      0.00264511      0.00040902     -0.00008277     -0.00023941
 0a00a00 000      0.00000001     -0.00000000     -0.00247294      0.93349781      0.00038477      0.00037605     -0.00017051
 a0000a0 000      0.00000000      0.00000000     -0.00000000     -0.00000000     -0.00000000      0.00000000      0.00000000
 aa00000 000      0.00000000      0.00000000     -0.00000000     -0.00000000     -0.00000000      0.00000000      0.00000000
 00a0a00 000     -0.00000575      0.00004362      0.00009745     -0.00036391     -0.00332459      0.88990561      0.08975918
 000a0a0 000     -0.00000575      0.00004362      0.00017433      0.00021381      0.00103775     -0.30938516      0.83921369
 00a00a0 000      0.00002093      0.32637912     -0.00036638     -0.00012836      0.83495781      0.00300139      0.00013591
 00aa000 000     -0.32637912      0.00002093     -0.00083981      0.32071744     -0.00037842      0.00017225      0.00014851
 000aa00 000     -0.00002093     -0.32637911     -0.00015372     -0.00021600      0.51923396      0.00217448      0.00001959
 0000000 a0a      0.00001205     -0.00009138     -0.00000000     -0.00000000     -0.00000000      0.00000002     -0.00000000
 0000000 0aa      0.68365442     -0.00004384      0.00000000     -0.00000001     -0.00000000     -0.00000000      0.00000000
 0000000 aa0      0.00004384      0.68365441      0.00000000      0.00000000     -0.00000001     -0.00000000     -0.00000000
 0000aa0 000     -0.65275822      0.00004186      0.00041991     -0.16035872      0.00018921     -0.00008612     -0.00007425
 0aa0000 000     -0.00003625     -0.56530520     -0.00012278      0.00005060      0.18228325      0.00047742      0.00006715
 0a0a000 000     -0.00000997      0.00007556     -0.00015691      0.00008666      0.00132031     -0.33516366     -0.53634274
 
 Energy:     -24984.65357754 -24984.65357754 -24984.64857353 -24984.64857353 -24984.64857353 -24984.64857353 -24984.64857353

 State:               15              16
 a00000a 000      0.00000000      0.00000000
 a00a000 000      0.00000000     -0.00000000
 a0a0000 000     -0.00000000      0.00000000
 a000a00 000      0.00000000      0.00000000
 0a000a0 000     -0.00000980     -0.00007951
 0a00a00 000     -0.35857370     -0.00055510
 a0000a0 000      0.00000000      0.00000000
 aa00000 000     -0.00000000      0.00000000
 00a0a00 000     -0.00006060     -0.00028936
 000a0a0 000     -0.00016725      0.00016115
 00a00a0 000      0.00106386     -0.32067920
 00aa000 000      0.83494710      0.00165890
 000aa00 000     -0.00112927      0.72827881
 0000000 a0a     -0.00000000     -0.00000000
 0000000 0aa      0.00000001      0.00000000
 0000000 aa0     -0.00000000      0.00000000
 0000aa0 000     -0.41747356     -0.00082945
 0aa0000 000      0.00126620     -0.60561619
 0a0a000 000      0.00013155      0.00007402
 
 Energy:     -24984.64857353 -24984.64857353
 


 **********************************************************************************************************************************
 DATASETS  * FILE   NREC   LENGTH (MB)   RECORD NAMES
              1      24      309.64       500      610      700      900      950      970     1000      129      960     1700   
                                          VAR    BASINP    GEOM    SYMINP    ZMAT    AOBASIS   BASIS     P2S    ABASIS    OPER   
                                         1101     1401     1411     1412     1650     1100     1400     1410     1200     1210   
                                          SR      EKINR    POTR     PVPR    MOLCAS      S      EKIN      POT      H0       H01  
                                         1080     1600     1380     1700(1)
                                         AOSYM     SMH     JKOP     OPER   

              2       5        1.45       700     1000      520     2100     2140   
                                         GEOM     BASIS   MCVARS     RHF     MCSCF   

 PROGRAMS   *        TOTAL     MULTI   RHF-SCF       INT
 CPU TIMES  *        66.14     19.41      2.57     43.99
 REAL TIME  *        76.55 SEC
 DISK USED  *       311.22 MB (local),        2.10 GB (total)
 SF USED    *       666.84 MB
 GA USED    *         0.00 MB       (max)       0.00 MB       (current)
 **********************************************************************************************************************************

 Energies and &lt;L**2&gt; values

          ENERGY     LL
    -24984.79317   -0.0
    -24984.71200    6.0
    -24984.71200    6.0
    -24984.71200    6.0
    -24984.71200    6.0
    -24984.71200    6.0
    -24984.67082   -0.0
    -24984.72154    6.0
    -24984.72154    6.0
    -24984.72154    6.0
    -24984.72154    6.0
    -24984.72154    6.0
    -24984.67791   -0.0
    -24984.65358    2.0
    -24984.65358    2.0
    -24984.65358    2.0
    -24984.64857   12.0
    -24984.64857   12.0
    -24984.64857   12.0
    -24984.64857   12.0
    -24984.64857   12.0
    -24984.64857   12.0
    -24984.64857   12.0
                                                  


 PROGRAM * CI (Multireference internally contracted CI)     Authors: H.-J. Werner, P.J. Knowles, 1987


 Convergence thresholds:  THRVAR = 1.00D-08  THRDEN = 1.00D-06

 Number of optimized states: 7  Roots:    1   2   3   4   5   6   7
 Number of reference states: 7  Roots:    1   2   3   4   5   6   7

 Reference symmetry:                   1   Singlet 
 Number of electrons:                 88
 Maximum number of shells:             5
 Maximum number of spin couplings:    14

 Reference space:       34 conf       34 CSFs
 N elec internal:    29620 conf    75790 CSFs
 N-1 el internal:     9955 conf    31960 CSFs
 N-2 el internal:     1621 conf     5743 CSFs

 Number of electrons in valence space:                     20
 Maximum number of open shell orbitals in reference space:  2
 Maximum number of open shell orbitals in internal spaces:  8


 Number of core orbitals:          34 (  15  19 )
 Number of closed-shell orbitals:   9 (   6   3 )
 Number of active  orbitals:       10 (   7   3 )
 Number of external orbitals:     131 (  68  63 )

 Molecular orbitals read from record     2140.2  Type=MCSCF/NATURAL (state averaged)

 Integral transformation finished. Total CPU:   0.49 sec, npass=  1  Memory used:   3.67 MW


 Number of p-space configurations:  34

 Reference wavefunction optimized for reference space (refopt=1)

 State     Reference Energy 
     1    -24984.79316570
     2    -24984.71199731
     3    -24984.71199731
     4    -24984.71199731
     5    -24984.71199731
     6    -24984.71199731
     7    -24984.67081552

 Number of blocks in overlap matrix:   694   Smallest eigenvalue:  0.56D+00
 Number of N-2 electron functions:     748
 Number of N-1 electron functions:   31960

 Number of internal configurations:                38116
 Number of singly external configurations:       2093960
 Number of doubly external configurations:       3213849
 Total number of contracted configurations:      5345925
 Total number of uncontracted configurations:   26752065

 Diagonal Coupling coefficients finished.               Storage:  20307871 words, CPU-Time:     16.69 seconds.
 Energy denominators for pairs finished in 1 passes.    Storage:   1875714 words, CPU-time:      0.34 seconds.

  ITER. STATE  ROOT     SQ.NORM     CORR.ENERGY   TOTAL ENERGY   ENERGY CHANGE       DEN1      VAR(S)    VAR(P)      TIME
    1     1     1     1.00000000     0.00000000-24984.79316570    -0.00000000    -0.62474581  0.39D-01  0.91D-01    24.28
    1     2     2     1.00000000     0.00000000-24984.71199731    -0.00000000    -0.63011978  0.45D-01  0.97D-01    24.28
    1     3     3     1.00000000     0.00000000-24984.71199731    -0.00000000    -0.63032543  0.45D-01  0.97D-01    24.28
    1     4     4     1.00000000     0.00000000-24984.71199731    -0.00000000    -0.63031958  0.45D-01  0.96D-01    24.28
    1     5     5     1.00000000     0.00000000-24984.71199731     0.00000000    -0.63026339  0.45D-01  0.96D-01    24.28
    1     6     6     1.00000000     0.00000000-24984.71199731    -0.00000000    -0.63023962  0.45D-01  0.96D-01    24.28
    1     7     7     1.00000000     0.00000000-24984.67081552    -0.00000000    -0.61718972  0.46D-01  0.89D-01    24.28
    2     1     1     1.08323904    -0.50953355-24985.30269925    -0.50953355    -0.01070736  0.20D-02  0.12D-02   602.74
    2     2     2     1.08918746    -0.50816790-24985.22016521    -0.50816790    -0.01128625  0.25D-02  0.14D-02   602.74
    2     3     3     1.08929005    -0.50812014-24985.22011745    -0.50812014    -0.01133966  0.26D-02  0.14D-02   602.74
    2     4     4     1.08934119    -0.50810168-24985.22009899    -0.50810168    -0.01136162  0.26D-02  0.14D-02   602.74
    2     5     5     1.08936064    -0.50809628-24985.22009359    -0.50809628    -0.01136623  0.26D-02  0.14D-02   602.74
    2     6     6     1.08937279    -0.50808564-24985.22008295    -0.50808564    -0.01137953  0.26D-02  0.14D-02   602.74
    2     7     7     1.08641733    -0.50539143-24985.17620695    -0.50539143    -0.01049427  0.28D-02  0.12D-02   602.74
    3     1     1     1.08149272    -0.51969507-24985.31286077    -0.01016152    -0.00023138  0.31D-04  0.33D-04  1177.52
    3     2     2     1.08457662    -0.51877551-24985.23077282    -0.01060761    -0.00026135  0.40D-04  0.43D-04  1177.52
    3     3     3     1.08458405    -0.51877482-24985.23077213    -0.01065468    -0.00026194  0.40D-04  0.43D-04  1177.52
    3     4     4     1.08458923    -0.51877400-24985.23077131    -0.01067232    -0.00026290  0.41D-04  0.43D-04  1177.52
    3     5     5     1.08458885    -0.51877304-24985.23077035    -0.01067675    -0.00026394  0.41D-04  0.44D-04  1177.52
    3     6     6     1.08458804    -0.51877299-24985.23077030    -0.01068734    -0.00026396  0.41D-04  0.44D-04  1177.52
    3     7     7     1.08219451    -0.51545637-24985.18627189    -0.01006494    -0.00024772  0.44D-04  0.39D-04  1177.52
    4     1     1     1.08246116    -0.51993255-24985.31309825    -0.00023748    -0.00000849  0.30D-05  0.88D-06  1751.83
    4     2     2     1.08530970    -0.51904134-24985.23103865    -0.00026583    -0.00001027  0.45D-05  0.11D-05  1751.83
    4     3     3     1.08530989    -0.51904132-24985.23103863    -0.00026651    -0.00001029  0.45D-05  0.11D-05  1751.83
    4     4     4     1.08531110    -0.51904128-24985.23103859    -0.00026728    -0.00001035  0.46D-05  0.11D-05  1751.83
    4     5     5     1.08531058    -0.51904124-24985.23103855    -0.00026821    -0.00001038  0.46D-05  0.11D-05  1751.83
    4     6     6     1.08531034    -0.51904121-24985.23103852    -0.00026823    -0.00001041  0.46D-05  0.11D-05  1751.83
    4     7     7     1.08283984    -0.51571168-24985.18652719    -0.00025530    -0.00000961  0.37D-05  0.12D-05  1751.83
    5     1     1     1.08261114    -0.51994142-24985.31310712    -0.00000886    -0.00000036  0.91D-07  0.47D-07  2320.38
    5     2     2     1.08540404    -0.51905213-24985.23104944    -0.00001079    -0.00000051  0.15D-06  0.76D-07  2320.38
    5     3     3     1.08540415    -0.51905213-24985.23104944    -0.00001080    -0.00000051  0.15D-06  0.76D-07  2320.38
    5     4     4     1.08540428    -0.51905213-24985.23104944    -0.00001084    -0.00000051  0.15D-06  0.77D-07  2320.38
    5     5     5     1.08540421    -0.51905213-24985.23104944    -0.00001088    -0.00000051  0.15D-06  0.77D-07  2320.38
    5     6     6     1.08540411    -0.51905212-24985.23104943    -0.00001091    -0.00000051  0.15D-06  0.77D-07  2320.38
    5     7     7     1.08288967    -0.51572171-24985.18653722    -0.00001003    -0.00000043  0.13D-06  0.64D-07  2320.38
    6     1     1     1.08261678    -0.51994181-24985.31310751    -0.00000039    -0.00000002  0.36D-08  0.23D-08  2889.19
    6     2     2     1.08539597    -0.51905271-24985.23105002    -0.00000058    -0.00000003  0.10D-07  0.40D-08  2889.19
    6     3     3     1.08539591    -0.51905271-24985.23105002    -0.00000058    -0.00000003  0.10D-07  0.39D-08  2889.19
    6     4     4     1.08539598    -0.51905271-24985.23105002    -0.00000058    -0.00000003  0.10D-07  0.40D-08  2889.19
    6     5     5     1.08539592    -0.51905271-24985.23105002    -0.00000058    -0.00000003  0.10D-07  0.40D-08  2889.19
    6     6     6     1.08539593    -0.51905271-24985.23105002    -0.00000058    -0.00000003  0.10D-07  0.39D-08  2889.19
    6     7     7     1.08287893    -0.51572218-24985.18653770    -0.00000047    -0.00000002  0.49D-08  0.36D-08  2889.19
    7     1     1     1.08261678    -0.51994181-24985.31310751    -0.00000000    -0.00000002  0.36D-08  0.23D-08  3308.75
    7     2     2     1.08540358    -0.51905274-24985.23105005    -0.00000003    -0.00000000  0.36D-09  0.19D-09  3308.75
    7     3     3     1.08540313    -0.51905274-24985.23105005    -0.00000003    -0.00000000  0.70D-09  0.20D-09  3308.75
    7     4     4     1.08540314    -0.51905274-24985.23105005    -0.00000003    -0.00000000  0.70D-09  0.20D-09  3308.75
    7     5     5     1.08540314    -0.51905274-24985.23105005    -0.00000003    -0.00000000  0.68D-09  0.20D-09  3308.75
    7     6     6     1.08540315    -0.51905274-24985.23105005    -0.00000003    -0.00000000  0.69D-09  0.20D-09  3308.75
    7     7     7     1.08287893    -0.51572218-24985.18653770    -0.00000000    -0.00000002  0.49D-08  0.36D-08  3308.75


 =====================================
 Analysis of CPU times by interactions
 =====================================

       I      S      P

 I   2.3%
 S   0.6%  78.9%
 P   0.2%   8.3%   4.3%

 Initialization:   0.5%
 Other:            4.8%

 Total CPU:     3308.8 seconds
 =====================================



 Wavefunction saved on  5101.2

 Reference coefficients greater than 0.0500000
 =============================================
 2222222000000222000           0.9287381   0.0000000   0.0000000   0.0000000  -0.0000000  -0.0000000   0.0378489
 222222/00000\222000          -0.0447933   0.0000000   0.0000000   0.0000000  -0.0000000   0.0000000   0.9167835
 222222/000\00222000          -0.0000000  -0.0000000  -0.0000000   0.8827107   0.0000000   0.0000000  -0.0000000
 222222/00\000222000          -0.0000000  -0.0000000   0.8827107   0.0000000   0.0000000   0.0000000  -0.0000000
 222222/0\0000222000          -0.0000000   0.8827104   0.0000000  -0.0000000   0.0000000  -0.0000000  -0.0000000
 222222/\00000222000           0.0000000  -0.0000000  -0.0000000  -0.0000000   0.8826004   0.0139565  -0.0000000
 222222/0000\0222000          -0.0000000   0.0000000  -0.0000000  -0.0000000  -0.0139565   0.8826004   0.0000000
 2222220000000222/0\          -0.0000000   0.0000000  -0.3103629   0.0000000   0.0000000   0.0000000  -0.0000000
 22222200000002220/\          -0.0000000  -0.0000000  -0.0000000  -0.3103629  -0.0000000   0.0000000  -0.0000000
 2222220000000222/\0          -0.0000000  -0.3103629   0.0000000  -0.0000000   0.0000000  -0.0000000   0.0000000
 2222220000000222200          -0.1172552  -0.0000000  -0.0000000  -0.0000000  -0.2533786  -0.0040067  -0.0830246
 2222220000000222020          -0.1172552  -0.0000000   0.0000000  -0.0000000   0.1232194   0.2214356  -0.0830246
 2222220000000222002          -0.1172552   0.0000000  -0.0000000   0.0000000   0.1301592  -0.2174290  -0.0830246
 2222220/00\00222000          -0.0000000   0.0000000  -0.0000000   0.1542672  -0.0000000   0.0000000  -0.0000000
 2222220/000\0222000           0.0000000  -0.0000000  -0.0000000  -0.0000000  -0.0024391   0.1542480  -0.0000000
 2222220000002222000          -0.0087422  -0.0000000  -0.0000000  -0.0000000  -0.0000000   0.0000000  -0.1435932
 22222200/00\0222000          -0.0000000   0.1335996   0.0000000  -0.0000000   0.0000000  -0.0000000  -0.0000000
 222222000/\00222000           0.0000000  -0.1335996  -0.0000000   0.0000000  -0.0000000   0.0000000   0.0000000
 222222000/0\0222000           0.0000000  -0.0000000  -0.1335993  -0.0000000  -0.0000000  -0.0000000   0.0000000
 22222200/0\00222000           0.0000000  -0.0000000  -0.1335993  -0.0000000  -0.0000000  -0.0000000   0.0000000
 22222200/\000222000          -0.0000000  -0.0000000   0.0000000  -0.1335993  -0.0000000  -0.0000000   0.0000000
 2222220200000222000          -0.0511831   0.0000000   0.0000000  -0.0000000  -0.1090697  -0.0017247   0.0849739
 2222220000020222000          -0.0511831  -0.0000000  -0.0000000  -0.0000000   0.1090697   0.0017247   0.0849739
 2222220000200222000          -0.0511831   0.0000000  -0.0000000   0.0000000   0.1090697   0.0017247   0.0849738
 2222220002000222000          -0.0511830   0.0000000  -0.0000000   0.0000000  -0.0530412  -0.0953195   0.0849738
 2222220020000222000          -0.0511830   0.0000000   0.0000000   0.0000000  -0.0560285   0.0935948   0.0849738
 2222220/\0000222000           0.0000000  -0.0771338  -0.0000000   0.0000000  -0.0000000   0.0000000  -0.0000000
 2222220/0\000222000           0.0000000  -0.0000000  -0.0771336  -0.0000000  -0.0000000  -0.0000000   0.0000000

 Coefficients of fixed reference functions:
 ==========================================

 State      Coefficients
 1           0.956720    0.000000   -0.000000   -0.000000   -0.000000    0.000000   -0.059061
 2           0.000000   -0.000000    0.000000    0.000000    0.957923    0.000000    0.000000
 3           0.000000   -0.000000    0.957923   -0.000000   -0.000000   -0.000000    0.000000
 4           0.000000    0.000000    0.000000    0.957923   -0.000000   -0.000000    0.000000
 5          -0.000000    0.898572    0.000000    0.000000    0.000000    0.331941    0.000000
 6           0.000000   -0.331941    0.000000    0.000000   -0.000000    0.898572   -0.000000
 7           0.062023   -0.000000   -0.000000   -0.000000   -0.000000    0.000000    0.956744

 Coefficients of rotated reference functions:
 ============================================

 State      Coefficients
 1           0.958540    0.000000    0.000000    0.000000   -0.000000    0.000000    0.001477
 2           0.000000    0.957923   -0.000000   -0.000000    0.000000   -0.000000    0.000000
 3           0.000000   -0.000000    0.957923    0.000000   -0.000000    0.000000    0.000000
 4           0.000000   -0.000000    0.000000    0.957923   -0.000000    0.000000   -0.000000
 5          -0.000000    0.000000   -0.000000   -0.000000    0.957923    0.000000   -0.000000
 6           0.000000   -0.000000    0.000000    0.000000    0.000000    0.957923   -0.000000
 7           0.001477    0.000000    0.000000   -0.000000   -0.000000   -0.000000    0.958751


 RESULTS FOR STATE 1.1
 =====================

 Coefficient of reference function:   C(0) = 0.95671967 (fixed)   0.95863558 (relaxed)   0.95853981 (rotated)

 Energy contributions of configuration classes

 CLASS          SQ.NORM        ECORR1        ECORR2
 +++++++++++++++++++++++++++++++++++++++++++++++++++
 Internals    0.00532143   -0.01033162   -0.44961352
 Singles      0.02037814   -0.06552823   -0.06994706
 Pairs        0.06267828    0.03216898   -0.00038122
 Total        1.08837785   -0.04369087   -0.51994181
 +++++++++++++++++++++++++++++++++++++++++++++++++++


 Reference energy                  -24984.79267772
 Nuclear energy                         0.00000000
 Kinetic energy                     43485.65349300
 One electron energy               -33999.65438894
 Two electron energy                 9014.34128143
 Virial quotient                       -0.57456451
 Correlation energy                    -0.52042979
 !MRCI STATE 1.1 Energy              -24985.3131075104    

 Properties without orbital relaxation:

 !MRCI STATE 1.1 Dipole moment          0.00000000     0.00000000     0.00000000
 Dipole moment /Debye                   0.00000000     0.00000000     0.00000000

 Cluster corrected energies        -24985.35910198 (Davidson, fixed reference)
 Cluster corrected energies        -24985.35898881 (Davidson, relaxed reference)
 Cluster corrected energies        -24985.35910198 (Davidson, rotated reference)

 Cluster corrected energies        -24985.35761572 (Pople, fixed reference)
 Cluster corrected energies        -24985.35749809 (Pople, relaxed reference)
 Cluster corrected energies        -24985.35761572 (Pople, rotated reference)



 RESULTS FOR STATE 2.1
 =====================

 Maximum overlap with reference state  5

 Coefficient of reference function:   C(0) = 0.95792264 (fixed)   0.95814932 (relaxed)   0.95792264 (rotated)

 Energy contributions of configuration classes

 CLASS          SQ.NORM        ECORR1        ECORR2
 +++++++++++++++++++++++++++++++++++++++++++++++++++
 Internals    0.00403273   -0.00753355   -0.42022258
 Singles      0.02094286   -0.06319547   -0.06796428
 Pairs        0.06480514   -0.00000000   -0.03086588
 Total        1.08978072   -0.07072902   -0.51905274
 +++++++++++++++++++++++++++++++++++++++++++++++++++


 Reference energy                  -24984.71199731
 Nuclear energy                         0.00000000
 Kinetic energy                     43485.18270811
 One electron energy               -34000.01403572
 Two electron energy                 9014.78298567
 Virial quotient                       -0.57456884
 Correlation energy                    -0.51905274
 !MRCI STATE 2.1 Energy              -24985.2310500503    

 Properties without orbital relaxation:

 !MRCI STATE 2.1 Dipole moment          0.00000000     0.00000000     0.00000000
 Dipole moment /Debye                   0.00000000     0.00000000     0.00000000

 Cluster corrected energies        -24985.27765098 (Davidson, fixed reference)
 Cluster corrected energies        -24985.27738337 (Davidson, relaxed reference)
 Cluster corrected energies        -24985.27765098 (Davidson, rotated reference)

 Cluster corrected energies        -24985.27619839 (Pople, fixed reference)
 Cluster corrected energies        -24985.27591965 (Pople, relaxed reference)
 Cluster corrected energies        -24985.27619839 (Pople, rotated reference)



 RESULTS FOR STATE 3.1
 =====================

 Coefficient of reference function:   C(0) = 0.95792284 (fixed)   0.95814952 (relaxed)   0.95792284 (rotated)

 Energy contributions of configuration classes

 CLASS          SQ.NORM        ECORR1        ECORR2
 +++++++++++++++++++++++++++++++++++++++++++++++++++
 Internals    0.00403274   -0.00753355   -0.42022310
 Singles      0.02094257   -0.06319510   -0.06796423
 Pairs        0.06480497   -0.00000000   -0.03086542
 Total        1.08978028   -0.07072865   -0.51905274
 +++++++++++++++++++++++++++++++++++++++++++++++++++


 Reference energy                  -24984.71199731
 Nuclear energy                         0.00000000
 Kinetic energy                     43485.18272115
 One electron energy               -34000.01384788
 Two electron energy                 9014.78279783
 Virial quotient                       -0.57456884
 Correlation energy                    -0.51905274
 !MRCI STATE 3.1 Energy              -24985.2310500499    

 Properties without orbital relaxation:

 !MRCI STATE 3.1 Dipole moment          0.00000000     0.00000000     0.00000000
 Dipole moment /Debye                   0.00000000     0.00000000     0.00000000

 Cluster corrected energies        -24985.27765075 (Davidson, fixed reference)
 Cluster corrected energies        -24985.27738314 (Davidson, relaxed reference)
 Cluster corrected energies        -24985.27765075 (Davidson, rotated reference)

 Cluster corrected energies        -24985.27619815 (Pople, fixed reference)
 Cluster corrected energies        -24985.27591941 (Pople, relaxed reference)
 Cluster corrected energies        -24985.27619815 (Pople, rotated reference)



 RESULTS FOR STATE 4.1
 =====================

 Coefficient of reference function:   C(0) = 0.95792284 (fixed)   0.95814952 (relaxed)   0.95792284 (rotated)

 Energy contributions of configuration classes

 CLASS          SQ.NORM        ECORR1        ECORR2
[...]
 45  1     6    1  |1 1>-         0.00%    0.00%    0.00%    0.00%    0.00%    0.00%    0.00%    0.00%
 46  1     7    1  |1 1>-         0.00%    0.00%    0.00%    0.00%   23.82%    0.00%    0.00%    0.00%
 47  1     8    1  |1 1>-         0.00%    0.00%   34.65%    0.00%    0.00%    0.00%    0.07%    0.00%
 48  1     9    1  |1 1>-         0.00%    0.00%    0.00%   36.61%    0.00%    0.00%    0.00%    0.00%
 49  1    10    1  |1 1>-         0.00%    0.00%    0.00%    0.00%    0.00%   23.81%    0.00%    0.25%
 50  1    11    1  |1 1>-         0.00%    0.00%    0.00%    1.49%    0.00%    0.00%    0.00%    0.00%
 51  1    12    1  |1 1>-         0.00%    0.00%    3.38%    0.00%    0.00%    0.00%   28.56%    0.00%
 52  1    13    1  |1 1>-         0.00%    0.00%    0.00%    0.00%   14.28%    0.00%    0.00%    0.00%
 53  1    14    1  |1 1>-         0.00%    0.00%    0.00%    0.00%    0.00%    0.00%    0.00%    0.00%
 54  1    15    1  |1 1>-         0.00%    0.00%    0.00%    0.00%    0.00%    0.00%    0.00%    0.00%
 55  1    16    1  |1 1>-         1.46%   31.84%    0.00%    0.00%    0.00%    0.00%    0.00%    0.00%

   Total
 Nr Sym  State Sym Spin / Nr.     33       34       35       36       37       38       39       40

  1  1     1    1  |0 0>          0.00%    0.00%    0.00%    0.00%    0.00%    0.00%    0.00%    0.00%
  2  1     2    1  |0 0>          0.00%    0.00%    0.00%    0.00%    0.00%    0.00%    0.00%    0.00%
  3  1     3    1  |0 0>          0.00%    0.00%    0.00%    0.00%    0.00%    0.00%    0.00%    0.00%
  4  1     4    1  |0 0>          0.00%    0.00%    0.00%    0.00%    0.00%    0.00%    0.00%    0.00%
  5  1     5    1  |0 0>          0.00%    0.00%    0.00%    0.00%    0.00%    0.00%    0.00%    0.00%
  6  1     6    1  |0 0>          0.00%    0.00%    0.00%    0.00%    0.00%    0.00%    0.00%    0.00%
  7  1     7    1  |0 0>          0.00%    0.00%    0.00%    0.00%    0.00%    0.00%    0.00%    0.00%
  8  1     1    1  |1 1>+         0.00%    0.00%    0.00%    0.00%    0.00%    0.00%    0.00%    0.00%
  9  1     2    1  |1 1>+         0.00%    0.00%    0.00%    0.00%    0.00%    0.00%    0.00%    0.00%
 10  1     3    1  |1 1>+         0.00%    0.00%    0.00%    0.00%    0.00%    0.00%    0.00%    0.00%
 11  1     4    1  |1 1>+         0.00%    0.00%    0.00%    0.00%    0.00%    0.00%    0.00%    0.00%
 12  1     5    1  |1 1>+         0.00%    0.00%    0.00%    0.00%    0.00%    0.00%    0.00%    0.00%
 13  1     6    1  |1 1>+         0.00%    0.00%    0.00%    0.00%    0.00%    0.00%    0.00%    0.05%
 14  1     7    1  |1 1>+         0.00%    0.00%    3.68%    0.00%    0.00%    0.00%    0.00%    0.00%
 15  1     8    1  |1 1>+         0.00%    0.00%    0.00%    0.00%    0.17%   10.77%    0.00%    0.00%
 16  1     9    1  |1 1>+         0.00%   14.23%    0.00%    0.00%    0.00%    0.00%    0.00%    0.00%
 17  1    10    1  |1 1>+         0.31%    0.00%    0.00%   33.01%    0.00%    0.00%    0.00%    0.00%
 18  1    11    1  |1 1>+         0.00%   19.09%    0.00%    0.00%    0.00%    0.00%    0.00%    0.00%
 19  1    12    1  |1 1>+         0.00%    0.00%    0.00%    0.00%   49.06%   23.33%    0.00%    0.00%
 20  1    13    1  |1 1>+         0.00%    0.00%   35.31%    0.00%    0.00%    0.00%    0.00%    0.00%
 21  1    14    1  |1 1>+         0.00%    0.00%    0.00%    0.00%    0.00%    0.00%   49.98%    0.00%
 22  1    15    1  |1 1>+         0.00%    0.00%    0.00%    0.00%    0.00%    0.00%    0.00%    0.00%
 23  1    16    1  |1 1>+         0.00%    0.00%    0.00%    0.00%    0.00%    0.00%    0.00%    0.00%
 24  1     1    1  |1 0>          0.00%    0.00%    0.00%    0.00%    0.00%    0.00%    0.00%    0.00%
 25  1     2    1  |1 0>          0.00%    0.00%    0.00%    0.00%    0.00%    0.00%    0.00%    0.00%
 26  1     3    1  |1 0>          0.00%    0.00%    0.00%    0.00%    0.00%    0.00%    0.00%    0.00%
 27  1     4    1  |1 0>          0.00%    0.00%    0.00%    0.00%    0.00%    0.00%    0.00%    0.00%
 28  1     5    1  |1 0>          0.00%    0.00%    0.00%    0.00%    0.00%    0.00%    0.00%    0.00%
 29  1     6    1  |1 0>          0.00%    0.00%    0.00%    0.00%    0.00%    0.00%    0.00%    0.00%
 30  1     7    1  |1 0>          0.00%   33.36%    0.00%    0.00%    0.00%    0.00%    0.00%    0.00%
 31  1     8    1  |1 0>         54.75%    0.00%    0.00%   20.07%    0.00%    0.00%    0.00%    0.00%
 32  1     9    1  |1 0>          0.00%    0.00%   20.78%    0.00%    0.00%    0.00%    0.00%    0.00%
 33  1    10    1  |1 0>          0.00%    0.00%    0.00%    0.00%    0.00%   33.35%    0.00%    0.00%
 34  1    11    1  |1 0>          0.00%    0.00%    7.15%    0.00%    0.00%    0.00%    0.00%    0.00%
 35  1    12    1  |1 0>          1.32%    0.00%    0.00%    7.22%    0.00%    0.00%    0.00%    0.00%
 36  1    13    1  |1 0>          0.00%    0.00%    0.00%    0.00%    0.00%    0.00%    0.00%    0.00%
 37  1    14    1  |1 0>          0.00%    0.00%    0.00%    0.00%    0.00%    0.00%    0.00%    0.00%
 38  1    15    1  |1 0>          0.00%    0.00%    0.00%    0.00%    0.00%    0.00%   49.97%    0.00%
 39  1    16    1  |1 0>          0.00%    0.00%    0.00%    0.00%    0.00%    0.00%    0.00%   49.97%
 40  1     1    1  |1 1>-         0.00%    0.00%    0.00%    0.00%    0.00%    0.00%    0.00%    0.00%
 41  1     2    1  |1 1>-         0.00%    0.00%    0.00%    0.00%    0.00%    0.00%    0.00%    0.00%
 42  1     3    1  |1 1>-         0.00%    0.00%    0.00%    0.00%    0.00%    0.00%    0.00%    0.00%
 43  1     4    1  |1 1>-         0.00%    0.00%    0.00%    0.00%    0.00%    0.00%    0.00%    0.00%
 44  1     5    1  |1 1>-         0.00%    0.00%    0.00%    0.00%    0.00%    0.00%    0.00%    0.00%
 45  1     6    1  |1 1>-         0.00%    0.00%    0.00%    0.00%    0.00%    0.00%    0.05%    0.00%
 46  1     7    1  |1 1>-        29.41%    0.00%    0.00%    3.91%    0.00%    0.00%    0.00%    0.00%
 47  1     8    1  |1 1>-         0.00%   14.24%    0.00%    0.00%    0.00%    0.00%    0.00%    0.00%
 48  1     9    1  |1 1>-         0.00%    0.00%    0.00%    0.00%    0.11%   10.83%    0.00%    0.00%
 49  1    10    1  |1 1>-         0.00%    0.00%   33.07%    0.00%    0.00%    0.00%    0.00%    0.00%
 50  1    11    1  |1 1>-         0.00%    0.00%    0.00%    0.00%   50.65%   21.73%    0.00%    0.00%
 51  1    12    1  |1 1>-         0.00%   19.08%    0.00%    0.00%    0.00%    0.00%    0.00%    0.00%
 52  1    13    1  |1 1>-        14.21%    0.00%    0.00%   35.79%    0.00%    0.00%    0.00%    0.00%
 53  1    14    1  |1 1>-         0.00%    0.00%    0.00%    0.00%    0.00%    0.00%    0.00%   49.98%
 54  1    15    1  |1 1>-         0.00%    0.00%    0.00%    0.00%    0.00%    0.00%    0.00%    0.00%
 55  1    16    1  |1 1>-         0.00%    0.00%    0.00%    0.00%    0.00%    0.00%    0.00%    0.00%

   Total
 Nr Sym  State Sym Spin / Nr.     41       42       43       44       45       46       47       48

  1  1     1    1  |0 0>          0.00%    0.00%    0.00%    0.00%    0.00%    0.00%    0.00%    0.00%
  2  1     2    1  |0 0>          0.00%    0.00%    0.00%    0.00%    0.00%    0.00%    0.00%    0.00%
  3  1     3    1  |0 0>          0.00%    0.00%    0.00%    0.00%    0.00%    0.00%    0.00%    0.00%
  4  1     4    1  |0 0>          0.00%    0.00%    0.00%    0.00%    0.00%    0.00%    0.00%    0.00%
  5  1     5    1  |0 0>          0.00%    0.00%    0.00%    0.00%    0.00%    0.00%    0.00%    0.00%
  6  1     6    1  |0 0>          0.00%    0.00%    0.00%    0.00%    0.00%    0.00%    0.00%    0.00%
  7  1     7    1  |0 0>          0.00%    0.00%    0.00%    0.00%    0.00%    0.00%    0.00%    0.00%
  8  1     1    1  |1 1>+         0.00%    0.00%    0.00%    0.00%    0.00%    0.00%    0.00%    0.00%
  9  1     2    1  |1 1>+         0.00%    0.00%    0.00%    0.00%    0.00%    0.00%    0.00%    0.00%
 10  1     3    1  |1 1>+         0.00%    0.00%    0.00%    0.00%    0.00%    0.00%    0.00%    0.00%
 11  1     4    1  |1 1>+         0.00%    0.00%    0.00%    0.00%    0.00%    0.00%    0.00%    0.00%
 12  1     5    1  |1 1>+         0.00%    0.00%    0.00%    0.00%    0.00%    0.00%    0.00%    0.00%
 13  1     6    1  |1 1>+         0.00%    0.00%    0.00%    0.00%    0.00%    0.00%    0.00%    0.00%
 14  1     7    1  |1 1>+         0.00%    0.00%    0.00%   41.41%    0.00%    0.00%    0.00%    1.44%
 15  1     8    1  |1 1>+         0.00%    0.00%   49.72%    0.00%    0.00%    0.00%    2.73%    0.00%
 16  1     9    1  |1 1>+         0.00%   48.24%    0.00%    0.00%    0.00%    1.08%    0.00%    0.00%
 17  1    10    1  |1 1>+         0.00%    0.00%    0.00%    0.00%   31.62%    0.00%    0.00%    0.00%
 18  1    11    1  |1 1>+         0.00%    1.05%    0.00%    0.00%    0.00%   29.15%    0.00%    0.00%
 19  1    12    1  |1 1>+         0.00%    0.00%    0.17%    0.00%    0.00%    0.00%   25.96%    0.00%
 20  1    13    1  |1 1>+         0.00%    0.00%    0.00%    1.10%    0.00%    0.00%    0.00%   34.61%
 21  1    14    1  |1 1>+         0.00%    0.00%    0.00%    0.00%    0.00%    0.00%    0.00%    0.00%
 22  1    15    1  |1 1>+         0.00%    0.00%    0.00%    0.00%    0.00%    0.00%    0.00%    0.00%
 23  1    16    1  |1 1>+        49.98%    0.00%    0.00%    0.00%    0.00%    0.00%    0.00%    0.00%
 24  1     1    1  |1 0>          0.00%    0.00%    0.00%    0.00%    0.00%    0.00%    0.00%    0.00%
 25  1     2    1  |1 0>          0.00%    0.00%    0.00%    0.00%    0.00%    0.00%    0.00%    0.00%
 26  1     3    1  |1 0>          0.00%    0.00%    0.00%    0.00%    0.00%    0.00%    0.00%    0.00%
 27  1     4    1  |1 0>          0.00%    0.00%    0.00%    0.00%    0.00%    0.00%    0.00%    0.00%
 28  1     5    1  |1 0>          0.00%    0.00%    0.00%    0.00%    0.00%    0.00%    0.00%    0.00%
 29  1     6    1  |1 0>          0.05%    0.00%    0.00%    0.00%    0.00%    0.00%    0.00%    0.00%
 30  1     7    1  |1 0>          0.00%    0.00%    0.00%    0.00%    0.00%   42.78%    0.00%    0.00%
 31  1     8    1  |1 0>          0.00%    0.00%    0.00%    0.00%   23.48%    0.00%    0.00%    0.00%
 32  1     9    1  |1 0>          0.00%    0.00%    0.00%   23.48%    0.00%    0.00%    0.00%    1.59%
 33  1    10    1  |1 0>          0.00%    0.00%    0.00%    0.00%    0.00%    0.00%   42.85%    0.00%
 34  1    11    1  |1 0>          0.00%    0.00%    0.00%    2.39%    0.00%    0.00%    0.00%   51.10%
 35  1    12    1  |1 0>          0.00%    0.00%    0.00%    0.00%    2.39%    0.00%    0.00%    0.00%
 36  1    13    1  |1 0>          0.00%    1.22%    0.00%    0.00%    0.00%    0.07%    0.00%    0.00%
 37  1    14    1  |1 0>          0.00%    0.00%    0.00%    0.00%    0.00%    0.00%    0.00%    0.00%
 38  1    15    1  |1 0>          0.00%    0.00%    0.00%    0.00%    0.00%    0.00%    0.00%    0.00%
 39  1    16    1  |1 0>          0.00%    0.00%    0.00%    0.00%    0.00%    0.00%    0.00%    0.00%
 40  1     1    1  |1 1>-         0.00%    0.00%    0.00%    0.00%    0.00%    0.00%    0.00%    0.00%
 41  1     2    1  |1 1>-         0.00%    0.00%    0.00%    0.00%    0.00%    0.00%    0.00%    0.00%
 42  1     3    1  |1 1>-         0.00%    0.00%    0.00%    0.00%    0.00%    0.00%    0.00%    0.00%
 43  1     4    1  |1 1>-         0.00%    0.00%    0.00%    0.00%    0.00%    0.00%    0.00%    0.00%
 44  1     5    1  |1 1>-         0.00%    0.00%    0.00%    0.00%    0.00%    0.00%    0.00%    0.00%
 45  1     6    1  |1 1>-         0.00%    0.00%    0.00%    0.00%    0.00%    0.00%    0.00%    0.00%
 46  1     7    1  |1 1>-         0.00%    0.00%    0.00%    0.00%   41.41%    0.00%    0.00%    0.00%
 47  1     8    1  |1 1>-         0.00%   48.35%    0.00%    0.00%    0.00%    1.15%    0.00%    0.00%
 48  1     9    1  |1 1>-         0.00%    0.00%   49.99%    0.00%    0.00%    0.00%    2.45%    0.00%
 49  1    10    1  |1 1>-         0.00%    0.00%    0.00%   31.61%    0.00%    0.00%    0.00%   11.25%
 50  1    11    1  |1 1>-         0.00%    0.00%    0.12%    0.00%    0.00%    0.00%   26.01%    0.00%
 51  1    12    1  |1 1>-         0.00%    1.14%    0.00%    0.00%    0.00%   25.76%    0.00%    0.00%
 52  1    13    1  |1 1>-         0.00%    0.00%    0.00%    0.00%    1.10%    0.00%    0.00%    0.00%
 53  1    14    1  |1 1>-         0.00%    0.00%    0.00%    0.00%    0.00%    0.00%    0.00%    0.00%
 54  1    15    1  |1 1>-        49.98%    0.00%    0.00%    0.00%    0.00%    0.00%    0.00%    0.00%
 55  1    16    1  |1 1>-         0.00%    0.00%    0.00%    0.00%    0.00%    0.00%    0.00%    0.00%

   Total
 Nr Sym  State Sym Spin / Nr.     49       50       51       52       53       54       55

  1  1     1    1  |0 0>          0.00%    0.00%    0.00%    0.00%    0.00%    0.00%    0.00%
  2  1     2    1  |0 0>          0.00%    0.00%    0.00%    0.00%    0.18%    0.00%    0.00%
  3  1     3    1  |0 0>          0.00%    0.00%    0.00%    0.18%    0.00%    0.00%    0.00%
  4  1     4    1  |0 0>          0.00%    0.00%    0.00%    0.00%    0.00%    0.00%    0.18%
  5  1     5    1  |0 0>          0.00%    0.00%    0.18%    0.00%    0.00%    0.00%    0.00%
  6  1     6    1  |0 0>          0.00%    0.00%    0.00%    0.00%    0.00%    0.18%    0.00%
  7  1     7    1  |0 0>          0.00%    0.00%    0.00%    0.00%    0.00%    0.00%    0.00%
  8  1     1    1  |1 1>+         0.00%    0.00%    0.00%    0.00%    0.00%    0.00%    0.00%
  9  1     2    1  |1 1>+         0.00%    0.00%    0.00%    0.00%    0.00%    0.00%    0.00%
 10  1     3    1  |1 1>+         0.00%    0.00%    0.00%    0.00%    0.00%    0.00%    0.00%
 11  1     4    1  |1 1>+         0.00%    0.00%    0.00%    0.00%    0.00%    0.00%    0.00%
 12  1     5    1  |1 1>+         0.00%    0.00%    0.00%    0.00%    0.00%    0.00%    0.00%
 13  1     6    1  |1 1>+         0.00%    0.00%    0.00%    0.00%    0.00%    0.00%    0.00%
 14  1     7    1  |1 1>+         0.00%    0.00%    0.00%    0.00%    0.00%    0.00%    0.00%
 15  1     8    1  |1 1>+         0.00%    0.00%    0.00%    0.00%    0.00%    0.00%    0.00%
 16  1     9    1  |1 1>+         0.00%    1.72%    0.00%    0.00%    0.00%    0.00%    0.00%
 17  1    10    1  |1 1>+        11.24%    0.00%    0.00%    0.00%    0.00%    0.00%    0.00%
 18  1    11    1  |1 1>+         0.00%   18.77%    0.00%    0.00%    0.00%    0.00%    0.00%
 19  1    12    1  |1 1>+         0.00%    0.00%    0.00%    0.00%    0.00%    0.00%    0.00%
 20  1    13    1  |1 1>+         0.00%    0.00%    0.00%    0.00%    0.00%    0.00%    0.00%
 21  1    14    1  |1 1>+         0.00%    0.00%    0.00%    0.00%   49.91%    0.00%    0.00%
 22  1    15    1  |1 1>+         0.00%    0.00%   15.80%    0.00%    0.00%   50.75%    0.00%
 23  1    16    1  |1 1>+         0.00%    0.00%    0.00%    0.00%    0.00%    0.00%   49.91%
 24  1     1    1  |1 0>          0.00%    0.00%    0.00%    0.00%    0.00%    0.00%    0.00%
 25  1     2    1  |1 0>          0.00%    0.00%    0.00%    0.00%    0.00%    0.00%    0.00%
 26  1     3    1  |1 0>          0.00%    0.00%    0.00%    0.00%    0.00%    0.00%    0.00%
 27  1     4    1  |1 0>          0.00%    0.00%    0.00%    0.00%    0.00%    0.00%    0.00%
 28  1     5    1  |1 0>          0.00%    0.00%    0.00%    0.00%    0.00%    0.00%    0.00%
 29  1     6    1  |1 0>          0.00%    0.00%    0.00%    0.00%    0.00%    0.00%    0.00%
 30  1     7    1  |1 0>          0.00%    0.05%    0.00%    0.00%    0.00%    0.00%    0.00%
 31  1     8    1  |1 0>          1.59%    0.00%    0.00%    0.00%    0.00%    0.00%    0.00%
 32  1     9    1  |1 0>          0.00%    0.00%    0.00%    0.00%    0.00%    0.00%    0.00%
 33  1    10    1  |1 0>          0.00%    0.00%    0.00%    0.00%    0.00%    0.00%    0.00%
 34  1    11    1  |1 0>          0.00%    0.00%    0.00%    0.00%    0.00%    0.00%    0.00%
 35  1    12    1  |1 0>         51.10%    0.00%    0.00%    0.00%    0.00%    0.00%    0.00%
 36  1    13    1  |1 0>          0.00%   55.86%    0.00%    0.00%    0.00%    0.00%    0.00%
 37  1    14    1  |1 0>          0.00%    0.00%   66.53%    0.00%    0.00%    0.01%    0.00%
 38  1    15    1  |1 0>          0.00%    0.00%    0.00%    0.00%   49.91%    0.00%    0.00%
 39  1    16    1  |1 0>          0.00%    0.00%    0.00%   49.91%    0.00%    0.00%    0.00%
 40  1     1    1  |1 1>-         0.00%    0.00%    0.00%    0.00%    0.00%    0.00%    0.00%
 41  1     2    1  |1 1>-         0.00%    0.00%    0.00%    0.00%    0.00%    0.00%    0.00%
 42  1     3    1  |1 1>-         0.00%    0.00%    0.00%    0.00%    0.00%    0.00%    0.00%
 43  1     4    1  |1 1>-         0.00%    0.00%    0.00%    0.00%    0.00%    0.00%    0.00%
 44  1     5    1  |1 1>-         0.00%    0.00%    0.00%    0.00%    0.00%    0.00%    0.00%
 45  1     6    1  |1 1>-         0.00%    0.00%    0.00%    0.00%    0.00%    0.00%    0.00%
 46  1     7    1  |1 1>-         1.45%    0.00%    0.00%    0.00%    0.00%    0.00%    0.00%
 47  1     8    1  |1 1>-         0.00%    1.53%    0.00%    0.00%    0.00%    0.00%    0.00%
 48  1     9    1  |1 1>-         0.00%    0.00%    0.00%    0.00%    0.00%    0.00%    0.00%
 49  1    10    1  |1 1>-         0.00%    0.00%    0.00%    0.00%    0.00%    0.00%    0.00%
 50  1    11    1  |1 1>-         0.00%    0.00%    0.00%    0.00%    0.00%    0.00%    0.00%
 51  1    12    1  |1 1>-         0.00%   22.07%    0.00%    0.00%    0.00%    0.00%    0.00%
 52  1    13    1  |1 1>-        34.62%    0.00%    0.00%    0.00%    0.00%    0.00%    0.00%
 53  1    14    1  |1 1>-         0.00%    0.00%    0.00%   49.91%    0.00%    0.00%    0.00%
 54  1    15    1  |1 1>-         0.00%    0.00%    0.00%    0.00%    0.00%    0.00%   49.91%
 55  1    16    1  |1 1>-         0.00%    0.00%   17.49%    0.00%    0.00%   49.05%    0.00%



 **********************************************************************************************************************************
 DATASETS  * FILE   NREC   LENGTH (MB)   RECORD NAMES
              1      24      309.84       500      610      700      900      950      970     1000      129      960     1700   
                                          VAR    BASINP    GEOM    SYMINP    ZMAT    AOBASIS   BASIS     P2S    ABASIS    OPER   
                                         1101     1401     1411     1412     1650     1100     1400     1410     1200     1210   
                                          SR      EKINR    POTR     PVPR    MOLCAS      S      EKIN      POT      H0       H01  
                                         1080     1600     1380     1700(1)
                                         AOSYM     SMH     JKOP     OPER   

              2       7     1489.06       700     1000      520     2100     2140     5101     5103   
                                         GEOM     BASIS   MCVARS     RHF     MCSCF    MRCI     MRCI   

 PROGRAMS   *        TOTAL        CI     LSINT        CI        CI     MULTI   RHF-SCF       INT
 CPU TIMES  *     43540.93  24934.23    646.65  14499.23   3394.65     19.41      2.57     43.99
 REAL TIME  *     44014.10 SEC
 DISK USED  *         1.76 GB (local),       15.18 GB (total)
 SF USED    *        12.18 GB
 GA USED    *         0.00 MB       (max)       0.00 MB       (current)
 **********************************************************************************************************************************

 CI/aug-cc-pWCVQZ-X2C energy= -24985.206461960512

              CI              CI           MULTI         RHF-SCF
 -24985.16711008 -24985.18653770 -24984.64857353 -24984.60857725
 **********************************************************************************************************************************
 Molpro calculation terminated with 1 warning(s)
