
 Working directory              : /wrk/irikura/molpro.Jmt8mqWmOh/
 Global scratch directory       : /wrk/irikura/molpro.Jmt8mqWmOh/
 Wavefunction directory         : /home/irikura/wfu/
 Main file repository           : /wrk/irikura/molpro.Jmt8mqWmOh/

 id        : nistki

 Nodes            nprocs
 pn125343.nist.gov    6
 GA implementation: MPI file
 GA implementation (serial work in mppx): MPI file

 Using customized tuning parameters: mindgm=1; mindgv=20; mindgc=4; mindgr=1; noblas=0; minvec=7
 default implementation of scratch files=sf  


 Variables initialized (1042), CPU time= 0.01 sec
 ***,Ra SO-CI
 memory,8,G
 
 gprint,orbitals,civector;
 
 symmetry,xyz
 geometry={Ra};
 
 basis=aug-cc-pwCV5Z-PP
 
 {rhf,so-sci;wf,sym=1,spin=0}
 
 NSING=7
 NTRIP=16
 
                                                                                 ! active space (2/10) as orbitals [7 3]
 {multi
     closed,1,3
     occ,8,6
     wf,sym=1,spin=0;state,NSING;
     wf,sym=1,spin=2;state,NTRIP;
     expec2,lxx,lyy,lzz;
 }
 table, energy, ll
 title, Energies and &lt;L**2&gt; values
 
 core,0,0
 {ci;wf,sym=1,spin=0;state,NSING; save,5101.2}
 hlsdiag = energd4
 {ci;wf,sym=1,spin=2;state,NTRIP; save,5103.2}
 hlsdiag(NSING+1) = energd4
 
 table,hlsdiag
 
 {ci;hlsmat,ecp,5101.2,5103.2;print,vls=0,hls=0}                                 !compute and diagonalize SO matrix
 Commands initialized (847), CPU time= 0.01 sec, 718 directives.
 Default parameters read. Elapsed time= 0.09 sec

 Checking input...
 Passed
1


                                         ***  PROGRAM SYSTEM MOLPRO  ***
                                       Copyright, TTI GmbH Stuttgart, 2015
                                    Version 2024.1 linked Wed Jan 31 05:42:09 2024


 **********************************************************************************************************************************
 LABEL *   Ra SO-CI                                                                                                                                                      
  (64 PROC) 64 bit mpp version                                                           DATE: 08-May-24          TIME: 12:04:29  
 **********************************************************************************************************************************

 SHA1:             675817fde4514a4a933b69e420913a90cee4ef91
 **********************************************************************************************************************************

 Memory per process:      8000 MW
 Total memory per node:  48000 MW

 GA preallocation disabled
 GA check disabled

 Variable memory set to 8000.0 MW


 ZSYMEL=XYZ

 SETTING BASIS          =    AUG-CC-PWCV5Z-PP


 Recomputing integrals since basis changed


 Using spherical harmonics

 Library entry Ra   ECP ECP78MDF                 selected for group  1
 Library entry RA     S aug-cc-pwCV5Z-PP     selected for orbital group  1
 Library entry RA     P aug-cc-pwCV5Z-PP     selected for orbital group  1
 Library entry RA     D aug-cc-pwCV5Z-PP     selected for orbital group  1
 Library entry RA     F aug-cc-pwCV5Z-PP     selected for orbital group  1
 Library entry RA     G aug-cc-pwCV5Z-PP     selected for orbital group  1
 Library entry RA     H aug-cc-pwCV5Z-PP     selected for orbital group  1


 PROGRAM * SEWARD (Integral evaluation for generally contracted gaussian basis sets)     Author: Roland Lindh, 1990

 Geometry written to block  1 of record 700

 Orientation using atomic masses  
 Molecule type: Atom
 User-specified symmetry elements: XYZ
 Symmetry elements: XYZ
 Rotational constants:       0.0000000      0.0000000      0.0000000 GHz  (calculated with average atomic masses)

 Point group  Ci  



 ATOMIC COORDINATES

 NR  ATOM    CHARGE       X              Y              Z

   1  RA     10.00    0.000000000    0.000000000    0.000000000

 NUCLEAR CHARGE:                   10
 NUMBER OF PRIMITIVE AOS:         337
 NUMBER OF SYMMETRY AOS:          247
 NUMBER OF CONTRACTIONS:          213   (  101Ag  +  112Au  )
 NUMBER OF INNER CORE ORBITALS:     0   (    0Ag  +    0Au  )
 NUMBER OF OUTER CORE ORBITALS:     4   (    1Ag  +    3Au  )
 NUMBER OF VALENCE ORBITALS:        1   (    1Ag  +    0Au  )


 LX: Ag           LY: Ag           LZ: Ag 


 NUCLEAR REPULSION ENERGY    0.00000000

 EXTRA SYMMETRY OF AOS IN SYMMETRY 1:   1 1 1 1 1 1 1 1 1 1   1 2 3 4 5 6 2 3 4 5   6 2 3 4 5 6 2 3 4 5   6 2 3 4 5 6 2 3 4 5
                                        6 2 3 4 5 6 2 3 4 5   6 2 3 4 5 6 7 8 910  1112131415 7 8 91011  12131415 7 8 9101112
                                       131415 7 8 910111213  1415 7 8 91011121314  15
 EXTRA SYMMETRY OF AOS IN SYMMETRY 2:   1 2 3 1 2 3 1 2 3 1   2 3 1 2 3 1 2 3 1 2   3 1 2 3 1 2 3 1 2 3   4 5 6 7 8 910 4 5 6
                                        7 8 910 4 5 6 7 8 9  10 4 5 6 7 8 910 4 5   6 7 8 910 4 5 6 7 8   910 4 5 6 7 8 91011
                                       12131415161718192021  11121314151617181920  21111213141516171819  2021


 Eigenvalues of metric

         1 0.228E-04 0.671E-04 0.724E-03 0.257E-02 0.257E-02 0.257E-02 0.257E-02 0.257E-02
         2 0.191E-03 0.191E-03 0.191E-03 0.200E-02 0.200E-02 0.200E-02 0.398E-02 0.398E-02


 Contracted 2-electron integrals neglected if value below      1.0D-12
 AO integral compression algorithm  1   Integral accuracy      1.0D-12

     243.794 MB (compressed) written to integral file ( 13.4%)

     Node minimum: 35.652 MB, node maximum: 46.662 MB


 NUMBER OF SORTED TWO-ELECTRON INTEGRALS:   21834438.     BUFFER LENGTH:  32768
 NUMBER OF SEGMENTS:   2  SEGMENT LENGTH:   15993204      RECORD LENGTH: 524288

 Memory used in sort:      16.55 MW

 SORT1 READ   226482739. AND WROTE     3718919. INTEGRALS IN     12 RECORDS. CPU TIME:     0.88 SEC, REAL TIME:     0.94 SEC
 SORT2 READ    23245259. AND WROTE   131080516. INTEGRALS IN   1068 RECORDS. CPU TIME:     0.30 SEC, REAL TIME:     0.34 SEC

 Node minimum:    21832526.  Node maximum:    21855633. integrals

 OPERATOR DM      FOR CENTER  0  COORDINATES:    0.000000    0.000000    0.000000


 **********************************************************************************************************************************
 DATASETS  * FILE   NREC   LENGTH (MB)   RECORD NAMES
              1      19       29.81       500      610      700      900      950      970     1000      129      960     1100   
                                          VAR    BASINP    GEOM    SYMINP    ZMAT    AOBASIS   BASIS     P2S    ABASIS      S 
                                         1400     1410     1420     1200     1210     1080     1700     1600     1650   
                                           T        V       ECP      H0       H01     AOSYM    OPER      SMH    MOLCAS    

 PROGRAMS   *        TOTAL       INT
 CPU TIMES  *         4.43      4.26
 REAL TIME  *         7.37 SEC
 DISK USED  *        30.19 MB (local),      656.76 MB (total)
 GA USED    *         0.00 MB       (max)       0.00 MB       (current)
 **********************************************************************************************************************************


 Program * Restricted Hartree-Fock

 Orbital guess generated from atomic densities.

 Initial occupancy:   2   3
 
 SO-SCI SOLVER WITH NELEC=10 SYM=1 MS2=0 THRE=1.0D-08 THRG=3.2D-06
 
 Authors: D.A. Kreplin, H.-J. Werner (2022)
 
 Number of closed-shell orbitals:                 4   (    1    3)
 Number of doubly occupied active orbitals:       1   (    1    0)
 Number of non-occupied active orbitals:          3   (    0    3)
 Number of virtual orbitals:                    205   (   99  106)
 
 ITER.  MIC  NCI          ENERGY    ENERGY CHANGE          GRAD      ORB GRAD        CI RES  NQN        STEP      TIME
    1    1    0     -23.68007334     -23.68007334    0.00571434    0.00571434    0.00000000    0    0.89E-03      0.40
    2    1    0     -23.68007619      -0.00000285    0.00036677    0.00036677    0.00000000    0    0.13E-03      0.78
    3    1    0     -23.68007621      -0.00000002    0.00003972    0.00003972    0.00000000    1    0.17E-04      1.17

 CONVERGENCE REACHED!  Final gradient:     0.00000302 ( 0.30E-05)
                       Final energy:     -23.68007621
 

 Final occupancy:   2   3

 !RHF STATE 1.1 Energy                -23.680076212637
  RHF One-electron energy             -39.023955066897
  RHF Two-electron energy              15.343878854260
  RHF Kinetic energy                    6.017282505260
  RHF Nuclear energy                    0.000000000000
  RHF Virial quotient                  -3.935343935063

 !RHF STATE 1.1 Dipole moment           0.00000000     0.00000000     0.00000000
 Dipole moment /Debye                   0.00000000     0.00000000     0.00000000

 ELECTRON ORBITALS
 =================

  Orbital  Occupation    Energy    Cen Mu Typ  Coefficients
    1.1     2.00000    -1.58867     1  1  s    0.99991
    2.1     2.00000    -0.16544     1  1  s   -0.41045    1  4  s    0.46069    1  5  s    0.62846
    1.2     2.00000    -0.80466     1  1  px   0.99980
    2.2     2.00000    -0.80466     1  1  py   0.88988    1  1  pz  -0.45574
    3.2     2.00000    -0.80466     1  1  py   0.45581    1  1  pz   0.89000


 HOMO      2.1    -0.165445 =      -4.5020eV
 LUMO      4.2     0.007921 =       0.2155eV
 LUMO-HOMO         0.173366 =       4.7175eV

 Orbitals saved in record  2100.2


 **********************************************************************************************************************************
 DATASETS  * FILE   NREC   LENGTH (MB)   RECORD NAMES
              1      19       29.81       500      610      700      900      950      970     1000      129      960     1100   
                                          VAR    BASINP    GEOM    SYMINP    ZMAT    AOBASIS   BASIS     P2S    ABASIS      S 
                                         1400     1410     1420     1200     1210     1080     1700     1600     1650   
                                           T        V       ECP      H0       H01     AOSYM    OPER      SMH    MOLCAS    

              2       4        0.93       700     1000      520     2100   
                                         GEOM     BASIS   MCVARS     RHF  

 PROGRAMS   *        TOTAL   RHF-SCF       INT
 CPU TIMES  *         6.03      1.60      4.26
 REAL TIME  *         9.05 SEC
 DISK USED  *        33.80 MB (local),      678.42 MB (total)
 SF USED    *        11.90 MB
 GA USED    *         0.00 MB       (max)       0.00 MB       (current)
 **********************************************************************************************************************************
 SETTING NSING          =         7.00000000                                  
 SETTING NTRIP          =        16.00000000                                  

 PROGRAM * MULTI (Direct Multiconfiguration SCF)       Authors: P.J. Knowles, H.-J. Werner (1984)
                                                                D.A. Kreplin, P.J. Knowles, H.-J. Werner (2019)

 Number of closed-shell orbitals:   4 (    1    3)
 Number of active  orbitals:       10 (    7    3)
 Number of external orbitals:     199 (   93  106)

 State symmetry 1

 Number of active electrons:   2    Spin symmetry=Singlet   Space symmetry=1
 Number of states:             7
 Number of CSFs:              34   (58 determinants, 100 intermediate states)

 State symmetry 2

 Number of active electrons:   2    Spin symmetry=Triplet   Space symmetry=1
 Number of states:            16
 Number of CSFs:              24   (24 determinants, 45 intermediate states)

 Molecular orbitals read from record     2100.2  Type=RHF/CANONICAL (state 1.1)
 *** IN SYMMETRY 1 ORBITAL  4 SYMMETRY CONTAMINATION OF 0.123D-03 HAS BEEN REMOVED
 *** IN SYMMETRY 1 ORBITAL  5 SYMMETRY CONTAMINATION OF 0.528D+00 HAS BEEN REMOVED
 *** IN SYMMETRY 1 ORBITAL  6 SYMMETRY CONTAMINATION OF 0.720D+00 HAS BEEN REMOVED
 *** IN SYMMETRY 1 ORBITAL  7 SYMMETRY CONTAMINATION OF 0.514D+00 HAS BEEN REMOVED
 *** IN SYMMETRY 1 ORBITAL  8 SYMMETRY CONTAMINATION OF 0.483D+00 HAS BEEN REMOVED

 EXTRA SYMMETRY OF MOS IN SYMMETRY 1:   1 1 1 2 5 6 4 3 2 5   3 6 4 1 2 5 6 4 3 7  141511 9131012 8 1 6   3 4 5 2 911 8121310
                                       1514 7 1 6 2 4 5 3 1   7 812151411 91310 2   3 6 5 4 7 812151411   91310 1 2 3 6 4 5 8
                                       121415 711 91013 2 5   3 4 6 1 5 2 4 3 6 1   1
 *** IN SYMMETRY 2 ORBITAL  1 SYMMETRY CONTAMINATION OF 0.216D-01 HAS BEEN REMOVED
 *** IN SYMMETRY 2 ORBITAL  2 SYMMETRY CONTAMINATION OF 0.347D+00 HAS BEEN REMOVED
 *** IN SYMMETRY 2 ORBITAL  3 SYMMETRY CONTAMINATION OF 0.339D+00 HAS BEEN REMOVED
 *** IN SYMMETRY 2 ORBITAL  4 SYMMETRY CONTAMINATION OF 0.322D+00 HAS BEEN REMOVED
 *** IN SYMMETRY 2 ORBITAL  6 SYMMETRY CONTAMINATION OF 0.322D+00 HAS BEEN REMOVED
 EXTRA SYMMETRY OF MOS IN SYMMETRY 2:   1 2 3 2 1 3 2 3 1 3   2 1 4 5 9 7 810 6 1   2 31416151718201912  111321 810 5 4 6 9 7
                                        1 2 3 5 4 9 7 6 810  14162113151718201112  19 7 9 5 4 6 810 1 2   3132115171918201614
                                       1112 7 9 5 4 610 8 1   2 3 4 5 610 8 7 9 4   5 610 8 7 9 1 2 3 2   1 3

 Wavefunction dump at record             2140.2

 Convergence thresholds  0.10E-04 (gradient)  0.10E-05 (energy)

 Weight factors for state symmetry  1:    0.04348   0.04348   0.04348   0.04348   0.04348   0.04348   0.04348
 Weight factors for state symmetry  2:    0.04348   0.04348   0.04348   0.04348   0.04348   0.04348   0.04348   0.04348
                                          0.04348   0.04348   0.04348   0.04348   0.04348   0.04348   0.04348   0.04348
 
 Number of orbital rotations:  1396  ( 16 closed/active, 411 closed/virtual, 0 active/active, 969 active/virtual )
 Total number of variables:    2186
 
 Second-order MCSCF: L-BFGS accelerated
 
 ITER  MIC  NCI  NEG     ENERGY(VAR)    ENERGY(PROJ) ENERGY CHANGE       GRAD(0)  GRAD(ORB)   GRAD(CI)      STEP      TIME
   1   16   30   13    -23.48356541     -23.60117002   -0.11760461    0.06389596 0.00018556 0.00000000  0.25E+01      1.40
   2    8   14    0    -23.58618546     -23.59255184   -0.00636638    0.04522186 0.00001985 0.00000000  0.50E+00      2.57
   3    8   14    0    -23.59259389     -23.59259662   -0.00000273    0.00074157 0.00000014 0.00000000  0.92E-02      3.73
   4    4    8    0    -23.59259662     -23.59259662   -0.00000000    0.00000106 0.00000001 0.00000000  0.15E-04      4.61

 CONVERGENCE REACHED!  Final gradient:    0.00000000 ( 0.15E-08)
                       Final energy:    -23.59259662
 
 Results for state 1.1 Singlet
 =============================
 !MCSCF STATE 1.1 Singlet Energy               -23.698525961554
 Nuclear energy                                  0.00000000
 Kinetic energy                                  5.99900746
 One electron energy                           -38.96632632
 Two electron energy                            15.26780036
 Virial ratio                                    4.95040782
 
 !MCSCF STATE 1.1 Singlet Dipole moment          0.00000000     0.00000000     0.00000000
 Dipole moment /Debye                            0.00000000     0.00000000     0.00000000
 
 Results for state 2.1 Singlet
 =============================
 !MCSCF STATE 2.1 Singlet Energy               -23.617169391630
 Nuclear energy                                  0.00000000
 Kinetic energy                                  6.09441777
 One electron energy                           -38.96355122
 Two electron energy                            15.34638183
 Virial ratio                                    4.87521340
 
 !MCSCF STATE 2.1 Singlet Dipole moment          0.00000000     0.00000000     0.00000000
 Dipole moment /Debye                            0.00000000     0.00000000     0.00000000
 
 Results for state 3.1 Singlet
 =============================
 !MCSCF STATE 3.1 Singlet Energy               -23.617169391628
 Nuclear energy                                  0.00000000
 Kinetic energy                                  6.09441777
 One electron energy                           -38.96355122
 Two electron energy                            15.34638183
 Virial ratio                                    4.87521340
 
 !MCSCF STATE 3.1 Singlet Dipole moment          0.00000000     0.00000000     0.00000000
 Dipole moment /Debye                            0.00000000     0.00000000     0.00000000
 
 Results for state 4.1 Singlet
 =============================
 !MCSCF STATE 4.1 Singlet Energy               -23.617169391624
 Nuclear energy                                  0.00000000
 Kinetic energy                                  6.09441777
 One electron energy                           -38.96355122
 Two electron energy                            15.34638183
 Virial ratio                                    4.87521340
 
 !MCSCF STATE 4.1 Singlet Dipole moment          0.00000000     0.00000000     0.00000000
 Dipole moment /Debye                            0.00000000     0.00000000     0.00000000
 
 Results for state 5.1 Singlet
 =============================
 !MCSCF STATE 5.1 Singlet Energy               -23.617169391620
 Nuclear energy                                  0.00000000
 Kinetic energy                                  6.09441777
 One electron energy                           -38.96355122
 Two electron energy                            15.34638183
 Virial ratio                                    4.87521340
 
 !MCSCF STATE 5.1 Singlet Dipole moment          0.00000000     0.00000000     0.00000000
 Dipole moment /Debye                            0.00000000     0.00000000     0.00000000
 
 Results for state 6.1 Singlet
 =============================
 !MCSCF STATE 6.1 Singlet Energy               -23.617169391614
 Nuclear energy                                  0.00000000
 Kinetic energy                                  6.09441777
 One electron energy                           -38.96355122
 Two electron energy                            15.34638183
 Virial ratio                                    4.87521340
 
 !MCSCF STATE 6.1 Singlet Dipole moment          0.00000000     0.00000000     0.00000000
 Dipole moment /Debye                            0.00000000     0.00000000     0.00000000
 
 Results for state 7.1 Singlet
 =============================
 !MCSCF STATE 7.1 Singlet Energy               -23.576115880477
 Nuclear energy                                  0.00000000
 Kinetic energy                                  5.93974666
 One electron energy                           -38.07105980
 Two electron energy                            14.49494392
 Virial ratio                                    4.96921236
 
 !MCSCF STATE 7.1 Singlet Dipole moment          0.00000000     0.00000000     0.00000000
 Dipole moment /Debye                            0.00000000     0.00000000     0.00000000
 
 Results for state 1.1 Triplet
 =============================
 !MCSCF STATE 1.1 Triplet Energy               -23.626585865301
 Nuclear energy                                  0.00000000
 Kinetic energy                                  6.11321862
 One electron energy                           -39.08711051
 Two electron energy                            15.46052465
 Virial ratio                                    4.86483575
 
 !MCSCF STATE 1.1 Triplet Dipole moment          0.00000000     0.00000000     0.00000000
 Dipole moment /Debye                            0.00000000     0.00000000     0.00000000
 
 Results for state 2.1 Triplet
 =============================
 !MCSCF STATE 2.1 Triplet Energy               -23.626585865297
 Nuclear energy                                  0.00000000
 Kinetic energy                                  6.11321862
 One electron energy                           -39.08711051
 Two electron energy                            15.46052465
 Virial ratio                                    4.86483575
 
 !MCSCF STATE 2.1 Triplet Dipole moment          0.00000000     0.00000000     0.00000000
 Dipole moment /Debye                            0.00000000     0.00000000     0.00000000
 
 Results for state 3.1 Triplet
 =============================
 !MCSCF STATE 3.1 Triplet Energy               -23.626585865288
 Nuclear energy                                  0.00000000
 Kinetic energy                                  6.11321862
 One electron energy                           -39.08711051
 Two electron energy                            15.46052464
 Virial ratio                                    4.86483575
 
 !MCSCF STATE 3.1 Triplet Dipole moment          0.00000000     0.00000000     0.00000000
 Dipole moment /Debye                            0.00000000     0.00000000     0.00000000
 
 Results for state 4.1 Triplet
 =============================
 !MCSCF STATE 4.1 Triplet Energy               -23.626585865275
 Nuclear energy                                  0.00000000
 Kinetic energy                                  6.11321862
 One electron energy                           -39.08711051
 Two electron energy                            15.46052464
 Virial ratio                                    4.86483575
 
 !MCSCF STATE 4.1 Triplet Dipole moment          0.00000000     0.00000000     0.00000000
 Dipole moment /Debye                            0.00000000     0.00000000     0.00000000
 
 Results for state 5.1 Triplet
 =============================
 !MCSCF STATE 5.1 Triplet Energy               -23.626585865275
 Nuclear energy                                  0.00000000
 Kinetic energy                                  6.11321862
 One electron energy                           -39.08711051
 Two electron energy                            15.46052464
 Virial ratio                                    4.86483575
 
 !MCSCF STATE 5.1 Triplet Dipole moment          0.00000000     0.00000000     0.00000000
 Dipole moment /Debye                            0.00000000     0.00000000     0.00000000
 
 Results for state 6.1 Triplet
 =============================
 !MCSCF STATE 6.1 Triplet Energy               -23.583423727360
 Nuclear energy                                  0.00000000
 Kinetic energy                                  5.88400668
 One electron energy                           -37.88986210
 Two electron energy                            14.30643837
 Virial ratio                                    5.00805523
 
 !MCSCF STATE 6.1 Triplet Dipole moment          0.00000000     0.00000000     0.00000000
 Dipole moment /Debye                            0.00000000     0.00000000     0.00000000
 
 Results for state 7.1 Triplet
 =============================
 !MCSCF STATE 7.1 Triplet Energy               -23.558893660547
 Nuclear energy                                  0.00000000
 Kinetic energy                                  6.10510748
 One electron energy                           -38.71594915
 Two electron energy                            15.15705549
 Virial ratio                                    4.85888270
 
 !MCSCF STATE 7.1 Triplet Dipole moment          0.00000000     0.00000000     0.00000000
 Dipole moment /Debye                            0.00000000     0.00000000     0.00000000
 
 Results for state 8.1 Triplet
 =============================
 !MCSCF STATE 8.1 Triplet Energy               -23.558893660541
 Nuclear energy                                  0.00000000
 Kinetic energy                                  6.10510748
 One electron energy                           -38.71594915
 Two electron energy                            15.15705549
 Virial ratio                                    4.85888270
 
 !MCSCF STATE 8.1 Triplet Dipole moment          0.00000000     0.00000000     0.00000000
 Dipole moment /Debye                            0.00000000     0.00000000     0.00000000
 
 Results for state 9.1 Triplet
 =============================
 !MCSCF STATE 9.1 Triplet Energy               -23.558893660531
 Nuclear energy                                  0.00000000
 Kinetic energy                                  6.10510748
 One electron energy                           -38.71594915
 Two electron energy                            15.15705549
 Virial ratio                                    4.85888270
 
 !MCSCF STATE 9.1 Triplet Dipole moment          0.00000000     0.00000000     0.00000000
 Dipole moment /Debye                            0.00000000     0.00000000     0.00000000
 
 Results for state 10.1 Triplet
 ==============================
 !MCSCF STATE 10.1 Triplet Energy              -23.553742778942
 Nuclear energy                                  0.00000000
 Kinetic energy                                  6.22614497
 One electron energy                           -39.15728716
 Two electron energy                            15.60354438
 Virial ratio                                    4.78303796
 
 !MCSCF STATE 10.1 Triplet Dipole moment         0.00000000     0.00000000     0.00000000
 Dipole moment /Debye                            0.00000000     0.00000000     0.00000000
 
 Results for state 11.1 Triplet
 ==============================
 !MCSCF STATE 11.1 Triplet Energy              -23.553742778940
 Nuclear energy                                  0.00000000
 Kinetic energy                                  6.22614497
 One electron energy                           -39.15728715
 Two electron energy                            15.60354438
 Virial ratio                                    4.78303796
 
 !MCSCF STATE 11.1 Triplet Dipole moment         0.00000000     0.00000000     0.00000000
 Dipole moment /Debye                            0.00000000     0.00000000     0.00000000
 
 Results for state 12.1 Triplet
 ==============================
 !MCSCF STATE 12.1 Triplet Energy              -23.553742778936
 Nuclear energy                                  0.00000000
 Kinetic energy                                  6.22614497
 One electron energy                           -39.15728715
 Two electron energy                            15.60354438
 Virial ratio                                    4.78303796
 
 !MCSCF STATE 12.1 Triplet Dipole moment         0.00000000     0.00000000     0.00000000
 Dipole moment /Debye                            0.00000000     0.00000000     0.00000000
 
 Results for state 13.1 Triplet
 ==============================
 !MCSCF STATE 13.1 Triplet Energy              -23.553742778936
 Nuclear energy                                  0.00000000
 Kinetic energy                                  6.22614497
 One electron energy                           -39.15728715
 Two electron energy                            15.60354437
 Virial ratio                                    4.78303796
 
 !MCSCF STATE 13.1 Triplet Dipole moment         0.00000000     0.00000000     0.00000000
 Dipole moment /Debye                            0.00000000     0.00000000     0.00000000
 
 Results for state 14.1 Triplet
 ==============================
 !MCSCF STATE 14.1 Triplet Energy              -23.553742778932
 Nuclear energy                                  0.00000000
 Kinetic energy                                  6.22614497
 One electron energy                           -39.15728715
 Two electron energy                            15.60354437
 Virial ratio                                    4.78303796
 
 !MCSCF STATE 14.1 Triplet Dipole moment         0.00000000     0.00000000     0.00000000
 Dipole moment /Debye                            0.00000000     0.00000000     0.00000000
 
 Results for state 15.1 Triplet
 ==============================
 !MCSCF STATE 15.1 Triplet Energy              -23.553742778931
 Nuclear energy                                  0.00000000
 Kinetic energy                                  6.22614497
 One electron energy                           -39.15728716
 Two electron energy                            15.60354438
 Virial ratio                                    4.78303796
 
 !MCSCF STATE 15.1 Triplet Dipole moment         0.00000000     0.00000000     0.00000000
 Dipole moment /Debye                            0.00000000     0.00000000     0.00000000
 
 Results for state 16.1 Triplet
 ==============================
 !MCSCF STATE 16.1 Triplet Energy              -23.553742778930
 Nuclear energy                                  0.00000000
 Kinetic energy                                  6.22614497
 One electron energy                           -39.15728716
 Two electron energy                            15.60354438
 Virial ratio                                    4.78303796
 
 !MCSCF STATE 16.1 Triplet Dipole moment         0.00000000     0.00000000     0.00000000
 Dipole moment /Debye                            0.00000000     0.00000000     0.00000000
 
 State-averaged charge density matrix saved on record 2140.2 (density set 1)
 
 No non-zero expectation values
 
 Expectation values for two-electron operators:
 
 ? Warning
 ? Transition properties are only calculated between states of the same symmetry
 ? The problem occurs in mu_properties_expec2

 !MCSCF expec      <1.1 Singlet|LXLX|1.1 Singlet>    -0.000000000000
 !MCSCF expec      <2.1 Singlet|LXLX|2.1 Singlet>     2.457922182155
 !MCSCF expec      <3.1 Singlet|LXLX|3.1 Singlet>     1.000000005979
 !MCSCF expec      <4.1 Singlet|LXLX|4.1 Singlet>     1.000000000008
 !MCSCF expec      <5.1 Singlet|LXLX|5.1 Singlet>     3.999999990834
 !MCSCF expec      <6.1 Singlet|LXLX|6.1 Singlet>     1.542077653927
 !MCSCF expec      <7.1 Singlet|LXLX|7.1 Singlet>    -0.000000000000
 !MCSCF expec      <1.1 Triplet|LXLX|1.1 Triplet>     3.999999984398
 !MCSCF expec      <2.1 Triplet|LXLX|2.1 Triplet>     1.000000017008
 !MCSCF expec      <3.1 Triplet|LXLX|3.1 Triplet>     3.965853726067
 !MCSCF expec      <4.1 Triplet|LXLX|4.1 Triplet>     0.034146315454
 !MCSCF expec      <5.1 Triplet|LXLX|5.1 Triplet>     0.999999997258
 !MCSCF expec      <6.1 Triplet|LXLX|6.1 Triplet>    -0.000000000000
 !MCSCF expec      <7.1 Triplet|LXLX|7.1 Triplet>     0.999999999864
 !MCSCF expec      <8.1 Triplet|LXLX|8.1 Triplet>     0.000000001383
 !MCSCF expec      <9.1 Triplet|LXLX|9.1 Triplet>     0.999999999305
 !MCSCF expec    <10.1 Triplet|LXLX|10.1 Triplet>     8.403049708577
 !MCSCF expec    <11.1 Triplet|LXLX|11.1 Triplet>     8.998319187717
 !MCSCF expec    <12.1 Triplet|LXLX|12.1 Triplet>     1.294488171553
 !MCSCF expec    <13.1 Triplet|LXLX|13.1 Triplet>     1.596968578837
 !MCSCF expec    <14.1 Triplet|LXLX|14.1 Triplet>     4.000000000000
 !MCSCF expec    <15.1 Triplet|LXLX|15.1 Triplet>     2.705509524270
 !MCSCF expec    <16.1 Triplet|LXLX|16.1 Triplet>     1.001684239068
 
 !MCSCF expec      <1.1 Singlet|LYLY|1.1 Singlet>    -0.000000000000
 !MCSCF expec      <2.1 Singlet|LYLY|2.1 Singlet>     3.457078782790
 !MCSCF expec      <3.1 Singlet|LYLY|3.1 Singlet>     1.000000000110
 !MCSCF expec      <4.1 Singlet|LYLY|4.1 Singlet>     3.999999998788
 !MCSCF expec      <5.1 Singlet|LYLY|5.1 Singlet>     1.000000000658
 !MCSCF expec      <6.1 Singlet|LYLY|6.1 Singlet>     0.542921333565
 !MCSCF expec      <7.1 Singlet|LYLY|7.1 Singlet>    -0.000000000000
 !MCSCF expec      <1.1 Triplet|LYLY|1.1 Triplet>     1.000000015482
 !MCSCF expec      <2.1 Triplet|LYLY|2.1 Triplet>     3.999999982975
 !MCSCF expec      <3.1 Triplet|LYLY|3.1 Triplet>     1.335764752455
 !MCSCF expec      <4.1 Triplet|LYLY|4.1 Triplet>     2.664235034693
 !MCSCF expec      <5.1 Triplet|LYLY|5.1 Triplet>     1.000000004778
 !MCSCF expec      <6.1 Triplet|LYLY|6.1 Triplet>    -0.000000000000
 !MCSCF expec      <7.1 Triplet|LYLY|7.1 Triplet>     0.999999999803
 !MCSCF expec      <8.1 Triplet|LYLY|8.1 Triplet>     0.999999999430
 !MCSCF expec      <9.1 Triplet|LYLY|9.1 Triplet>     0.000000000808
 !MCSCF expec    <10.1 Triplet|LYLY|10.1 Triplet>     3.040055596248
 !MCSCF expec    <11.1 Triplet|LYLY|11.1 Triplet>     1.444077758884
 !MCSCF expec    <12.1 Triplet|LYLY|12.1 Triplet>     8.976765424620
 !MCSCF expec    <13.1 Triplet|LYLY|13.1 Triplet>     6.959914060135
 !MCSCF expec    <14.1 Triplet|LYLY|14.1 Triplet>     4.000000000000
 !MCSCF expec    <15.1 Triplet|LYLY|15.1 Triplet>     1.023233589997
 !MCSCF expec    <16.1 Triplet|LYLY|16.1 Triplet>     2.555971101342
 
 !MCSCF expec      <1.1 Singlet|LZLZ|1.1 Singlet>    -0.000000000000
 !MCSCF expec      <2.1 Singlet|LZLZ|2.1 Singlet>     0.084999035055
 !MCSCF expec      <3.1 Singlet|LZLZ|3.1 Singlet>     3.999999993911
 !MCSCF expec      <4.1 Singlet|LZLZ|4.1 Singlet>     1.000000001204
 !MCSCF expec      <5.1 Singlet|LZLZ|5.1 Singlet>     1.000000008508
 !MCSCF expec      <6.1 Singlet|LZLZ|6.1 Singlet>     3.915001012508
 !MCSCF expec      <7.1 Singlet|LZLZ|7.1 Singlet>    -0.000000000000
 !MCSCF expec      <1.1 Triplet|LZLZ|1.1 Triplet>     1.000000000120
 !MCSCF expec      <2.1 Triplet|LZLZ|2.1 Triplet>     1.000000000017
 !MCSCF expec      <3.1 Triplet|LZLZ|3.1 Triplet>     0.698381521479
 !MCSCF expec      <4.1 Triplet|LZLZ|4.1 Triplet>     3.301618649853
 !MCSCF expec      <5.1 Triplet|LZLZ|5.1 Triplet>     3.999999997963
 !MCSCF expec      <6.1 Triplet|LZLZ|6.1 Triplet>    -0.000000000000
 !MCSCF expec      <7.1 Triplet|LZLZ|7.1 Triplet>     0.000000000333
 !MCSCF expec      <8.1 Triplet|LZLZ|8.1 Triplet>     0.999999999187
 !MCSCF expec      <9.1 Triplet|LZLZ|9.1 Triplet>     0.999999999887
 !MCSCF expec    <10.1 Triplet|LZLZ|10.1 Triplet>     0.556894695175
 !MCSCF expec    <11.1 Triplet|LZLZ|11.1 Triplet>     1.557603053399
 !MCSCF expec    <12.1 Triplet|LZLZ|12.1 Triplet>     1.728746403827
 !MCSCF expec    <13.1 Triplet|LZLZ|13.1 Triplet>     3.443117361028
 !MCSCF expec    <14.1 Triplet|LZLZ|14.1 Triplet>     4.000000000000
 !MCSCF expec    <15.1 Triplet|LZLZ|15.1 Triplet>     8.271256885733
 !MCSCF expec    <16.1 Triplet|LZLZ|16.1 Triplet>     8.442344659590
 
 !MCSCF expec      <1.1 Singlet|L**2|1.1 Singlet>    -0.000000000000
 !MCSCF expec      <2.1 Singlet|L**2|2.1 Singlet>     6.000000000000
 !MCSCF expec      <3.1 Singlet|L**2|3.1 Singlet>     6.000000000000
 !MCSCF expec      <4.1 Singlet|L**2|4.1 Singlet>     6.000000000000
 !MCSCF expec      <5.1 Singlet|L**2|5.1 Singlet>     6.000000000000
 !MCSCF expec      <6.1 Singlet|L**2|6.1 Singlet>     6.000000000000
 !MCSCF expec      <7.1 Singlet|L**2|7.1 Singlet>    -0.000000000000
 !MCSCF expec      <1.1 Triplet|L**2|1.1 Triplet>     6.000000000000
 !MCSCF expec      <2.1 Triplet|L**2|2.1 Triplet>     6.000000000000
 !MCSCF expec      <3.1 Triplet|L**2|3.1 Triplet>     6.000000000000
 !MCSCF expec      <4.1 Triplet|L**2|4.1 Triplet>     6.000000000000
 !MCSCF expec      <5.1 Triplet|L**2|5.1 Triplet>     6.000000000000
 !MCSCF expec      <6.1 Triplet|L**2|6.1 Triplet>    -0.000000000000
 !MCSCF expec      <7.1 Triplet|L**2|7.1 Triplet>     2.000000000000
 !MCSCF expec      <8.1 Triplet|L**2|8.1 Triplet>     2.000000000000
 !MCSCF expec      <9.1 Triplet|L**2|9.1 Triplet>     2.000000000000
 !MCSCF expec    <10.1 Triplet|L**2|10.1 Triplet>    12.000000000000
 !MCSCF expec    <11.1 Triplet|L**2|11.1 Triplet>    12.000000000000
 !MCSCF expec    <12.1 Triplet|L**2|12.1 Triplet>    12.000000000000
 !MCSCF expec    <13.1 Triplet|L**2|13.1 Triplet>    12.000000000000
 !MCSCF expec    <14.1 Triplet|L**2|14.1 Triplet>    12.000000000000
 !MCSCF expec    <15.1 Triplet|L**2|15.1 Triplet>    12.000000000000
 !MCSCF expec    <16.1 Triplet|L**2|16.1 Triplet>    12.000000000000
 
 EXTRA SYMMETRY OF MOS IN SYMMETRY 1:   1 1 4 5 2 3 6 1 5 4   2 3 6 1 5 4 2 3 613  101415 81112 7 9 1 5   4 2 3 613101415 811
                                       12 7 9 1 3 5 6 4 2 1  15141310 81112 7 9 3   6 5 2 41514 8131011  12 7 9 1 6 3 5 2 415
                                       14 813101112 7 9 6 3   5 2 4 1 3 6 5 2 4 1   1
 EXTRA SYMMETRY OF MOS IN SYMMETRY 2:   1 2 3 1 3 2 1 2 3 1   2 3 9 7 410 6 8 5 1   2 31517182014162112  131911 4 7 9 610 5 8
                                        1 2 3 7 9 810 5 4 6  15171820141621121319  11 8 9 7 510 6 4 1 2   3151720181614211213
                                       1911 8 7 9 510 6 4 1   2 3 8 7 9 510 6 4 8   9 7 510 6 4 1 2 3 2   1 3
 
  NATURAL ORBITALS (STATE AVERAGED)
  =================================

  Orbital  Occupation    Energy    Cen Mu Typ  Coefficients
    1.1     2.00000    -1.58159     1  1  s    0.99420
    2.1     0.56390    -0.05612     1  1  s   -0.41486    1  4  s    0.49906    1  5  s    0.66025
    3.1     0.23352     0.04989     1  2  d1+ -0.33439    1  3  d1+ -0.40804
    4.1     0.23352     0.04989     1  2  d2+  0.33439    1  3  d2+  0.40804
    5.1     0.23352     0.04989     1  2  d0   0.33439    1  3  d0   0.40804
    6.1     0.23352     0.04989     1  2  d2- -0.33439    1  3  d2- -0.40804
    7.1     0.23352     0.04989     1  2  d1-  0.33439    1  3  d1-  0.40804
    8.1     0.08577     0.02589     1  4  s   -0.48695    1  5  s   -0.62004    1 11  s    1.47212
    1.2     2.00000    -0.80379     1  1  px   0.99957
    2.2     2.00000    -0.80379     1  1  py   0.99957
    3.2     2.00000    -0.80379     1  1  pz   0.99957
    4.2     0.06090     0.04323     1  1  px  -0.33824    1  3  px   0.59892    1  4  px   0.43097
    5.2     0.06090     0.04323     1  1  pz  -0.33824    1  3  pz   0.59892    1  4  pz   0.43097
    6.2     0.06090     0.04323     1  1  py  -0.33824    1  3  py   0.59892    1  4  py   0.43097
 
 Natural orbital dump (state averaged) at molpro section 2140.2 (Orbital set 2)
 
 Transform the CI vectors
 
 CI Coefficients of symmetry 1 (Singlet)
 =======================================
 
 2000000 000      0.96553005     -0.00000000      0.00000000     -0.00000000      0.00000000      0.00000000     -0.02270058
 b00000a 000     -0.00841837     -0.00000000      0.00000000     -0.00000000      0.00000000      0.00000000     -0.67973571
 a00000b 000      0.00841837      0.00000000     -0.00000000      0.00000000     -0.00000000     -0.00000000      0.67973571
 ab00000 000      0.00000000      0.00000000      0.00000427      0.64653261     -0.00000105      0.00000027     -0.00000000
 ba00000 000     -0.00000000     -0.00000000     -0.00000427     -0.64653261      0.00000105     -0.00000027      0.00000000
 a0000b0 000      0.00000000      0.00000206      0.00002868      0.00000105      0.64653261     -0.00000398     -0.00000000
 b0000a0 000     -0.00000000     -0.00000206     -0.00002868     -0.00000105     -0.64653261      0.00000398      0.00000000
 a000b00 000     -0.00000000      0.00000003      0.64653261     -0.00000427     -0.00002868     -0.00000277      0.00000000
 b000a00 000      0.00000000     -0.00000003     -0.64653261      0.00000427      0.00002868      0.00000277     -0.00000000
 b00a000 000     -0.00000000     -0.63962639     -0.00000038      0.00000004      0.00000146     -0.09424698      0.00000000
 a00b000 000      0.00000000      0.63962639      0.00000038     -0.00000004     -0.00000146      0.09424698     -0.00000000
 a0b0000 000     -0.00000000     -0.09424698      0.00000274     -0.00000026      0.00000423      0.63962639      0.00000000
 b0a0000 000      0.00000000      0.09424698     -0.00000274      0.00000026     -0.00000423     -0.63962639     -0.00000000
 0000000 020     -0.13618747     -0.27709428     -0.00000016      0.00000002      0.00000063     -0.04082899     -0.07302790
 0000000 002     -0.13618747      0.10318820      0.00000111     -0.00000011      0.00000127      0.26038518     -0.07302790
 0000000 a0b      0.00000000      0.00000001      0.24256171     -0.00000160     -0.00001076     -0.00000104      0.00000000
 0000000 b0a     -0.00000000     -0.00000001     -0.24256171      0.00000160      0.00001076      0.00000104     -0.00000000
 0000000 ba0     -0.00000000     -0.00000000     -0.00000160     -0.24256171      0.00000039     -0.00000010      0.00000000
 0000000 ab0      0.00000000      0.00000000      0.00000160      0.24256171     -0.00000039      0.00000010     -0.00000000
 0000000 0ab     -0.00000000     -0.00000077     -0.00001076     -0.00000039     -0.24256171      0.00000149      0.00000000
 0000000 0ba      0.00000000      0.00000077      0.00001076      0.00000039      0.24256171     -0.00000149     -0.00000000
 0000000 200     -0.13618747      0.17390608     -0.00000095      0.00000009     -0.00000190     -0.21955619     -0.07302790
 0000002 000     -0.01619319      0.00000000      0.00000000     -0.00000000     -0.00000000      0.00000000     -0.13952683
 000ab00 000      0.00000000      0.00000000      0.11276165     -0.00000074     -0.00000500     -0.00000048      0.00000000
 000ba00 000     -0.00000000     -0.00000000     -0.11276165      0.00000074      0.00000500      0.00000048     -0.00000000
 00ba000 000      0.00000000      0.01643760     -0.00000048      0.00000005     -0.00000074     -0.11155714     -0.00000000
 00ab000 000     -0.00000000     -0.01643760      0.00000048     -0.00000005      0.00000074      0.11155714      0.00000000
 0020000 000     -0.04838736      0.11155714      0.00000007     -0.00000001     -0.00000025      0.01643760      0.08937164
 0000200 000     -0.04838736      0.11155714      0.00000007     -0.00000001     -0.00000025      0.01643760      0.08937163
 0002000 000     -0.04838736     -0.11155714     -0.00000007      0.00000001      0.00000025     -0.01643760      0.08937163
 0200000 000     -0.04838736     -0.04154319     -0.00000045      0.00000004     -0.00000051     -0.10483011      0.08937163
 0ba0000 000      0.00000000      0.00000000      0.00000064      0.09765445     -0.00000016      0.00000004      0.00000000
 0ab0000 000     -0.00000000     -0.00000000     -0.00000064     -0.09765445      0.00000016     -0.00000004     -0.00000000
 0000ab0 000      0.00000000     -0.00000000     -0.00000064     -0.09765445      0.00000016     -0.00000004     -0.00000000
 0000ba0 000     -0.00000000      0.00000000      0.00000064      0.09765445     -0.00000016      0.00000004      0.00000000
 0a00b00 000      0.00000000     -0.00000031     -0.00000433     -0.00000016     -0.09765445      0.00000060     -0.00000000
 0b00a00 000     -0.00000000      0.00000031      0.00000433      0.00000016      0.09765445     -0.00000060      0.00000000
 00a00b0 000      0.00000000      0.00000031      0.00000433      0.00000016      0.09765445     -0.00000060      0.00000000
 00b00a0 000     -0.00000000     -0.00000031     -0.00000433     -0.00000016     -0.09765445      0.00000060     -0.00000000
 0b000a0 000     -0.00000000      0.00000000      0.09765445     -0.00000064     -0.00000433     -0.00000042      0.00000000
 0a000b0 000      0.00000000     -0.00000000     -0.09765445      0.00000064      0.00000433      0.00000042     -0.00000000
 0000020 000     -0.04838736     -0.07001395      0.00000038     -0.00000004      0.00000077      0.08839251      0.08937164
 0b0a000 000      0.00000000      0.00000000      0.00000037      0.05638082     -0.00000009      0.00000002      0.00000000
 0a0b000 000     -0.00000000     -0.00000000     -0.00000037     -0.05638082      0.00000009     -0.00000002     -0.00000000
 000b0a0 000     -0.00000000      0.00000018      0.00000250      0.00000009      0.05638082     -0.00000035      0.00000000
 000a0b0 000      0.00000000     -0.00000018     -0.00000250     -0.00000009     -0.05638082      0.00000035     -0.00000000
 
 Energy:        -23.69852596    -23.61716939    -23.61716939    -23.61716939    -23.61716939    -23.61716939    -23.57611588
 
 
 CI Coefficients of symmetry 1 (Triplet)
 =======================================

 State:                1               2               3               4               5               6               7
 00aa000 000     -0.00000000     -0.00000000     -0.00000000     -0.00000000     -0.00000000      0.00000000      0.00000000
 a00000a 000     -0.00000000     -0.00000000     -0.00000000      0.00000000      0.00000000      1.00000000     -0.00000000
 a000a00 000     -0.00000396     -0.00000131      0.00000000      0.00000000      0.99999810     -0.00000000      0.00000000
 aa00000 000     -0.00007189      0.99999809      0.00000168      0.00000145      0.00000131      0.00000000     -0.00000000
 a0000a0 000      0.99999809      0.00007189     -0.00000368     -0.00000384      0.00000396      0.00000000     -0.00000000
 000aa00 000     -0.00000000      0.00000000      0.00000000      0.00000000      0.00000000     -0.00000000      0.00000000
 a00a000 000      0.00000174     -0.00000092      0.90851608     -0.41784532      0.00000000      0.00000000     -0.00000000
 a0a0000 000      0.00000503     -0.00000202      0.41784532      0.90851608     -0.00000000     -0.00000000      0.00000000
 00a00a0 000     -0.00000000     -0.00000000      0.00000000      0.00000000     -0.00000000     -0.00000000      0.00000375
 0a000a0 000      0.00000000      0.00000000      0.00000000      0.00000000      0.00000000     -0.00000000      0.32237941
 0aa0000 000     -0.00000000      0.00000000      0.00000000      0.00000000      0.00000000      0.00000000      0.00000453
 0a00a00 000      0.00000000      0.00000000     -0.00000000     -0.00000000      0.00000000      0.00000000      0.00000375
 0000aa0 000      0.00000000     -0.00000000     -0.00000000     -0.00000000     -0.00000000     -0.00000000     -0.00000453
 0000000 a0a      0.00000000      0.00000000     -0.00000000     -0.00000000     -0.00000000      0.00000000      0.69307834
 0000000 0aa     -0.00000000     -0.00000000      0.00000000      0.00000000     -0.00000000     -0.00000000     -0.00000807
 0000000 aa0      0.00000000     -0.00000000     -0.00000000     -0.00000000     -0.00000000     -0.00000000     -0.00000973
 00a0a00 000      0.00000000     -0.00000000     -0.00000000     -0.00000000     -0.00000000      0.00000000      0.64475882
 0a0a000 000      0.00000000     -0.00000000     -0.00000000     -0.00000000     -0.00000000     -0.00000000     -0.00000784
 000a0a0 000      0.00000000      0.00000000     -0.00000000     -0.00000000      0.00000000      0.00000000      0.00000650
 
 Energy:        -23.62658587    -23.62658587    -23.62658587    -23.62658587    -23.62658587    -23.58342373    -23.55889366

 State:                8               9              10              11              12              13              14
 00aa000 000      0.00000000      0.00000000     -0.00000000      0.00000000     -0.00000000      0.00000000      1.00000000
 a00000a 000      0.00000000      0.00000000     -0.00000000     -0.00000000      0.00000000      0.00000000     -0.00000000
 a000a00 000      0.00000000      0.00000000      0.00000000     -0.00000000     -0.00000000     -0.00000000      0.00000000
 aa00000 000     -0.00000000      0.00000000      0.00000000     -0.00000000      0.00000000     -0.00000000      0.00000000
 a0000a0 000      0.00000000      0.00000000      0.00000000     -0.00000000      0.00000000     -0.00000000      0.00000000
 000aa00 000      0.00000000      0.00000000     -0.37312688     -0.00002062      0.00042456      0.92778023     -0.00000000
 a00a000 000     -0.00000000      0.00000000     -0.00000000      0.00000000      0.00000000     -0.00000000      0.00000000
 a0a0000 000      0.00000000     -0.00000000      0.00000000     -0.00000000      0.00000000     -0.00000000      0.00000000
 00a00a0 000     -0.32237941     -0.00000769      0.00000572     -0.00000982      0.30876348     -0.00012970      0.00000000
 0a000a0 000      0.00000375      0.00000453      0.82983194      0.00009567      0.00013040      0.33373480     -0.00000000
 0aa0000 000      0.00000769     -0.32237941      0.00003653     -0.34160752     -0.00001178      0.00001047      0.00000000
 0a00a00 000     -0.32237941     -0.00000769      0.00001790     -0.00000541      0.73559655     -0.00033505      0.00000000
 0000aa0 000     -0.00000769      0.32237941     -0.00007645      0.71497164      0.00000388     -0.00001267     -0.00000000
 0000000 a0a      0.00000807      0.00000973      0.00000000      0.00000000     -0.00000000     -0.00000000     -0.00000000
 0000000 0aa      0.69307834      0.00001654     -0.00000000     -0.00000000     -0.00000000      0.00000000     -0.00000000
 0000000 aa0     -0.00001654      0.69307834     -0.00000000      0.00000000     -0.00000000      0.00000000     -0.00000000
 00a0a00 000      0.00000751      0.00000905     -0.41491597     -0.00004783     -0.00006520     -0.16686740      0.00000000
 0a0a000 000     -0.00001333      0.55837751      0.00006523     -0.61001626     -0.00000904      0.00001336      0.00000000
 000a0a0 000     -0.55837751     -0.00001333     -0.00001364      0.00000879     -0.60296155      0.00026832     -0.00000000
 
 Energy:        -23.55889366    -23.55889366    -23.55374278    -23.55374278    -23.55374278    -23.55374278    -23.55374278

 State:               15              16
 00aa000 000     -0.00000000      0.00000000
 a00000a 000      0.00000000     -0.00000000
 a000a00 000      0.00000000      0.00000000
 aa00000 000      0.00000000     -0.00000000
 a0000a0 000      0.00000000      0.00000000
 000aa00 000     -0.00001027     -0.00000378
 a00a000 000      0.00000000     -0.00000000
 a0a0000 000      0.00000000      0.00000000
 00a00a0 000      0.83944330      0.00019393
 0a000a0 000     -0.00000205     -0.00000136
 0aa0000 000     -0.00019063      0.82662220
 0a00a00 000     -0.50881980     -0.00010910
 0000aa0 000     -0.00011722      0.53741561
 0000000 a0a     -0.00000000      0.00000000
 0000000 0aa      0.00000000      0.00000000
 0000000 aa0      0.00000000     -0.00000000
 00a0a00 000      0.00000103      0.00000068
 0a0a000 000     -0.00004238      0.16697350
 000a0a0 000     -0.19088557     -0.00004898
 
 Energy:        -23.55374278    -23.55374278
 


 **********************************************************************************************************************************
 DATASETS  * FILE   NREC   LENGTH (MB)   RECORD NAMES
              1      21       58.25       500      610      700      900      950      970     1000      129      960     1100   
                                          VAR    BASINP    GEOM    SYMINP    ZMAT    AOBASIS   BASIS     P2S    ABASIS      S 
                                         1400     1410     1420     1200     1210     1080     1700     1600     1650     1380   
                                           T        V       ECP      H0       H01     AOSYM    OPER      SMH    MOLCAS    JKOP   
                                         1700(1)
                                         OPER   

              2       5        1.73       700     1000      520     2100     2140   
                                         GEOM     BASIS   MCVARS     RHF     MCSCF   

 PROGRAMS   *        TOTAL     MULTI   RHF-SCF       INT
 CPU TIMES  *        10.23      4.20      1.60      4.26
 REAL TIME  *        14.45 SEC
 DISK USED  *        60.09 MB (local),      836.21 MB (total)
 SF USED    *        88.50 MB
 GA USED    *         0.00 MB       (max)       0.00 MB       (current)
 **********************************************************************************************************************************

 Energies and &lt;L**2&gt; values

        ENERGY       LL
    -23.69852596   -0.0
    -23.61716939    6.0
    -23.61716939    6.0
    -23.61716939    6.0
    -23.61716939    6.0
    -23.61716939    6.0
    -23.57611588   -0.0
    -23.62658587    6.0
    -23.62658587    6.0
    -23.62658587    6.0
    -23.62658587    6.0
    -23.62658587    6.0
    -23.58342373   -0.0
    -23.55889366    2.0
    -23.55889366    2.0
    -23.55889366    2.0
    -23.55374278   12.0
    -23.55374278   12.0
    -23.55374278   12.0
    -23.55374278   12.0
    -23.55374278   12.0
    -23.55374278   12.0
    -23.55374278   12.0
                                                  


 PROGRAM * CI (Multireference internally contracted CI)     Authors: H.-J. Werner, P.J. Knowles, 1987


 Convergence thresholds:  THRVAR = 1.00D-08  THRDEN = 1.00D-06

 Number of optimized states: 7  Roots:    1   2   3   4   5   6   7
 Number of reference states: 7  Roots:    1   2   3   4   5   6   7

 Reference symmetry:                   1   Singlet 
 Number of electrons:                 10
 Maximum number of shells:             5
 Maximum number of spin couplings:    14

 Reference space:       34 conf       34 CSFs
 N elec internal:     7045 conf    15565 CSFs
 N-1 el internal:     2330 conf     6410 CSFs
 N-2 el internal:      381 conf     1153 CSFs

 Number of electrons in valence space:                     10
 Maximum number of open shell orbitals in reference space:  2
 Maximum number of open shell orbitals in internal spaces:  8


 Number of closed-shell orbitals:   4 (   1   3 )
 Number of active  orbitals:       10 (   7   3 )
 Number of external orbitals:     199 (  93 106 )

 Molecular orbitals read from record     2140.2  Type=MCSCF/NATURAL (state averaged)

 Valence orbitals related to previous ones by unitary transformation. Operators transformed.


 Number of p-space configurations:  34

 Reference wavefunction optimized for reference space (refopt=1)

 State     Reference Energy 
     1       -23.69852596
     2       -23.61716939
     3       -23.61716939
     4       -23.61716939
     5       -23.61716939
     6       -23.61716939
     7       -23.57611588

 Number of blocks in overlap matrix:   169   Smallest eigenvalue:  0.83D+00
 Number of N-2 electron functions:     193
 Number of N-1 electron functions:    6410

 Number of internal configurations:                 7851
 Number of singly external configurations:        637457
 Number of doubly external configurations:       1914183
 Total number of contracted configurations:      2559491
 Total number of uncontracted configurations:   12066380

 Diagonal Coupling coefficients finished.               Storage:   3217856 words, CPU-Time:      0.53 seconds.
 Energy denominators for pairs finished in 1 passes.    Storage:   1476828 words, CPU-time:      0.11 seconds.

  ITER. STATE  ROOT     SQ.NORM     CORR.ENERGY   TOTAL ENERGY   ENERGY CHANGE       DEN1      VAR(S)    VAR(P)      TIME
    1     1     1     1.00000000     0.00000000   -23.69852596     0.00000000    -0.24059327  0.38D-01  0.53D-01     1.23
    1     2     2     1.00000000     0.00000000   -23.61716939     0.00000000    -0.24946487  0.45D-01  0.59D-01     1.23
    1     3     3     1.00000000     0.00000000   -23.61716939    -0.00000000    -0.24965877  0.45D-01  0.59D-01     1.23
    1     4     4     1.00000000     0.00000000   -23.61716939     0.00000000    -0.24954299  0.45D-01  0.59D-01     1.23
    1     5     5     1.00000000     0.00000000   -23.61716939     0.00000000    -0.24972128  0.46D-01  0.59D-01     1.23
    1     6     6     1.00000000     0.00000000   -23.61716939     0.00000000    -0.24948343  0.45D-01  0.59D-01     1.23
    1     7     7     1.00000000     0.00000000   -23.57611588    -0.00000000    -0.23524432  0.45D-01  0.52D-01     1.23
    2     1     1     1.07465842    -0.23216417   -23.93069013    -0.23216417    -0.00648077  0.21D-02  0.98D-03    28.52
    2     2     2     1.08359598    -0.23365817   -23.85082756    -0.23365817    -0.00696648  0.27D-02  0.12D-02    28.52
    2     3     3     1.08366687    -0.23365207   -23.85082146    -0.23365207    -0.00697606  0.27D-02  0.12D-02    28.52
    2     4     4     1.08373659    -0.23363256   -23.85080195    -0.23363256    -0.00699900  0.27D-02  0.12D-02    28.52
    2     5     5     1.08377862    -0.23363184   -23.85080123    -0.23363184    -0.00700423  0.27D-02  0.12D-02    28.52
    2     6     6     1.08377801    -0.23361768   -23.85078707    -0.23361768    -0.00701516  0.27D-02  0.12D-02    28.52
    2     7     7     1.07998554    -0.22852566   -23.80464154    -0.22852566    -0.00623112  0.24D-02  0.11D-02    28.52
    3     1     1     1.07719169    -0.23875307   -23.93727903    -0.00658890    -0.00026932  0.68D-04  0.46D-04    55.89
    3     2     2     1.08451661    -0.24057664   -23.85774603    -0.00691847    -0.00033827  0.11D-03  0.70D-04    55.89
    3     3     3     1.08452983    -0.24057653   -23.85774593    -0.00692446    -0.00033891  0.11D-03  0.70D-04    55.89
    3     4     4     1.08450178    -0.24057629   -23.85774568    -0.00694373    -0.00033823  0.11D-03  0.70D-04    55.89
    3     5     5     1.08452892    -0.24057540   -23.85774479    -0.00694355    -0.00033988  0.11D-03  0.70D-04    55.89
    3     6     6     1.08452922    -0.24057439   -23.85774379    -0.00695671    -0.00034092  0.11D-03  0.71D-04    55.89
    3     7     7     1.08048495    -0.23480913   -23.81092501    -0.00628347    -0.00026782  0.74D-04  0.54D-04    55.89
    4     1     1     1.07836271    -0.23904220   -23.93756817    -0.00028913    -0.00001582  0.86D-05  0.22D-05    83.15
    4     2     2     1.08634821    -0.24094851   -23.85811790    -0.00037187    -0.00002910  0.23D-04  0.36D-05    83.15
    4     3     3     1.08635142    -0.24094845   -23.85811784    -0.00037191    -0.00002917  0.23D-04  0.36D-05    83.15
    4     4     4     1.08635254    -0.24094831   -23.85811770    -0.00037203    -0.00002926  0.23D-04  0.36D-05    83.15
    4     5     5     1.08635143    -0.24094829   -23.85811768    -0.00037290    -0.00002928  0.23D-04  0.36D-05    83.15
    4     6     6     1.08634034    -0.24094828   -23.85811767    -0.00037389    -0.00002921  0.23D-04  0.36D-05    83.15
    4     7     7     1.08172580    -0.23509197   -23.81120785    -0.00028285    -0.00001547  0.93D-05  0.23D-05    83.15
    5     1     1     1.07872985    -0.23906050   -23.93758646    -0.00001830    -0.00000135  0.66D-06  0.24D-06   110.23
    5     2     2     1.08711486    -0.24098666   -23.85815605    -0.00003815    -0.00000408  0.21D-05  0.64D-06   110.23
    5     3     3     1.08711518    -0.24098664   -23.85815603    -0.00003819    -0.00000409  0.21D-05  0.64D-06   110.23
    5     4     4     1.08711449    -0.24098664   -23.85815603    -0.00003832    -0.00000411  0.21D-05  0.65D-06   110.23
    5     5     5     1.08711462    -0.24098662   -23.85815601    -0.00003833    -0.00000411  0.21D-05  0.64D-06   110.23
    5     6     6     1.08711403    -0.24098662   -23.85815601    -0.00003833    -0.00000411  0.21D-05  0.64D-06   110.23
    5     7     7     1.08195882    -0.23510993   -23.81122581    -0.00001795    -0.00000144  0.10D-05  0.22D-06   110.23
    6     1     1     1.07878714    -0.23906203   -23.93758800    -0.00000153    -0.00000011  0.32D-07  0.24D-07   137.28
    6     2     2     1.08724671    -0.24099178   -23.85816117    -0.00000512    -0.00000044  0.20D-06  0.74D-07   137.28
    6     3     3     1.08724651    -0.24099178   -23.85816117    -0.00000514    -0.00000044  0.20D-06  0.74D-07   137.28
    6     4     4     1.08724694    -0.24099178   -23.85816117    -0.00000514    -0.00000044  0.20D-06  0.74D-07   137.28
    6     5     5     1.08724660    -0.24099178   -23.85816117    -0.00000516    -0.00000044  0.20D-06  0.74D-07   137.28
    6     6     6     1.08724651    -0.24099178   -23.85816117    -0.00000516    -0.00000044  0.20D-06  0.75D-07   137.28
    6     7     7     1.08199427    -0.23511173   -23.81122761    -0.00000180    -0.00000016  0.61D-07  0.35D-07   137.28
    7     1     1     1.07880236    -0.23906215   -23.93758811    -0.00000012    -0.00000001  0.41D-08  0.13D-08   164.36
    7     2     2     1.08728993    -0.24099226   -23.85816165    -0.00000047    -0.00000005  0.40D-07  0.73D-08   164.36
    7     3     3     1.08728977    -0.24099226   -23.85816165    -0.00000047    -0.00000005  0.40D-07  0.73D-08   164.36
    7     4     4     1.08728995    -0.24099226   -23.85816165    -0.00000048    -0.00000005  0.40D-07  0.73D-08   164.36
    7     5     5     1.08728992    -0.24099226   -23.85816165    -0.00000048    -0.00000005  0.40D-07  0.74D-08   164.36
    7     6     6     1.08728993    -0.24099226   -23.85816165    -0.00000048    -0.00000005  0.40D-07  0.74D-08   164.36
    7     7     7     1.08200794    -0.23511191   -23.81122779    -0.00000018    -0.00000002  0.14D-07  0.37D-08   164.36
    8     1     1     1.07880601    -0.23906216   -23.93758812    -0.00000001    -0.00000000  0.12D-08  0.64D-09   187.81
    8     2     2     1.08730445    -0.24099231   -23.85816170    -0.00000006    -0.00000001  0.45D-08  0.13D-08   187.81
    8     3     3     1.08730441    -0.24099231   -23.85816170    -0.00000006    -0.00000001  0.45D-08  0.13D-08   187.81
    8     4     4     1.08730441    -0.24099231   -23.85816170    -0.00000006    -0.00000001  0.46D-08  0.13D-08   187.81
    8     5     5     1.08730436    -0.24099231   -23.85816170    -0.00000006    -0.00000001  0.46D-08  0.13D-08   187.81
    8     6     6     1.08730433    -0.24099231   -23.85816170    -0.00000006    -0.00000001  0.46D-08  0.13D-08   187.81
    8     7     7     1.08201083    -0.23511193   -23.81122781    -0.00000002    -0.00000000  0.69D-09  0.31D-09   187.81


 =====================================
 Analysis of CPU times by interactions
 =====================================

       I      S      P

 I   2.1%
 S   2.0%  16.5%
 P   0.6%  12.9%  23.0%

 Initialization:   0.4%
 Other:           42.5%

 Total CPU:      187.8 seconds
 =====================================



 Wavefunction saved on  5101.2

 Reference coefficients greater than 0.0500000
 =============================================
 22000000222000           0.9310614  -0.0000000  -0.0000000  -0.0000000  -0.0000000  -0.0000000   0.0451578
 2/00000\222000          -0.0508491  -0.0000000  -0.0000000   0.0000000   0.0000000   0.0000000   0.9149968
 2/\00000222000           0.0000000  -0.0000000  -0.0000000  -0.0000000   0.0000000   0.8914226  -0.0000000
 2/0000\0222000           0.0000000   0.0000000   0.0000000   0.0000000   0.8914226  -0.0000000  -0.0000000
 2/000\00222000           0.0000000  -0.0000000   0.0000000   0.8914226  -0.0000000   0.0000000  -0.0000000
 2/00\000222000           0.0000000   0.3016427   0.8388361  -0.0000000  -0.0000000   0.0000000   0.0000000
 2/0\0000222000          -0.0000000   0.8388361  -0.3016427  -0.0000000   0.0000000  -0.0000000  -0.0000000
 20000000222/\0           0.0000000  -0.0000000   0.0000000  -0.0000000   0.0000000   0.2841663  -0.0000000
 200000002220/\          -0.0000000   0.0000000  -0.0000000  -0.0000000  -0.2841663  -0.0000000  -0.0000000
 20000000222/0\           0.0000000  -0.0000000  -0.0000000   0.2841662   0.0000000   0.0000000  -0.0000000
 20000000222002          -0.1109343   0.2283383   0.0411733   0.0000000  -0.0000000   0.0000000  -0.0832486
 20000000222020          -0.1109343  -0.0785120  -0.2183334  -0.0000000   0.0000000   0.0000000  -0.0832486
 20000000222200          -0.1109343  -0.1498263   0.1771601  -0.0000000   0.0000000  -0.0000000  -0.0832486
 20000002222000          -0.0097348   0.0000000  -0.0000000  -0.0000000  -0.0000000  -0.0000000  -0.1548182
 2000/\00222000           0.0000000   0.0000000   0.0000000   0.1482954  -0.0000000   0.0000000  -0.0000000
 200/\000222000           0.0000000   0.1395471  -0.0501807   0.0000000   0.0000000   0.0000000  -0.0000000
 20/00\00222000           0.0000000  -0.0000000   0.0000000   0.0000000  -0.1284277   0.0000000   0.0000000
 200/00\0222000           0.0000000   0.0000000   0.0000000  -0.0000000   0.1284277  -0.0000000  -0.0000000
 20000/\0222000           0.0000000  -0.0000000   0.0000000  -0.0000000  -0.0000000  -0.1284276  -0.0000000
 20/000\0222000          -0.0000000  -0.0000000  -0.0000000  -0.1284276   0.0000000   0.0000000   0.0000000
 20/\0000222000           0.0000000  -0.0000000   0.0000000   0.0000000  -0.0000000  -0.1284276   0.0000000
 20200000222000          -0.0496131  -0.1031963  -0.0186081  -0.0000000  -0.0000000  -0.0000000   0.0813243
 20000200222000          -0.0496132   0.0354831   0.0986747  -0.0000000   0.0000000   0.0000000   0.0813244
 20020000222000          -0.0496132   0.0354831   0.0986746   0.0000000   0.0000000   0.0000000   0.0813244
 20002000222000          -0.0496131  -0.0354830  -0.0986745   0.0000000   0.0000000  -0.0000000   0.0813244
 20000020222000          -0.0496132   0.0677133  -0.0800666   0.0000000  -0.0000000   0.0000000   0.0813244
 2000/0\0222000          -0.0000000  -0.0000000  -0.0000000  -0.0000000  -0.0741476   0.0000000   0.0000000
 20/0\000222000           0.0000000  -0.0000000   0.0000000   0.0000000  -0.0000000  -0.0741476   0.0000000

 Coefficients of fixed reference functions:
 ==========================================

 State      Coefficients
 1           0.955847   -0.000000    0.000000    0.000000    0.000000   -0.000000   -0.066524
 2          -0.000000    0.188417   -0.000000   -0.000000    0.000000    0.935932    0.000000
 3          -0.000000    0.935932    0.000000   -0.000000    0.000000   -0.188417   -0.000000
 4          -0.000000   -0.000000    0.954709   -0.000000    0.000000    0.000000    0.000000
 5          -0.000000   -0.000000   -0.000000    0.000000    0.954709   -0.000000    0.000000
 6          -0.000000   -0.000000    0.000000    0.954709   -0.000000    0.000000    0.000000
 7           0.071338   -0.000000   -0.000000   -0.000000   -0.000000   -0.000000    0.954734

 Coefficients of rotated reference functions:
 ============================================

 State      Coefficients
 1           0.958156   -0.000000   -0.000000   -0.000000    0.000000    0.000000    0.002441
 2          -0.000000    0.954709    0.000000    0.000000   -0.000000   -0.000000   -0.000000
 3          -0.000000    0.000000    0.954709   -0.000000    0.000000   -0.000000   -0.000000
 4          -0.000000    0.000000   -0.000000    0.954709    0.000000   -0.000000    0.000000
 5           0.000000   -0.000000    0.000000    0.000000    0.954709    0.000000    0.000000
 6           0.000000   -0.000000   -0.000000   -0.000000    0.000000    0.954709   -0.000000
 7           0.002441   -0.000000   -0.000000    0.000000    0.000000   -0.000000    0.957392


 RESULTS FOR STATE 1.1
 =====================

 Coefficient of reference function:   C(0) = 0.95584685 (fixed)   0.95853133 (relaxed)   0.95815590 (rotated)

 Energy contributions of configuration classes

 CLASS          SQ.NORM        ECORR1        ECORR2
 +++++++++++++++++++++++++++++++++++++++++++++++++++
 Internals    0.00968124   -0.01426413   -0.18013656
 Singles      0.03087756   -0.06120176   -0.06296511
 Pairs        0.04869139    0.01603896    0.00403951
 Total        1.08925018   -0.05942693   -0.23906216
 +++++++++++++++++++++++++++++++++++++++++++++++++++


 Reference energy                     -23.69789191
 Nuclear energy                         0.00000000
 Kinetic energy                         6.23243560
 One electron energy                  -38.96406275
 Two electron energy                   15.02647463
 Virial quotient                       -3.84080793
 Correlation energy                    -0.23969621
 !MRCI STATE 1.1 Energy               -23.937588118516

 Properties without orbital relaxation:

 !MRCI STATE 1.1 Dipole moment          0.00000000     0.00000000     0.00000000
 Dipole moment /Debye                   0.00000000     0.00000000     0.00000000

 Cluster corrected energies           -23.95898105 (Davidson, fixed reference)
 Cluster corrected energies           -23.95877657 (Davidson, relaxed reference)
 Cluster corrected energies           -23.95898105 (Davidson, rotated reference)

 Cluster corrected energies           -23.95564514 (Pople, fixed reference)
 Cluster corrected energies           -23.95546338 (Pople, relaxed reference)
 Cluster corrected energies           -23.95564514 (Pople, rotated reference)



 RESULTS FOR STATE 2.1
 =====================

 Maximum overlap with reference state  6

 Coefficient of reference function:   C(0) = 0.93593191 (fixed)   0.95614360 (relaxed)   0.95470921 (rotated)

 Energy contributions of configuration classes

 CLASS          SQ.NORM        ECORR1        ECORR2
 +++++++++++++++++++++++++++++++++++++++++++++++++++
 Internals    0.00903587   -0.01018042   -0.16660790
 Singles      0.03497257   -0.06037950   -0.06271703
 Pairs        0.05312075    0.00000000   -0.01166738
 Total        1.09712920   -0.07055992   -0.24099231
 +++++++++++++++++++++++++++++++++++++++++++++++++++


 Reference energy                     -23.61716939
 Nuclear energy                         0.00000000
 Kinetic energy                         6.31710312
 One electron energy                  -38.94550911
 Two electron energy                   15.08734741
 Virial quotient                       -3.77675673
 Correlation energy                    -0.24099231
 !MRCI STATE 2.1 Energy               -23.858161703644

 Properties without orbital relaxation:

 !MRCI STATE 2.1 Dipole moment          0.00000000     0.00000000     0.00000000
 Dipole moment /Debye                   0.00000000     0.00000000     0.00000000

 Cluster corrected energies           -23.88156909 (Davidson, fixed reference)
 Cluster corrected energies           -23.88077639 (Davidson, relaxed reference)
 Cluster corrected energies           -23.88156909 (Davidson, rotated reference)

 Cluster corrected energies           -23.87801272 (Pople, fixed reference)
 Cluster corrected energies           -23.87730263 (Pople, relaxed reference)
 Cluster corrected energies           -23.87801272 (Pople, rotated reference)



 RESULTS FOR STATE 3.1
 =====================

 Maximum overlap with reference state  2

 Coefficient of reference function:   C(0) = 0.93593193 (fixed)   0.95614362 (relaxed)   0.95470923 (rotated)

 Energy contributions of configuration classes

 CLASS          SQ.NORM        ECORR1        ECORR2
 +++++++++++++++++++++++++++++++++++++++++++++++++++
 Internals    0.00903587   -0.01018042   -0.16660790
 Singles      0.03497254   -0.06037950   -0.06271703
 Pairs        0.05312075   -0.00000000   -0.01166738
 Total        1.09712915   -0.07055992   -0.24099231
 +++++++++++++++++++++++++++++++++++++++++++++++++++


 Reference energy                     -23.61716939
 Nuclear energy                         0.00000000
 Kinetic energy                         6.31710308
 One electron energy                  -38.94550870
 Two electron energy                   15.08734699
 Virial quotient                       -3.77675675
 Correlation energy                    -0.24099231
 !MRCI STATE 3.1 Energy               -23.858161703619

 Properties without orbital relaxation:

 !MRCI STATE 3.1 Dipole moment          0.00000000     0.00000000     0.00000000
 Dipole moment /Debye                   0.00000000     0.00000000     0.00000000

 Cluster corrected energies           -23.88156908 (Davidson, fixed reference)
 Cluster corrected energies           -23.88077638 (Davidson, relaxed reference)
 Cluster corrected energies           -23.88156908 (Davidson, rotated reference)

 Cluster corrected energies           -23.87801271 (Pople, fixed reference)
 Cluster corrected energies           -23.87730262 (Pople, relaxed reference)
 Cluster corrected energies           -23.87801271 (Pople, rotated reference)



 RESULTS FOR STATE 4.1
 =====================

 Maximum overlap with reference state  3

 Coefficient of reference function:   C(0) = 0.95470923 (fixed)   0.95614362 (relaxed)   0.95470923 (rotated)

 Energy contributions of configuration classes

 CLASS          SQ.NORM        ECORR1        ECORR2
 +++++++++++++++++++++++++++++++++++++++++++++++++++
 Internals    0.00903587   -0.01018042   -0.16660791
 Singles      0.03497253   -0.06037949   -0.06271702
 Pairs        0.05312076   -0.00000000   -0.01166738
 Total        1.09712915   -0.07055991   -0.24099231
 +++++++++++++++++++++++++++++++++++++++++++++++++++


 Reference energy                     -23.61716939
 Nuclear energy                         0.00000000
 Kinetic energy                         6.31710300
 One electron energy                  -38.94550858
 Two electron energy                   15.08734688
 Virial quotient                       -3.77675680
 Correlation energy                    -0.24099231
 !MRCI STATE 4.1 Energy               -23.858161703575

 Properties without orbital relaxation:

 !MRCI STATE 4.1 Dipole moment          0.00000000     0.00000000     0.00000000
 Dipole moment /Debye                   0.00000000     0.00000000     0.00000000

 Cluster corrected energies           -23.88156908 (Davidson, fixed reference)
 Cluster corrected energies           -23.88077638 (Davidson, relaxed reference)
 Cluster corrected energies           -23.88156908 (Davidson, rotated reference)

 Cluster corrected energies           -23.87801271 (Pople, fixed reference)
 Cluster corrected energies           -23.87730262 (Pople, relaxed reference)
 Cluster corrected energies           -23.87801271 (Pople, rotated reference)



 RESULTS FOR STATE 5.1
 =====================

 Coefficient of reference function:   C(0) = 0.95470926 (fixed)   0.95614364 (relaxed)   0.95470926 (rotated)

 Energy contributions of configuration classes

 CLASS          SQ.NORM        ECORR1        ECORR2
 +++++++++++++++++++++++++++++++++++++++++++++++++++
 Internals    0.00903586   -0.01018042   -0.16660792
 Singles      0.03497248   -0.06037949   -0.06271702
 Pairs        0.05312075   -0.00000000   -0.01166737
 Total        1.09712909   -0.07055991   -0.24099231
 +++++++++++++++++++++++++++++++++++++++++++++++++++


 Reference energy                     -23.61716939
 Nuclear energy                         0.00000000
 Kinetic energy                         6.31710292
 One electron energy                  -38.94550812
 Two electron energy                   15.08734642
 Virial quotient                       -3.77675685
 Correlation energy                    -0.24099231
 !MRCI STATE 5.1 Energy               -23.858161703535

 Properties without orbital relaxation:

 !MRCI STATE 5.1 Dipole moment          0.00000000     0.00000000     0.00000000
 Dipole moment /Debye                   0.00000000     0.00000000     0.00000000

 Cluster corrected energies           -23.88156907 (Davidson, fixed reference)
 Cluster corrected energies           -23.88077637 (Davidson, relaxed reference)
 Cluster corrected energies           -23.88156907 (Davidson, rotated reference)

 Cluster corrected energies           -23.87801270 (Pople, fixed reference)
 Cluster corrected energies           -23.87730261 (Pople, relaxed reference)
 Cluster corrected energies           -23.87801270 (Pople, rotated reference)



 RESULTS FOR STATE 6.1
 =====================

 Maximum overlap with reference state  4

 Coefficient of reference function:   C(0) = 0.95470927 (fixed)   0.95614366 (relaxed)   0.95470927 (rotated)

 Energy contributions of configuration classes

 CLASS          SQ.NORM        ECORR1        ECORR2
 +++++++++++++++++++++++++++++++++++++++++++++++++++
 Internals    0.00903586   -0.01018042   -0.16660794
 Singles      0.03497246   -0.06037947   -0.06271702
 Pairs        0.05312074   -0.00000000   -0.01166735
 Total        1.09712906   -0.07055989   -0.24099231
 +++++++++++++++++++++++++++++++++++++++++++++++++++


 Reference energy                     -23.61716939
 Nuclear energy                         0.00000000
 Kinetic energy                         6.31710280
 One electron energy                  -38.94550773
 Two electron energy                   15.08734603
 Virial quotient                       -3.77675692
 Correlation energy                    -0.24099231
 !MRCI STATE 6.1 Energy               -23.858161703524

 Properties without orbital relaxation:

 !MRCI STATE 6.1 Dipole moment          0.00000000     0.00000000     0.00000000
 Dipole moment /Debye                   0.00000000     0.00000000     0.00000000

 Cluster corrected energies           -23.88156906 (Davidson, fixed reference)
 Cluster corrected energies           -23.88077636 (Davidson, relaxed reference)
 Cluster corrected energies           -23.88156906 (Davidson, rotated reference)

 Cluster corrected energies           -23.87801269 (Pople, fixed reference)
 Cluster corrected energies           -23.87730260 (Pople, relaxed reference)
 Cluster corrected energies           -23.87801269 (Pople, rotated reference)



 RESULTS FOR STATE 7.1
 =====================

 Coefficient of reference function:   C(0) = 0.95473369 (fixed)   0.95764625 (relaxed)   0.95739210 (rotated)

 Energy contributions of configuration classes

 CLASS          SQ.NORM        ECORR1        ECORR2
 +++++++++++++++++++++++++++++++++++++++++++++++++++
 Internals    0.00829755   -0.01280278   -0.01419606
 Singles      0.03427734   -0.06048760   -0.06283017
 Pairs        0.04841397   -0.16108743   -0.15808569
 Total        1.09098886   -0.23437782   -0.23511193
 +++++++++++++++++++++++++++++++++++++++++++++++++++


 Reference energy                     -23.57674993
 Nuclear energy                         0.00000000
 Kinetic energy                         6.17519009
 One electron energy                  -37.99230374
 Two electron energy                   14.18107593
 Virial quotient                       -3.85595058
 Correlation energy                    -0.23447788
 !MRCI STATE 7.1 Energy               -23.811227809939

 Properties without orbital relaxation:

 !MRCI STATE 7.1 Dipole moment          0.00000000     0.00000000     0.00000000
 Dipole moment /Debye                   0.00000000     0.00000000     0.00000000

 Cluster corrected energies           -23.83256269 (Davidson, fixed reference)
 Cluster corrected energies           -23.83242693 (Davidson, relaxed reference)
 Cluster corrected energies           -23.83256269 (Davidson, rotated reference)

 Cluster corrected energies           -23.82925463 (Pople, fixed reference)
 Cluster corrected energies           -23.82913370 (Pople, relaxed reference)
 Cluster corrected energies           -23.82925463 (Pople, rotated reference)



 **********************************************************************************************************************************
 DATASETS  * FILE   NREC   LENGTH (MB)   RECORD NAMES
              1      21       58.25       500      610      700      900      950      970     1000      129      960     1100   
                                          VAR    BASINP    GEOM    SYMINP    ZMAT    AOBASIS   BASIS     P2S    ABASIS      S 
                                         1400     1410     1420     1200     1210     1080     1700     1600     1650     1380   
                                           T        V       ECP      H0       H01     AOSYM    OPER      SMH    MOLCAS    JKOP   
                                         1700(1)
                                         OPER   

              2       6      142.68       700     1000      520     2100     2140     5101   
                                         GEOM     BASIS   MCVARS     RHF     MCSCF    MRCI   

 PROGRAMS   *        TOTAL        CI     MULTI   RHF-SCF       INT
 CPU TIMES  *       203.31    193.08      4.20      1.60      4.26
 REAL TIME  *       216.70 SEC
 DISK USED  *       201.04 MB (local),        1.64 GB (total)
 SF USED    *         1.41 GB
 GA USED    *         0.00 MB       (max)       0.00 MB       (current)
 **********************************************************************************************************************************
 SETTING HLSDIAG(1)     =       -23.95898105  AU                              
 SETTING HLSDIAG(2)     =       -23.88156909  AU                              
 SETTING HLSDIAG(3)     =       -23.88156908  AU                              
 SETTING HLSDIAG(4)     =       -23.88156908  AU                              
 SETTING HLSDIAG(5)     =       -23.88156907  AU                              
 SETTING HLSDIAG(6)     =       -23.88156906  AU                              
 SETTING HLSDIAG(7)     =       -23.83256269  AU                              


 PROGRAM * CI (Multireference internally contracted CI)     Authors: H.-J. Werner, P.J. Knowles, 1987


 Convergence thresholds:  THRVAR = 1.00D-08  THRDEN = 1.00D-06

[...]
 44  1     5    1  |1 1>-         0.00%    0.00%    0.00%    0.00%    0.00%    0.00%    0.00%    0.00%
 45  1     6    1  |1 1>-         0.00%    0.00%    0.00%    0.00%    0.00%    0.00%    0.00%    0.00%
 46  1     7    1  |1 1>-         0.00%    0.00%    0.00%   23.83%    0.00%    0.00%   28.05%    0.00%
 47  1     8    1  |1 1>-         0.00%    0.00%   36.43%    0.00%    0.00%    0.00%    0.00%    0.00%
 48  1     9    1  |1 1>-         0.00%   34.90%    0.00%    0.00%    0.00%    0.05%    0.00%    0.00%
 49  1    10    1  |1 1>-         0.00%    0.00%    0.00%    0.00%   23.81%    0.00%    0.00%    0.81%
 50  1    11    1  |1 1>-         0.00%    0.00%    0.00%   14.28%    0.00%    0.00%   11.61%    0.00%
 51  1    12    1  |1 1>-         0.00%    0.00%    1.67%    0.00%    0.00%    0.00%    0.00%    0.00%
 52  1    13    1  |1 1>-         0.00%    3.20%    0.00%    0.00%    0.00%   28.51%    0.00%    0.00%
 53  1    14    1  |1 1>-         0.00%    0.00%    0.00%    0.00%    0.00%    0.00%    0.00%    0.00%
 54  1    15    1  |1 1>-         0.00%    0.00%    0.00%    0.00%    0.00%    0.00%    0.00%    0.00%
 55  1    16    1  |1 1>-         0.47%    0.00%    0.00%    0.00%    0.00%    0.00%    0.00%    0.00%

   Total
 Nr Sym  State Sym Spin / Nr.     33       34       35       36       37       38       39       40

  1  1     1    1  |0 0>          0.00%    0.00%    0.00%    0.00%    0.00%    0.04%    0.00%    0.00%
  2  1     2    1  |0 0>          0.00%    0.00%    0.00%    0.00%    0.00%    0.00%    0.00%    0.00%
  3  1     3    1  |0 0>          0.00%    0.00%    0.00%    0.00%    0.00%    0.00%    0.00%    0.00%
  4  1     4    1  |0 0>          0.00%    0.00%    0.00%    0.00%    0.00%    0.00%    0.00%    0.00%
  5  1     5    1  |0 0>          0.00%    0.00%    0.00%    0.00%    0.00%    0.00%    0.00%    0.00%
  6  1     6    1  |0 0>          0.00%    0.00%    0.00%    0.00%    0.00%    0.00%    0.00%    0.00%
  7  1     7    1  |0 0>          0.00%    0.00%    0.00%    0.00%    0.00%    1.40%    0.00%    0.00%
  8  1     1    1  |1 1>+         0.00%    0.00%    0.00%    0.00%    0.00%    0.00%    0.00%    0.00%
  9  1     2    1  |1 1>+         0.00%    0.00%    0.00%    0.00%    0.00%    0.00%    0.00%    0.00%
 10  1     3    1  |1 1>+         0.00%    0.00%    0.00%    0.00%    0.00%    0.00%    0.00%    0.00%
 11  1     4    1  |1 1>+         0.00%    0.00%    0.00%    0.00%    0.00%    0.00%    0.00%    0.00%
 12  1     5    1  |1 1>+         0.00%    0.00%    0.00%    0.00%    0.00%    0.00%    0.00%    0.00%
 13  1     6    1  |1 1>+         0.00%    0.00%    0.00%    0.00%    0.00%    0.00%    0.00%    0.00%
 14  1     7    1  |1 1>+         0.00%    0.00%    5.28%    0.00%    0.00%    0.00%    0.00%    0.00%
 15  1     8    1  |1 1>+        13.84%    0.00%    0.00%    0.00%    0.00%    0.00%   49.37%    0.00%
 16  1     9    1  |1 1>+         0.00%    0.00%    0.00%    0.08%   11.17%    0.00%    0.00%   49.92%
 17  1    10    1  |1 1>+         0.00%   32.51%    0.00%    0.00%    0.00%    0.00%    0.00%    0.00%
 18  1    11    1  |1 1>+         0.00%    0.00%   38.39%    0.00%    0.00%    0.00%    0.00%    0.00%
 19  1    12    1  |1 1>+        19.47%    0.00%    0.00%    0.00%    0.00%    0.00%    0.44%    0.00%
 20  1    13    1  |1 1>+         0.00%    0.00%    0.00%   50.08%   21.98%    0.00%    0.00%    0.09%
 21  1    14    1  |1 1>+         0.00%    0.00%    0.00%    0.00%    0.00%    0.00%    0.00%    0.00%
 22  1    15    1  |1 1>+         0.00%    0.00%    0.00%    0.00%    0.00%   32.86%    0.00%    0.00%
 23  1    16    1  |1 1>+         0.00%    0.00%    0.00%    0.00%    0.00%    0.00%    0.00%    0.00%
 24  1     1    1  |1 0>          0.00%    0.00%    0.00%    0.00%    0.00%    0.00%    0.00%    0.00%
 25  1     2    1  |1 0>          0.00%    0.00%    0.00%    0.00%    0.00%    0.00%    0.00%    0.00%
 26  1     3    1  |1 0>          0.00%    0.00%    0.00%    0.00%    0.00%    0.00%    0.00%    0.00%
 27  1     4    1  |1 0>          0.00%    0.00%    0.00%    0.00%    0.00%    0.00%    0.00%    0.00%
 28  1     5    1  |1 0>          0.00%    0.00%    0.00%    0.00%    0.00%    0.00%    0.00%    0.00%
 29  1     6    1  |1 0>          0.00%    0.00%    0.00%    0.00%    0.00%    0.00%    0.00%    0.00%
 30  1     7    1  |1 0>         33.36%    0.00%    0.00%    0.00%    0.00%    0.00%    0.00%    0.00%
 31  1     8    1  |1 0>          0.00%    0.00%   16.52%    0.00%    0.00%    0.00%    0.00%    0.00%
 32  1     9    1  |1 0>          0.00%   16.53%    0.00%    0.00%    0.00%    0.00%    0.00%    0.00%
 33  1    10    1  |1 0>          0.00%    0.00%    0.00%    0.00%   33.36%    0.00%    0.00%    0.00%
 34  1    11    1  |1 0>          0.00%    0.00%    0.00%    0.00%    0.00%    0.00%    0.37%    0.00%
 35  1    12    1  |1 0>          0.00%    0.00%    7.30%    0.00%    0.00%    0.00%    0.00%    0.00%
 36  1    13    1  |1 0>          0.00%    7.30%    0.00%    0.00%    0.00%    0.00%    0.00%    0.00%
 37  1    14    1  |1 0>          0.00%    0.00%    0.00%    0.00%    0.00%   32.85%    0.00%    0.00%
 38  1    15    1  |1 0>          0.00%    0.00%    0.00%    0.00%    0.00%    0.00%    0.00%    0.00%
 39  1    16    1  |1 0>          0.00%    0.00%    0.00%    0.00%    0.00%    0.00%    0.00%    0.00%
 40  1     1    1  |1 1>-         0.00%    0.00%    0.00%    0.00%    0.00%    0.00%    0.00%    0.00%
 41  1     2    1  |1 1>-         0.00%    0.00%    0.00%    0.00%    0.00%    0.00%    0.00%    0.00%
 42  1     3    1  |1 1>-         0.00%    0.00%    0.00%    0.00%    0.00%    0.00%    0.00%    0.00%
 43  1     4    1  |1 1>-         0.00%    0.00%    0.00%    0.00%    0.00%    0.00%    0.00%    0.00%
 44  1     5    1  |1 1>-         0.00%    0.00%    0.00%    0.00%    0.00%    0.00%    0.00%    0.00%
 45  1     6    1  |1 1>-         0.00%    0.00%    0.00%    0.00%    0.00%    0.00%    0.00%    0.00%
 46  1     7    1  |1 1>-         0.00%    5.27%    0.00%    0.00%    0.00%    0.00%    0.00%    0.00%
 47  1     8    1  |1 1>-         0.00%    0.00%    0.00%    0.09%   11.16%    0.00%    0.00%   49.91%
 48  1     9    1  |1 1>-        13.84%    0.00%    0.00%    0.00%    0.00%    0.00%   49.37%    0.00%
 49  1    10    1  |1 1>-         0.00%    0.00%   32.51%    0.00%    0.00%    0.00%    0.00%    0.00%
 50  1    11    1  |1 1>-         0.00%   38.39%    0.00%    0.00%    0.00%    0.00%    0.00%    0.00%
 51  1    12    1  |1 1>-         0.00%    0.00%    0.00%   49.74%   22.32%    0.00%    0.00%    0.09%
 52  1    13    1  |1 1>-        19.47%    0.00%    0.00%    0.00%    0.00%    0.00%    0.44%    0.00%
 53  1    14    1  |1 1>-         0.00%    0.00%    0.00%    0.00%    0.00%    0.00%    0.00%    0.00%
 54  1    15    1  |1 1>-         0.00%    0.00%    0.00%    0.00%    0.00%    0.00%    0.00%    0.00%
 55  1    16    1  |1 1>-         0.00%    0.00%    0.00%    0.00%    0.00%   32.85%    0.00%    0.00%

   Total
 Nr Sym  State Sym Spin / Nr.     41       42       43       44       45       46       47       48

  1  1     1    1  |0 0>          0.00%    0.00%    0.00%    0.00%    0.00%    0.00%    0.00%    0.00%
  2  1     2    1  |0 0>          0.00%    0.00%    0.00%    0.00%    0.00%    0.00%    0.00%    0.00%
  3  1     3    1  |0 0>          0.00%    0.00%    0.00%    0.00%    0.00%    0.00%    0.00%    0.00%
  4  1     4    1  |0 0>          0.00%    0.00%    0.00%    0.00%    0.00%    0.00%    0.00%    0.00%
  5  1     5    1  |0 0>          0.00%    0.00%    0.00%    0.00%    0.00%    0.00%    0.00%    0.00%
  6  1     6    1  |0 0>          0.00%    0.00%    0.00%    0.00%    0.00%    0.00%    0.00%    0.00%
  7  1     7    1  |0 0>          0.00%    0.00%    0.00%    0.00%    0.00%    0.00%    0.00%    0.00%
  8  1     1    1  |1 1>+         0.00%    0.00%    0.00%    0.00%    0.00%    0.00%    0.00%    0.00%
  9  1     2    1  |1 1>+         0.00%    0.00%    0.00%    0.00%    0.00%    0.00%    0.00%    0.00%
 10  1     3    1  |1 1>+         0.00%    0.00%    0.00%    0.00%    0.00%    0.00%    0.00%    0.00%
 11  1     4    1  |1 1>+         0.00%    0.00%    0.00%    0.00%    0.00%    0.00%    0.00%    0.00%
 12  1     5    1  |1 1>+         0.00%    0.00%    0.00%    0.00%    0.00%    0.00%    0.00%    0.00%
 13  1     6    1  |1 1>+         0.00%    0.00%    0.00%    0.00%    0.00%    0.00%    0.00%    0.00%
 14  1     7    1  |1 1>+         0.00%   41.10%    0.00%    0.00%    0.00%    1.75%    0.00%    0.00%
 15  1     8    1  |1 1>+         0.00%    0.00%    1.25%    0.00%    0.00%    0.00%    0.58%    0.00%
 16  1     9    1  |1 1>+         0.00%    0.00%    0.00%    2.39%    0.00%    0.00%    0.00%    0.00%
 17  1    10    1  |1 1>+        32.32%    0.00%    0.00%    0.00%   10.55%    0.00%    0.00%    0.00%
 18  1    11    1  |1 1>+         0.00%    0.88%    0.00%    0.00%    0.00%   34.84%    0.00%    0.00%
 19  1    12    1  |1 1>+         0.00%    0.00%   27.30%    0.00%    0.00%    0.00%   21.06%    0.00%
 20  1    13    1  |1 1>+         0.00%    0.00%    0.00%   26.18%    0.00%    0.00%    0.00%    0.00%
 21  1    14    1  |1 1>+         0.00%    0.00%    0.00%    0.00%    0.00%    0.00%    0.00%   49.98%
 22  1    15    1  |1 1>+         0.00%    0.00%    0.00%    0.00%    0.00%    0.00%    0.00%    0.00%
 23  1    16    1  |1 1>+         0.00%    0.00%    0.00%    0.00%    0.00%    0.00%    0.00%    0.00%
 24  1     1    1  |1 0>          0.00%    0.00%    0.00%    0.00%    0.00%    0.00%    0.00%    0.00%
 25  1     2    1  |1 0>          0.00%    0.00%    0.00%    0.00%    0.00%    0.00%    0.00%    0.00%
 26  1     3    1  |1 0>          0.00%    0.00%    0.00%    0.00%    0.00%    0.00%    0.00%    0.00%
 27  1     4    1  |1 0>          0.00%    0.00%    0.00%    0.00%    0.00%    0.00%    0.00%    0.00%
 28  1     5    1  |1 0>          0.00%    0.00%    0.00%    0.00%    0.00%    0.00%    0.00%    0.00%
 29  1     6    1  |1 0>          0.00%    0.00%    0.00%    0.00%    0.00%    0.00%    0.00%    0.00%
 30  1     7    1  |1 0>          0.00%    0.00%   42.83%    0.00%    0.00%    0.00%    0.00%    0.00%
 31  1     8    1  |1 0>          0.00%   23.86%    0.00%    0.00%    0.00%    1.17%    0.00%    0.00%
 32  1     9    1  |1 0>         23.86%    0.00%    0.00%    0.00%    1.18%    0.00%    0.00%    0.00%
 33  1    10    1  |1 0>          0.00%    0.00%    0.00%   42.85%    0.00%    0.00%    0.00%    0.00%
 34  1    11    1  |1 0>          0.00%    0.00%    0.00%    0.00%    0.00%    0.00%   56.77%    0.00%
 35  1    12    1  |1 0>          0.00%    1.83%    0.00%    0.00%    0.00%   51.69%    0.00%    0.00%
 36  1    13    1  |1 0>          1.84%    0.00%    0.00%    0.00%   51.69%    0.00%    0.00%    0.00%
 37  1    14    1  |1 0>          0.00%    0.00%    0.00%    0.00%    0.00%    0.00%    0.00%    0.00%
 38  1    15    1  |1 0>          0.00%    0.00%    0.00%    0.00%    0.00%    0.00%    0.00%   49.98%
 39  1    16    1  |1 0>          0.00%    0.00%    0.00%    0.00%    0.00%    0.00%    0.00%    0.00%
 40  1     1    1  |1 1>-         0.00%    0.00%    0.00%    0.00%    0.00%    0.00%    0.00%    0.00%
 41  1     2    1  |1 1>-         0.00%    0.00%    0.00%    0.00%    0.00%    0.00%    0.00%    0.00%
 42  1     3    1  |1 1>-         0.00%    0.00%    0.00%    0.00%    0.00%    0.00%    0.00%    0.00%
 43  1     4    1  |1 1>-         0.00%    0.00%    0.00%    0.00%    0.00%    0.00%    0.00%    0.00%
 44  1     5    1  |1 1>-         0.00%    0.00%    0.00%    0.00%    0.00%    0.00%    0.00%    0.00%
 45  1     6    1  |1 1>-         0.00%    0.00%    0.00%    0.00%    0.00%    0.00%    0.00%    0.04%
 46  1     7    1  |1 1>-        41.10%    0.00%    0.00%    0.00%    1.75%    0.00%    0.00%    0.00%
 47  1     8    1  |1 1>-         0.00%    0.00%    0.00%    2.40%    0.00%    0.00%    0.00%    0.00%
 48  1     9    1  |1 1>-         0.00%    0.00%    1.26%    0.00%    0.00%    0.00%    0.58%    0.00%
 49  1    10    1  |1 1>-         0.00%   32.33%    0.00%    0.00%    0.00%   10.54%    0.00%    0.00%
 50  1    11    1  |1 1>-         0.88%    0.00%    0.00%    0.00%   34.84%    0.00%    0.00%    0.00%
 51  1    12    1  |1 1>-         0.00%    0.00%    0.00%   26.18%    0.00%    0.00%    0.00%    0.00%
 52  1    13    1  |1 1>-         0.00%    0.00%   27.35%    0.00%    0.00%    0.00%   21.01%    0.00%
 53  1    14    1  |1 1>-         0.00%    0.00%    0.00%    0.00%    0.00%    0.00%    0.00%    0.00%
 54  1    15    1  |1 1>-         0.00%    0.00%    0.00%    0.00%    0.00%    0.00%    0.00%    0.00%
 55  1    16    1  |1 1>-         0.00%    0.00%    0.00%    0.00%    0.00%    0.00%    0.00%    0.00%

   Total
 Nr Sym  State Sym Spin / Nr.     49       50       51       52       53       54       55

  1  1     1    1  |0 0>          0.00%    0.00%    0.00%    0.00%    0.00%    0.00%    0.00%
  2  1     2    1  |0 0>          0.00%    0.00%    0.04%    0.00%    0.00%    0.00%    0.02%
  3  1     3    1  |0 0>          0.00%    0.00%    0.02%    0.00%    0.00%    0.00%    0.04%
  4  1     4    1  |0 0>          0.00%    0.00%    0.00%    0.00%    0.05%    0.00%    0.00%
  5  1     5    1  |0 0>          0.00%    0.00%    0.00%    0.05%    0.00%    0.00%    0.00%
  6  1     6    1  |0 0>          0.00%    0.00%    0.00%    0.00%    0.00%    0.05%    0.00%
  7  1     7    1  |0 0>          0.00%    0.00%    0.00%    0.00%    0.00%    0.00%    0.00%
  8  1     1    1  |1 1>+         0.00%    0.00%    0.00%    0.00%    0.00%    0.00%    0.00%
  9  1     2    1  |1 1>+         0.00%    0.00%    0.00%    0.00%    0.00%    0.00%    0.00%
 10  1     3    1  |1 1>+         0.00%    0.00%    0.00%    0.00%    0.00%    0.00%    0.00%
 11  1     4    1  |1 1>+         0.00%    0.00%    0.00%    0.00%    0.00%    0.00%    0.00%
 12  1     5    1  |1 1>+         0.00%    0.00%    0.00%    0.00%    0.00%    0.00%    0.00%
 13  1     6    1  |1 1>+         0.00%    0.04%    0.00%    0.00%    0.00%    0.00%    0.00%
 14  1     7    1  |1 1>+         0.00%    0.00%    0.00%    0.00%    0.00%    0.00%    0.00%
 15  1     8    1  |1 1>+         0.00%    0.00%    0.00%    0.00%    0.00%    0.00%    0.00%
 16  1     9    1  |1 1>+         0.00%    0.00%    0.00%    0.00%    0.00%    0.00%    0.00%
 17  1    10    1  |1 1>+         0.00%    0.00%    0.00%    0.00%    0.00%    0.00%    0.00%
 18  1    11    1  |1 1>+         0.00%    0.00%    0.00%    0.00%    0.00%    0.00%    0.00%
 19  1    12    1  |1 1>+         0.00%    0.00%    0.00%    0.00%    0.00%    0.00%    0.00%
 20  1    13    1  |1 1>+         0.00%    0.00%    0.00%    0.00%    0.00%    0.00%    0.00%
 21  1    14    1  |1 1>+         0.00%    0.00%    0.00%   49.97%    0.00%    0.00%    0.00%
 22  1    15    1  |1 1>+         0.00%    0.00%   55.13%    0.00%    0.00%    0.00%   11.50%
 23  1    16    1  |1 1>+        49.97%    0.00%    0.00%    0.00%   49.98%    0.00%    0.00%
 24  1     1    1  |1 0>          0.00%    0.00%    0.00%    0.00%    0.00%    0.00%    0.00%
 25  1     2    1  |1 0>          0.00%    0.00%    0.00%    0.00%    0.00%    0.00%    0.00%
 26  1     3    1  |1 0>          0.00%    0.00%    0.00%    0.00%    0.00%    0.00%    0.00%
 27  1     4    1  |1 0>          0.00%    0.00%    0.00%    0.00%    0.00%    0.00%    0.00%
 28  1     5    1  |1 0>          0.00%    0.00%    0.00%    0.00%    0.00%    0.00%    0.00%
 29  1     6    1  |1 0>          0.04%    0.00%    0.00%    0.00%    0.00%    0.00%    0.00%
 30  1     7    1  |1 0>          0.00%    0.00%    0.00%    0.00%    0.00%    0.00%    0.00%
 31  1     8    1  |1 0>          0.00%    0.00%    0.00%    0.00%    0.00%    0.00%    0.00%
 32  1     9    1  |1 0>          0.00%    0.00%    0.00%    0.00%    0.00%    0.00%    0.00%
 33  1    10    1  |1 0>          0.00%    0.00%    0.00%    0.00%    0.00%    0.00%    0.00%
 34  1    11    1  |1 0>          0.00%    0.00%    0.00%    0.00%    0.00%    0.00%    0.00%
 35  1    12    1  |1 0>          0.00%    0.00%    0.00%    0.00%    0.00%    0.00%    0.00%
 36  1    13    1  |1 0>          0.00%    0.00%    0.00%    0.00%    0.00%    0.00%    0.00%
 37  1    14    1  |1 0>          0.00%    0.00%   44.21%    0.00%    0.00%    0.00%   22.42%
 38  1    15    1  |1 0>          0.00%    0.00%    0.00%   49.97%    0.00%    0.00%    0.00%
 39  1    16    1  |1 0>          0.00%   49.97%    0.00%    0.00%    0.00%   49.98%    0.00%
 40  1     1    1  |1 1>-         0.00%    0.00%    0.00%    0.00%    0.00%    0.00%    0.00%
 41  1     2    1  |1 1>-         0.00%    0.00%    0.00%    0.00%    0.00%    0.00%    0.00%
 42  1     3    1  |1 1>-         0.00%    0.00%    0.00%    0.00%    0.00%    0.00%    0.00%
 43  1     4    1  |1 1>-         0.00%    0.00%    0.00%    0.00%    0.00%    0.00%    0.00%
 44  1     5    1  |1 1>-         0.00%    0.00%    0.00%    0.00%    0.00%    0.00%    0.00%
 45  1     6    1  |1 1>-         0.00%    0.00%    0.00%    0.00%    0.00%    0.00%    0.00%
 46  1     7    1  |1 1>-         0.00%    0.00%    0.00%    0.00%    0.00%    0.00%    0.00%
 47  1     8    1  |1 1>-         0.00%    0.00%    0.00%    0.00%    0.00%    0.00%    0.00%
 48  1     9    1  |1 1>-         0.00%    0.00%    0.00%    0.00%    0.00%    0.00%    0.00%
 49  1    10    1  |1 1>-         0.00%    0.00%    0.00%    0.00%    0.00%    0.00%    0.00%
 50  1    11    1  |1 1>-         0.00%    0.00%    0.00%    0.00%    0.00%    0.00%    0.00%
 51  1    12    1  |1 1>-         0.00%    0.00%    0.00%    0.00%    0.00%    0.00%    0.00%
 52  1    13    1  |1 1>-         0.00%    0.00%    0.00%    0.00%    0.00%    0.00%    0.00%
 53  1    14    1  |1 1>-         0.00%   49.98%    0.00%    0.00%    0.00%   49.97%    0.00%
 54  1    15    1  |1 1>-        49.98%    0.00%    0.00%    0.00%   49.97%    0.00%    0.00%
 55  1    16    1  |1 1>-         0.00%    0.00%    0.60%    0.00%    0.00%    0.00%   66.03%



 **********************************************************************************************************************************
 DATASETS  * FILE   NREC   LENGTH (MB)   RECORD NAMES
              1      21       58.25       500      610      700      900      950      970     1000      129      960     1100   
                                          VAR    BASINP    GEOM    SYMINP    ZMAT    AOBASIS   BASIS     P2S    ABASIS      S 
                                         1400     1410     1420     1200     1210     1080     1700     1600     1650     1380   
                                           T        V       ECP      H0       H01     AOSYM    OPER      SMH    MOLCAS    JKOP   
                                         1700(1)
                                         OPER   

              2       7      674.91       700     1000      520     2100     2140     5101     5103   
                                         GEOM     BASIS   MCVARS     RHF     MCSCF    MRCI     MRCI   

 PROGRAMS   *        TOTAL        CI        CI        CI     MULTI   RHF-SCF       INT
 CPU TIMES  *      2402.69   1350.89    848.47    193.08      4.20      1.60      4.26
 REAL TIME  *      2553.81 SEC
 DISK USED  *       733.26 MB (local),        4.76 GB (total)
 SF USED    *         5.19 GB
 GA USED    *         0.00 MB       (max)       0.00 MB       (current)
 **********************************************************************************************************************************

 CI/aug-cc-pWCV5Z-PP energy=    -23.810963716164

              CI              CI           MULTI         RHF-SCF
    -23.79320884    -23.81122781    -23.55374278    -23.68007621
 **********************************************************************************************************************************
 Molpro calculation terminated with 1 warning(s)
