
 Working directory              : /wrk/irikura/molpro.SeJXHXX5Bz/
 Global scratch directory       : /wrk/irikura/molpro.SeJXHXX5Bz/
 Wavefunction directory         : /home/irikura/wfu/
 Main file repository           : /wrk/irikura/molpro.SeJXHXX5Bz/

 id        : nistki

 Nodes            nprocs
 pn125343.nist.gov    6
 GA implementation: MPI file
 GA implementation (serial work in mppx): MPI file

 Using customized tuning parameters: mindgm=1; mindgv=20; mindgc=4; mindgr=1; noblas=0; minvec=7
 default implementation of scratch files=sf  


 Variables initialized (1042), CPU time= 0.01 sec
 ***,Ra SO-CI
 memory,8,G
 
 gprint,orbitals,civector;
 
 symmetry,xyz
 geometry={Ra};
 
 basis=aug-cc-pwCVTZ-PP
 
 {rhf,so-sci;wf,sym=1,spin=0}
 
 NSING=7
 NTRIP=16
 
                                                                                 ! active space (2/10) as orbitals [7 3]
 {multi
     closed,1,3
     occ,8,6
     wf,sym=1,spin=0;state,NSING;
     wf,sym=1,spin=2;state,NTRIP;
     expec2,lxx,lyy,lzz;
 }
 table, energy, ll
 title, Energies and &lt;L**2&gt; values
 
 core,0,0
 {ci;wf,sym=1,spin=0;state,NSING; save,5101.2}
 hlsdiag = energd4
 {ci;wf,sym=1,spin=2;state,NTRIP; save,5103.2}
 hlsdiag(NSING+1) = energd4
 
 table,hlsdiag
 
 {ci;hlsmat,ecp,5101.2,5103.2;print,vls=0,hls=0}                                 !compute and diagonalize SO matrix
 Commands initialized (847), CPU time= 0.01 sec, 718 directives.
 Default parameters read. Elapsed time= 0.10 sec

 Checking input...
 Passed
1


                                         ***  PROGRAM SYSTEM MOLPRO  ***
                                       Copyright, TTI GmbH Stuttgart, 2015
                                    Version 2024.1 linked Wed Jan 31 05:42:09 2024


 **********************************************************************************************************************************
 LABEL *   Ra SO-CI                                                                                                                                                      
  (64 PROC) 64 bit mpp version                                                           DATE: 08-May-24          TIME: 11:04:01  
 **********************************************************************************************************************************

 SHA1:             675817fde4514a4a933b69e420913a90cee4ef91
 **********************************************************************************************************************************

 Memory per process:      8000 MW
 Total memory per node:  48000 MW

 GA preallocation disabled
 GA check disabled

 Variable memory set to 8000.0 MW


 ZSYMEL=XYZ

 SETTING BASIS          =    AUG-CC-PWCVTZ-PP


 Recomputing integrals since basis changed


 Using spherical harmonics

 Library entry Ra   ECP ECP78MDF                 selected for group  1
 Library entry RA     S aug-cc-pwCVTZ-PP     selected for orbital group  1
 Library entry RA     P aug-cc-pwCVTZ-PP     selected for orbital group  1
 Library entry RA     D aug-cc-pwCVTZ-PP     selected for orbital group  1
 Library entry RA     F aug-cc-pwCVTZ-PP     selected for orbital group  1


 PROGRAM * SEWARD (Integral evaluation for generally contracted gaussian basis sets)     Author: Roland Lindh, 1990

 Geometry written to block  1 of record 700

 Orientation using atomic masses  
 Molecule type: Atom
 User-specified symmetry elements: XYZ
 Symmetry elements: XYZ
 Rotational constants:       0.0000000      0.0000000      0.0000000 GHz  (calculated with average atomic masses)

 Point group  Ci  



 ATOMIC COORDINATES

 NR  ATOM    CHARGE       X              Y              Z

   1  RA     10.00    0.000000000    0.000000000    0.000000000

 NUCLEAR CHARGE:                   10
 NUMBER OF PRIMITIVE AOS:         147
 NUMBER OF SYMMETRY AOS:          124
 NUMBER OF CONTRACTIONS:           87   (   38Ag  +   49Au  )
 NUMBER OF INNER CORE ORBITALS:     0   (    0Ag  +    0Au  )
 NUMBER OF OUTER CORE ORBITALS:     4   (    1Ag  +    3Au  )
 NUMBER OF VALENCE ORBITALS:        1   (    1Ag  +    0Au  )


 LX: Ag           LY: Ag           LZ: Ag 


 NUCLEAR REPULSION ENERGY    0.00000000

 EXTRA SYMMETRY OF AOS IN SYMMETRY 1:   1 1 1 1 1 1 1 1 2 3   4 5 6 2 3 4 5 6 2 3   4 5 6 2 3 4 5 6 2 3   4 5 6 2 3 4 5 6
 EXTRA SYMMETRY OF AOS IN SYMMETRY 2:   1 2 3 1 2 3 1 2 3 1   2 3 1 2 3 1 2 3 1 2   3 4 5 6 7 8 910 4 5   6 7 8 910 4 5 6 7 8
                                        910 4 5 6 7 8 910


 Eigenvalues of metric

         1 0.182E-04 0.135E-02 0.135E-02 0.135E-02 0.135E-02 0.135E-02 0.174E-02 0.866E-02
         2 0.436E-02 0.436E-02 0.436E-02 0.234E-01 0.234E-01 0.234E-01 0.101E+00 0.101E+00


 Contracted 2-electron integrals neglected if value below      1.0D-12
 AO integral compression algorithm  1   Integral accuracy      1.0D-12

     12.583 MB (compressed) written to integral file ( 18.0%)

     Node minimum: 1.573 MB, node maximum: 2.884 MB


 NUMBER OF SORTED TWO-ELECTRON INTEGRALS:     624708.     BUFFER LENGTH:  32768
 NUMBER OF SEGMENTS:   1  SEGMENT LENGTH:     624708      RECORD LENGTH: 524288

 Memory used in sort:       1.18 MW

 SORT1 READ     8662933. AND WROTE      128226. INTEGRALS IN      1 RECORDS. CPU TIME:     0.04 SEC, REAL TIME:     0.04 SEC
 SORT2 READ      777925. AND WROTE     3749011. INTEGRALS IN     66 RECORDS. CPU TIME:     0.02 SEC, REAL TIME:     0.03 SEC

 Node minimum:      624054.  Node maximum:      627260. integrals

 OPERATOR DM      FOR CENTER  0  COORDINATES:    0.000000    0.000000    0.000000


 **********************************************************************************************************************************
 DATASETS  * FILE   NREC   LENGTH (MB)   RECORD NAMES
              1      19       28.80       500      610      700      900      950      970     1000      129      960     1100   
                                          VAR    BASINP    GEOM    SYMINP    ZMAT    AOBASIS   BASIS     P2S    ABASIS      S 
                                         1400     1410     1420     1200     1210     1080     1700     1600     1650   
                                           T        V       ECP      H0       H01     AOSYM    OPER      SMH    MOLCAS    

 PROGRAMS   *        TOTAL       INT
 CPU TIMES  *         1.10      0.93
 REAL TIME  *         3.86 SEC
 DISK USED  *        29.13 MB (local),      204.12 MB (total)
 GA USED    *         0.00 MB       (max)       0.00 MB       (current)
 **********************************************************************************************************************************


 Program * Restricted Hartree-Fock

 Orbital guess generated from atomic densities.

 Initial occupancy:   2   3
 
 SO-SCI SOLVER WITH NELEC=10 SYM=1 MS2=0 THRE=1.0D-08 THRG=3.2D-06
 
 Authors: D.A. Kreplin, H.-J. Werner (2022)
 
 Number of closed-shell orbitals:                 4   (    1    3)
 Number of doubly occupied active orbitals:       1   (    1    0)
 Number of non-occupied active orbitals:          3   (    0    3)
 Number of virtual orbitals:                     79   (   36   43)
 
 ITER.  MIC  NCI          ENERGY    ENERGY CHANGE          GRAD      ORB GRAD        CI RES  NQN        STEP      TIME
    1    1    0     -23.68006921     -23.68006921    0.00086685    0.00086685    0.00000000    0    0.69E-03      0.03
    2    1    0     -23.68006960      -0.00000039    0.00017362    0.00017362    0.00000000    0    0.12E-03      0.07
    3    1    0     -23.68006961      -0.00000001    0.00002835    0.00002835    0.00000000    1    0.15E-04      0.10

 CONVERGENCE REACHED!  Final gradient:     0.00000299 ( 0.30E-05)
                       Final energy:     -23.68006961
 

 Final occupancy:   2   3

 !RHF STATE 1.1 Energy                -23.680069609315
  RHF One-electron energy             -39.023974110299
  RHF Two-electron energy              15.343904500984
  RHF Kinetic energy                    6.017192448461
  RHF Nuclear energy                    0.000000000000
  RHF Virial quotient                  -3.935401736298

 !RHF STATE 1.1 Dipole moment           0.00000000     0.00000000     0.00000000
 Dipole moment /Debye                   0.00000000     0.00000000     0.00000000

 ELECTRON ORBITALS
 =================

  Orbital  Occupation    Energy    Cen Mu Typ  Coefficients
    1.1     2.00000    -1.58866     1  1  s    0.99992
    2.1     2.00000    -0.16545     1  2  s    0.99971
    1.2     2.00000    -0.80466     1  1  pz   0.99687
    2.2     2.00000    -0.80466     1  1  px   0.95943    1  1  py  -0.28110
    3.2     2.00000    -0.80466     1  1  px   0.28127    1  1  py   0.95645


 HOMO      2.1    -0.165446 =      -4.5020eV
 LUMO      4.2     0.008657 =       0.2356eV
 LUMO-HOMO         0.174103 =       4.7376eV

 Orbitals saved in record  2100.2


 **********************************************************************************************************************************
 DATASETS  * FILE   NREC   LENGTH (MB)   RECORD NAMES
              1      19       28.80       500      610      700      900      950      970     1000      129      960     1100   
                                          VAR    BASINP    GEOM    SYMINP    ZMAT    AOBASIS   BASIS     P2S    ABASIS      S 
                                         1400     1410     1420     1200     1210     1080     1700     1600     1650   
                                           T        V       ECP      H0       H01     AOSYM    OPER      SMH    MOLCAS    

              2       4        0.47       700     1000      520     2100   
                                         GEOM     BASIS   MCVARS     RHF  

 PROGRAMS   *        TOTAL   RHF-SCF       INT
 CPU TIMES  *         1.21      0.11      0.93
 REAL TIME  *         4.00 SEC
 DISK USED  *        29.85 MB (local),      208.44 MB (total)
 SF USED    *         2.01 MB
 GA USED    *         0.00 MB       (max)       0.00 MB       (current)
 **********************************************************************************************************************************
 SETTING NSING          =         7.00000000                                  
 SETTING NTRIP          =        16.00000000                                  

 PROGRAM * MULTI (Direct Multiconfiguration SCF)       Authors: P.J. Knowles, H.-J. Werner (1984)
                                                                D.A. Kreplin, P.J. Knowles, H.-J. Werner (2019)

 Number of closed-shell orbitals:   4 (    1    3)
 Number of active  orbitals:       10 (    7    3)
 Number of external orbitals:      73 (   30   43)

 State symmetry 1

 Number of active electrons:   2    Spin symmetry=Singlet   Space symmetry=1
 Number of states:             7
 Number of CSFs:              34   (58 determinants, 100 intermediate states)

 State symmetry 2

 Number of active electrons:   2    Spin symmetry=Triplet   Space symmetry=1
 Number of states:            16
 Number of CSFs:              24   (24 determinants, 45 intermediate states)

 Molecular orbitals read from record     2100.2  Type=RHF/CANONICAL (state 1.1)
 *** IN SYMMETRY 1 ORBITAL  4 SYMMETRY CONTAMINATION OF 0.225D+00 HAS BEEN REMOVED
 *** IN SYMMETRY 1 ORBITAL  5 SYMMETRY CONTAMINATION OF 0.127D+00 HAS BEEN REMOVED
 *** IN SYMMETRY 1 ORBITAL  6 SYMMETRY CONTAMINATION OF 0.255D+00 HAS BEEN REMOVED
 *** IN SYMMETRY 1 ORBITAL  7 SYMMETRY CONTAMINATION OF 0.257D+00 HAS BEEN REMOVED
 *** IN SYMMETRY 1 ORBITAL  8 SYMMETRY CONTAMINATION OF 0.173D-03 HAS BEEN REMOVED

 EXTRA SYMMETRY OF MOS IN SYMMETRY 1:   1 1 1 4 6 5 3 2 3 5   4 6 2 1 5 3 4 6 2 1   3 5 4 6 2 2 3 5 4 6   1 2 3 6 4 5 1 1
 *** IN SYMMETRY 2 ORBITAL  1 SYMMETRY CONTAMINATION OF 0.789D-01 HAS BEEN REMOVED
 *** IN SYMMETRY 2 ORBITAL  2 SYMMETRY CONTAMINATION OF 0.235D+00 HAS BEEN REMOVED
 *** IN SYMMETRY 2 ORBITAL  3 SYMMETRY CONTAMINATION OF 0.272D+00 HAS BEEN REMOVED
 *** IN SYMMETRY 2 ORBITAL  4 SYMMETRY CONTAMINATION OF 0.448D+00 HAS BEEN REMOVED
 *** IN SYMMETRY 2 ORBITAL  5 SYMMETRY CONTAMINATION OF 0.444D+00 HAS BEEN REMOVED
 *** IN SYMMETRY 2 ORBITAL  6 SYMMETRY CONTAMINATION OF 0.133D-01 HAS BEEN REMOVED
 EXTRA SYMMETRY OF MOS IN SYMMETRY 2:   3 1 2 3 2 1 1 2 3 2   1 3 9 7 810 4 5 6 3   2 1 5 4 7 9 6 810 4   5 7 9 6 810 2 1 3 5
                                        4 6 9 710 8 3 1 2

 Wavefunction dump at record             2140.2

 Convergence thresholds  0.10E-04 (gradient)  0.10E-05 (energy)

 Weight factors for state symmetry  1:    0.04348   0.04348   0.04348   0.04348   0.04348   0.04348   0.04348
 Weight factors for state symmetry  2:    0.04348   0.04348   0.04348   0.04348   0.04348   0.04348   0.04348   0.04348
                                          0.04348   0.04348   0.04348   0.04348   0.04348   0.04348   0.04348   0.04348
 
 Number of orbital rotations:  514  ( 16 closed/active, 159 closed/virtual, 0 active/active, 339 active/virtual )
 Total number of variables:    1304
 
 Second-order MCSCF: L-BFGS accelerated
 
 ITER  MIC  NCI  NEG     ENERGY(VAR)    ENERGY(PROJ) ENERGY CHANGE       GRAD(0)  GRAD(ORB)   GRAD(CI)      STEP      TIME
   1   16   30    6    -23.49033252     -23.60036657   -0.11003405    0.06347595 0.00011772 0.00000000  0.24E+01      0.39
   2    8   14    0    -23.58714309     -23.59251974   -0.00537665    0.04208331 0.00001317 0.00000000  0.46E+00      0.71
   3    8   14    0    -23.59254601     -23.59254750   -0.00000149    0.00056755 0.00000009 0.00000000  0.66E-02      1.02
   4    4    8    0    -23.59254750     -23.59254750   -0.00000000    0.00000059 0.00000000 0.00000000  0.80E-05      1.20

 CONVERGENCE REACHED!  Final gradient:    0.00000001 ( 0.61E-08)
                       Final energy:    -23.59254750
 
 Results for state 1.1 Singlet
 =============================
 !MCSCF STATE 1.1 Singlet Energy               -23.698519066268
 Nuclear energy                                  0.00000000
 Kinetic energy                                  5.99868467
 One electron energy                           -38.96637150
 Two electron energy                            15.26785243
 Virial ratio                                    4.95061924
 
 !MCSCF STATE 1.1 Singlet Dipole moment          0.00000000     0.00000000     0.00000000
 Dipole moment /Debye                            0.00000000     0.00000000     0.00000000
 
 Results for state 2.1 Singlet
 =============================
 !MCSCF STATE 2.1 Singlet Energy               -23.617130089528
 Nuclear energy                                  0.00000000
 Kinetic energy                                  6.09400239
 One electron energy                           -38.96285333
 Two electron energy                            15.34572324
 Virial ratio                                    4.87547109
 
 !MCSCF STATE 2.1 Singlet Dipole moment          0.00000000     0.00000000     0.00000000
 Dipole moment /Debye                            0.00000000     0.00000000     0.00000000
 
 Results for state 3.1 Singlet
 =============================
 !MCSCF STATE 3.1 Singlet Energy               -23.617130089525
 Nuclear energy                                  0.00000000
 Kinetic energy                                  6.09400239
 One electron energy                           -38.96285333
 Two electron energy                            15.34572324
 Virial ratio                                    4.87547109
 
 !MCSCF STATE 3.1 Singlet Dipole moment          0.00000000     0.00000000     0.00000000
 Dipole moment /Debye                            0.00000000     0.00000000     0.00000000
 
 Results for state 4.1 Singlet
 =============================
 !MCSCF STATE 4.1 Singlet Energy               -23.617130089525
 Nuclear energy                                  0.00000000
 Kinetic energy                                  6.09400239
 One electron energy                           -38.96285333
 Two electron energy                            15.34572324
 Virial ratio                                    4.87547109
 
 !MCSCF STATE 4.1 Singlet Dipole moment          0.00000000     0.00000000     0.00000000
 Dipole moment /Debye                            0.00000000     0.00000000     0.00000000
 
 Results for state 5.1 Singlet
 =============================
 !MCSCF STATE 5.1 Singlet Energy               -23.617130089523
 Nuclear energy                                  0.00000000
 Kinetic energy                                  6.09400239
 One electron energy                           -38.96285333
 Two electron energy                            15.34572324
 Virial ratio                                    4.87547109
 
 !MCSCF STATE 5.1 Singlet Dipole moment          0.00000000     0.00000000     0.00000000
 Dipole moment /Debye                            0.00000000     0.00000000     0.00000000
 
 Results for state 6.1 Singlet
 =============================
 !MCSCF STATE 6.1 Singlet Energy               -23.617130089522
 Nuclear energy                                  0.00000000
 Kinetic energy                                  6.09400239
 One electron energy                           -38.96285333
 Two electron energy                            15.34572324
 Virial ratio                                    4.87547109
 
 !MCSCF STATE 6.1 Singlet Dipole moment          0.00000000     0.00000000     0.00000000
 Dipole moment /Debye                            0.00000000     0.00000000     0.00000000
 
 Results for state 7.1 Singlet
 =============================
 !MCSCF STATE 7.1 Singlet Energy               -23.576002351934
 Nuclear energy                                  0.00000000
 Kinetic energy                                  5.94126846
 One electron energy                           -38.07891145
 Two electron energy                            14.50290910
 Virial ratio                                    4.96817658
 
 !MCSCF STATE 7.1 Singlet Dipole moment          0.00000000     0.00000000     0.00000000
 Dipole moment /Debye                            0.00000000     0.00000000     0.00000000
 
 Results for state 1.1 Triplet
 =============================
 !MCSCF STATE 1.1 Triplet Energy               -23.626545830391
 Nuclear energy                                  0.00000000
 Kinetic energy                                  6.11290129
 One electron energy                           -39.08684686
 Two electron energy                            15.46030103
 Virial ratio                                    4.86502983
 
 !MCSCF STATE 1.1 Triplet Dipole moment          0.00000000     0.00000000     0.00000000
 Dipole moment /Debye                            0.00000000     0.00000000     0.00000000
 
 Results for state 2.1 Triplet
 =============================
 !MCSCF STATE 2.1 Triplet Energy               -23.626545830390
 Nuclear energy                                  0.00000000
 Kinetic energy                                  6.11290129
 One electron energy                           -39.08684686
 Two electron energy                            15.46030103
 Virial ratio                                    4.86502983
 
 !MCSCF STATE 2.1 Triplet Dipole moment          0.00000000     0.00000000     0.00000000
 Dipole moment /Debye                            0.00000000     0.00000000     0.00000000
 
 Results for state 3.1 Triplet
 =============================
 !MCSCF STATE 3.1 Triplet Energy               -23.626545830389
 Nuclear energy                                  0.00000000
 Kinetic energy                                  6.11290129
 One electron energy                           -39.08684686
 Two electron energy                            15.46030103
 Virial ratio                                    4.86502983
 
 !MCSCF STATE 3.1 Triplet Dipole moment          0.00000000     0.00000000     0.00000000
 Dipole moment /Debye                            0.00000000     0.00000000     0.00000000
 
 Results for state 4.1 Triplet
 =============================
 !MCSCF STATE 4.1 Triplet Energy               -23.626545830380
 Nuclear energy                                  0.00000000
 Kinetic energy                                  6.11290129
 One electron energy                           -39.08684686
 Two electron energy                            15.46030103
 Virial ratio                                    4.86502983
 
 !MCSCF STATE 4.1 Triplet Dipole moment          0.00000000     0.00000000     0.00000000
 Dipole moment /Debye                            0.00000000     0.00000000     0.00000000
 
 Results for state 5.1 Triplet
 =============================
 !MCSCF STATE 5.1 Triplet Energy               -23.626545830375
 Nuclear energy                                  0.00000000
 Kinetic energy                                  6.11290129
 One electron energy                           -39.08684686
 Two electron energy                            15.46030103
 Virial ratio                                    4.86502983
 
 !MCSCF STATE 5.1 Triplet Dipole moment          0.00000000     0.00000000     0.00000000
 Dipole moment /Debye                            0.00000000     0.00000000     0.00000000
 
 Results for state 6.1 Triplet
 =============================
 !MCSCF STATE 6.1 Triplet Energy               -23.583387705683
 Nuclear energy                                  0.00000000
 Kinetic energy                                  5.88487892
 One electron energy                           -37.89556132
 Two electron energy                            14.31217361
 Virial ratio                                    5.00745504
 
 !MCSCF STATE 6.1 Triplet Dipole moment          0.00000000     0.00000000     0.00000000
 Dipole moment /Debye                            0.00000000     0.00000000     0.00000000
 
 Results for state 7.1 Triplet
 =============================
 !MCSCF STATE 7.1 Triplet Energy               -23.558866970217
 Nuclear energy                                  0.00000000
 Kinetic energy                                  6.10453951
 One electron energy                           -38.71438591
 Two electron energy                            15.15551894
 Virial ratio                                    4.85923737
 
 !MCSCF STATE 7.1 Triplet Dipole moment          0.00000000     0.00000000     0.00000000
 Dipole moment /Debye                            0.00000000     0.00000000     0.00000000
 
 Results for state 8.1 Triplet
 =============================
 !MCSCF STATE 8.1 Triplet Energy               -23.558866970196
 Nuclear energy                                  0.00000000
 Kinetic energy                                  6.10453951
 One electron energy                           -38.71438592
 Two electron energy                            15.15551895
 Virial ratio                                    4.85923737
 
 !MCSCF STATE 8.1 Triplet Dipole moment          0.00000000     0.00000000     0.00000000
 Dipole moment /Debye                            0.00000000     0.00000000     0.00000000
 
 Results for state 9.1 Triplet
 =============================
 !MCSCF STATE 9.1 Triplet Energy               -23.558866970194
 Nuclear energy                                  0.00000000
 Kinetic energy                                  6.10453951
 One electron energy                           -38.71438592
 Two electron energy                            15.15551895
 Virial ratio                                    4.85923737
 
 !MCSCF STATE 9.1 Triplet Dipole moment          0.00000000     0.00000000     0.00000000
 Dipole moment /Debye                            0.00000000     0.00000000     0.00000000
 
 Results for state 10.1 Triplet
 ==============================
 !MCSCF STATE 10.1 Triplet Energy              -23.553671852499
 Nuclear energy                                  0.00000000
 Kinetic energy                                  6.22578996
 One electron energy                           -39.15652839
 Two electron energy                            15.60285654
 Virial ratio                                    4.78324229
 
 !MCSCF STATE 10.1 Triplet Dipole moment         0.00000000     0.00000000     0.00000000
 Dipole moment /Debye                            0.00000000     0.00000000     0.00000000
 
 Results for state 11.1 Triplet
 ==============================
 !MCSCF STATE 11.1 Triplet Energy              -23.553671852497
 Nuclear energy                                  0.00000000
 Kinetic energy                                  6.22578996
 One electron energy                           -39.15652839
 Two electron energy                            15.60285653
 Virial ratio                                    4.78324229
 
 !MCSCF STATE 11.1 Triplet Dipole moment         0.00000000     0.00000000     0.00000000
 Dipole moment /Debye                            0.00000000     0.00000000     0.00000000
 
 Results for state 12.1 Triplet
 ==============================
 !MCSCF STATE 12.1 Triplet Energy              -23.553671852497
 Nuclear energy                                  0.00000000
 Kinetic energy                                  6.22578996
 One electron energy                           -39.15652839
 Two electron energy                            15.60285653
 Virial ratio                                    4.78324229
 
 !MCSCF STATE 12.1 Triplet Dipole moment         0.00000000     0.00000000     0.00000000
 Dipole moment /Debye                            0.00000000     0.00000000     0.00000000
 
 Results for state 13.1 Triplet
 ==============================
 !MCSCF STATE 13.1 Triplet Energy              -23.553671852496
 Nuclear energy                                  0.00000000
 Kinetic energy                                  6.22578996
 One electron energy                           -39.15652839
 Two electron energy                            15.60285653
 Virial ratio                                    4.78324229
 
 !MCSCF STATE 13.1 Triplet Dipole moment         0.00000000     0.00000000     0.00000000
 Dipole moment /Debye                            0.00000000     0.00000000     0.00000000
 
 Results for state 14.1 Triplet
 ==============================
 !MCSCF STATE 14.1 Triplet Energy              -23.553671852494
 Nuclear energy                                  0.00000000
 Kinetic energy                                  6.22578996
 One electron energy                           -39.15652839
 Two electron energy                            15.60285653
 Virial ratio                                    4.78324229
 
 !MCSCF STATE 14.1 Triplet Dipole moment         0.00000000     0.00000000     0.00000000
 Dipole moment /Debye                            0.00000000     0.00000000     0.00000000
 
 Results for state 15.1 Triplet
 ==============================
 !MCSCF STATE 15.1 Triplet Energy              -23.553671852494
 Nuclear energy                                  0.00000000
 Kinetic energy                                  6.22578996
 One electron energy                           -39.15652839
 Two electron energy                            15.60285653
 Virial ratio                                    4.78324229
 
 !MCSCF STATE 15.1 Triplet Dipole moment         0.00000000     0.00000000     0.00000000
 Dipole moment /Debye                            0.00000000     0.00000000     0.00000000
 
 Results for state 16.1 Triplet
 ==============================
 !MCSCF STATE 16.1 Triplet Energy              -23.553671852491
 Nuclear energy                                  0.00000000
 Kinetic energy                                  6.22578996
 One electron energy                           -39.15652838
 Two electron energy                            15.60285653
 Virial ratio                                    4.78324229
 
 !MCSCF STATE 16.1 Triplet Dipole moment         0.00000000     0.00000000     0.00000000
 Dipole moment /Debye                            0.00000000     0.00000000     0.00000000
 
 State-averaged charge density matrix saved on record 2140.2 (density set 1)
 
 No non-zero expectation values
 
 Expectation values for two-electron operators:
 
 ? Warning
 ? Transition properties are only calculated between states of the same symmetry
 ? The problem occurs in mu_properties_expec2

 !MCSCF expec      <1.1 Singlet|LXLX|1.1 Singlet>     0.000000000000
 !MCSCF expec      <2.1 Singlet|LXLX|2.1 Singlet>     3.851158796734
 !MCSCF expec      <3.1 Singlet|LXLX|3.1 Singlet>     3.999999999633
 !MCSCF expec      <4.1 Singlet|LXLX|4.1 Singlet>     1.000000000000
 !MCSCF expec      <5.1 Singlet|LXLX|5.1 Singlet>     0.999999976122
 !MCSCF expec      <6.1 Singlet|LXLX|6.1 Singlet>     0.148855670978
 !MCSCF expec      <7.1 Singlet|LXLX|7.1 Singlet>    -0.000000000000
 !MCSCF expec      <1.1 Triplet|LXLX|1.1 Triplet>     1.000000000000
 !MCSCF expec      <2.1 Triplet|LXLX|2.1 Triplet>     2.045440501080
 !MCSCF expec      <3.1 Triplet|LXLX|3.1 Triplet>     1.000000000227
 !MCSCF expec      <4.1 Triplet|LXLX|4.1 Triplet>     1.954606490795
 !MCSCF expec      <5.1 Triplet|LXLX|5.1 Triplet>     4.000000000000
 !MCSCF expec      <6.1 Triplet|LXLX|6.1 Triplet>    -0.000000000000
 !MCSCF expec      <7.1 Triplet|LXLX|7.1 Triplet>     0.000000000006
 !MCSCF expec      <8.1 Triplet|LXLX|8.1 Triplet>     1.000000000000
 !MCSCF expec      <9.1 Triplet|LXLX|9.1 Triplet>     0.999999999993
 !MCSCF expec    <10.1 Triplet|LXLX|10.1 Triplet>     3.618129514788
 !MCSCF expec    <11.1 Triplet|LXLX|11.1 Triplet>     0.234690518304
 !MCSCF expec    <12.1 Triplet|LXLX|12.1 Triplet>     7.393701634353
 !MCSCF expec    <13.1 Triplet|LXLX|13.1 Triplet>     3.999999764022
 !MCSCF expec    <14.1 Triplet|LXLX|14.1 Triplet>     6.381788132990
 !MCSCF expec    <15.1 Triplet|LXLX|15.1 Triplet>     2.606335453643
 !MCSCF expec    <16.1 Triplet|LXLX|16.1 Triplet>     3.765305396936
 
 !MCSCF expec      <1.1 Singlet|LYLY|1.1 Singlet>    -0.000000000000
 !MCSCF expec      <2.1 Singlet|LYLY|2.1 Singlet>     1.730094553900
 !MCSCF expec      <3.1 Singlet|LYLY|3.1 Singlet>     1.000000000344
 !MCSCF expec      <4.1 Singlet|LYLY|4.1 Singlet>     4.000000000000
 !MCSCF expec      <5.1 Singlet|LYLY|5.1 Singlet>     1.000000043683
 !MCSCF expec      <6.1 Singlet|LYLY|6.1 Singlet>     2.269867590224
 !MCSCF expec      <7.1 Singlet|LYLY|7.1 Singlet>    -0.000000000000
 !MCSCF expec      <1.1 Triplet|LYLY|1.1 Triplet>     4.000000000000
 !MCSCF expec      <2.1 Triplet|LYLY|2.1 Triplet>     0.245676051367
 !MCSCF expec      <3.1 Triplet|LYLY|3.1 Triplet>     0.999999999822
 !MCSCF expec      <4.1 Triplet|LYLY|4.1 Triplet>     3.754301378047
 !MCSCF expec      <5.1 Triplet|LYLY|5.1 Triplet>     1.000000000000
 !MCSCF expec      <6.1 Triplet|LYLY|6.1 Triplet>    -0.000000000000
 !MCSCF expec      <7.1 Triplet|LYLY|7.1 Triplet>     1.000000000000
 !MCSCF expec      <8.1 Triplet|LYLY|8.1 Triplet>    -0.000000000000
 !MCSCF expec      <9.1 Triplet|LYLY|9.1 Triplet>     1.000000000000
 !MCSCF expec    <10.1 Triplet|LYLY|10.1 Triplet>     3.989996989134
 !MCSCF expec    <11.1 Triplet|LYLY|11.1 Triplet>     4.062268702991
 !MCSCF expec    <12.1 Triplet|LYLY|12.1 Triplet>     1.354035590230
 !MCSCF expec    <13.1 Triplet|LYLY|13.1 Triplet>     3.999999981795
 !MCSCF expec    <14.1 Triplet|LYLY|14.1 Triplet>     0.009998628430
 !MCSCF expec    <15.1 Triplet|LYLY|15.1 Triplet>     8.645945401197
 !MCSCF expec    <16.1 Triplet|LYLY|16.1 Triplet>     5.937749247186
 
 !MCSCF expec      <1.1 Singlet|LZLZ|1.1 Singlet>    -0.000000000000
 !MCSCF expec      <2.1 Singlet|LZLZ|2.1 Singlet>     0.418746649366
 !MCSCF expec      <3.1 Singlet|LZLZ|3.1 Singlet>     1.000000000023
 !MCSCF expec      <4.1 Singlet|LZLZ|4.1 Singlet>     1.000000000000
 !MCSCF expec      <5.1 Singlet|LZLZ|5.1 Singlet>     3.999999980194
 !MCSCF expec      <6.1 Singlet|LZLZ|6.1 Singlet>     3.581276738798
 !MCSCF expec      <7.1 Singlet|LZLZ|7.1 Singlet>     0.000000000000
 !MCSCF expec      <1.1 Triplet|LZLZ|1.1 Triplet>     1.000000000000
 !MCSCF expec      <2.1 Triplet|LZLZ|2.1 Triplet>     3.708883447553
 !MCSCF expec      <3.1 Triplet|LZLZ|3.1 Triplet>     3.999999999952
 !MCSCF expec      <4.1 Triplet|LZLZ|4.1 Triplet>     0.291092131159
 !MCSCF expec      <5.1 Triplet|LZLZ|5.1 Triplet>     1.000000000000
 !MCSCF expec      <6.1 Triplet|LZLZ|6.1 Triplet>     0.000000000000
 !MCSCF expec      <7.1 Triplet|LZLZ|7.1 Triplet>     0.999999999994
 !MCSCF expec      <8.1 Triplet|LZLZ|8.1 Triplet>     1.000000000000
 !MCSCF expec      <9.1 Triplet|LZLZ|9.1 Triplet>     0.000000000007
 !MCSCF expec    <10.1 Triplet|LZLZ|10.1 Triplet>     4.391873496079
 !MCSCF expec    <11.1 Triplet|LZLZ|11.1 Triplet>     7.703040778704
 !MCSCF expec    <12.1 Triplet|LZLZ|12.1 Triplet>     3.252262775417
 !MCSCF expec    <13.1 Triplet|LZLZ|13.1 Triplet>     4.000000254182
 !MCSCF expec    <14.1 Triplet|LZLZ|14.1 Triplet>     5.608213238580
 !MCSCF expec    <15.1 Triplet|LZLZ|15.1 Triplet>     0.747719145160
 !MCSCF expec    <16.1 Triplet|LZLZ|16.1 Triplet>     2.296945355878
 
 !MCSCF expec      <1.1 Singlet|L**2|1.1 Singlet>    -0.000000000000
 !MCSCF expec      <2.1 Singlet|L**2|2.1 Singlet>     6.000000000000
 !MCSCF expec      <3.1 Singlet|L**2|3.1 Singlet>     6.000000000000
 !MCSCF expec      <4.1 Singlet|L**2|4.1 Singlet>     6.000000000000
 !MCSCF expec      <5.1 Singlet|L**2|5.1 Singlet>     6.000000000000
 !MCSCF expec      <6.1 Singlet|L**2|6.1 Singlet>     6.000000000000
 !MCSCF expec      <7.1 Singlet|L**2|7.1 Singlet>    -0.000000000000
 !MCSCF expec      <1.1 Triplet|L**2|1.1 Triplet>     6.000000000000
 !MCSCF expec      <2.1 Triplet|L**2|2.1 Triplet>     6.000000000000
 !MCSCF expec      <3.1 Triplet|L**2|3.1 Triplet>     6.000000000000
 !MCSCF expec      <4.1 Triplet|L**2|4.1 Triplet>     6.000000000000
 !MCSCF expec      <5.1 Triplet|L**2|5.1 Triplet>     6.000000000000
 !MCSCF expec      <6.1 Triplet|L**2|6.1 Triplet>    -0.000000000000
 !MCSCF expec      <7.1 Triplet|L**2|7.1 Triplet>     2.000000000000
 !MCSCF expec      <8.1 Triplet|L**2|8.1 Triplet>     2.000000000000
 !MCSCF expec      <9.1 Triplet|L**2|9.1 Triplet>     2.000000000000
 !MCSCF expec    <10.1 Triplet|L**2|10.1 Triplet>    12.000000000000
 !MCSCF expec    <11.1 Triplet|L**2|11.1 Triplet>    12.000000000000
 !MCSCF expec    <12.1 Triplet|L**2|12.1 Triplet>    12.000000000000
 !MCSCF expec    <13.1 Triplet|L**2|13.1 Triplet>    12.000000000000
 !MCSCF expec    <14.1 Triplet|L**2|14.1 Triplet>    12.000000000000
 !MCSCF expec    <15.1 Triplet|L**2|15.1 Triplet>    12.000000000000
 !MCSCF expec    <16.1 Triplet|L**2|16.1 Triplet>    12.000000000000
 
 EXTRA SYMMETRY OF MOS IN SYMMETRY 1:   1 1 4 6 5 3 2 1 4 5   3 2 6 1 4 5 3 2 6 1   4 5 3 2 6 4 2 3 5 6   1 4 2 3 5 6 1 1
 EXTRA SYMMETRY OF MOS IN SYMMETRY 2:   1 3 2 2 1 3 1 3 2 1   3 2 410 8 7 9 6 5 1   3 2 410 8 7 9 6 5 4   6 7 9 810 5 1 3 2 4
                                        6 9 7 810 5 1 3 2
 
  NATURAL ORBITALS (STATE AVERAGED)
  =================================

  Orbital  Occupation    Energy    Cen Mu Typ  Coefficients
    1.1     2.00000    -1.58160     1  1  s    0.99544
    2.1     0.56384    -0.05611     1  2  s    1.02325
    3.1     0.23348     0.04991     1  1  d1+ -0.95694
    4.1     0.23348     0.04991     1  1  d1-  0.95694
    5.1     0.23348     0.04991     1  1  d2+  0.95694
    6.1     0.23348     0.04991     1  1  d2-  0.95694
    7.1     0.23348     0.04991     1  1  d0   0.95694
    8.1     0.08573     0.02645     1  2  s   -0.56984    1  5  s   -0.37215    1  8  s    1.64431
    1.2     2.00000    -0.80379     1  1  px   0.99509
    2.2     2.00000    -0.80379     1  1  pz   0.99509
    3.2     2.00000    -0.80379     1  1  py   0.99509
    4.2     0.06101     0.04319     1  2  py   1.00209
    5.2     0.06101     0.04319     1  2  px   1.00209
    6.2     0.06101     0.04319     1  2  pz   1.00209
 
 Natural orbital dump (state averaged) at molpro section 2140.2 (Orbital set 2)
 
 Transform the CI vectors
 
 CI Coefficients of symmetry 1 (Singlet)
 =======================================
 
 2000000 000      0.96554483      0.00000000     -0.00000000      0.00000000      0.00000000      0.00000000     -0.02297497
 b00000a 000     -0.00848336      0.00000000     -0.00000000      0.00000000     -0.00000000     -0.00000000     -0.67925750
 a00000b 000      0.00848336     -0.00000000      0.00000000     -0.00000000      0.00000000      0.00000000      0.67925750
 ab00000 000      0.00000000     -0.00000134      0.00000035      0.64651303     -0.00000000      0.00000000     -0.00000000
 ba00000 000     -0.00000000      0.00000134     -0.00000035     -0.64651303      0.00000000     -0.00000000      0.00000000
 b0a0000 000     -0.00000000     -0.00001499     -0.64651303      0.00000035     -0.00000187      0.00000519     -0.00000000
 a0b0000 000      0.00000000      0.00001499      0.64651303     -0.00000035      0.00000187     -0.00000519      0.00000000
 a000b00 000     -0.00000000      0.00000046     -0.00000187      0.00000000      0.64651302     -0.00012115      0.00000000
 b000a00 000      0.00000000     -0.00000046      0.00000187     -0.00000000     -0.64651302      0.00012115     -0.00000000
 b0000a0 000      0.00000000     -0.61173708      0.00001586     -0.00000126      0.00003963      0.20918134     -0.00000000
 a0000b0 000     -0.00000000      0.61173708     -0.00001586      0.00000126     -0.00003963     -0.20918134      0.00000000
 b00a000 000      0.00000000     -0.20918135     -0.00000006     -0.00000043     -0.00011448     -0.61173707      0.00000000
 a00b000 000     -0.00000000      0.20918135      0.00000006      0.00000043      0.00011448      0.61173707     -0.00000000
 0000000 020     -0.13614327      0.05405127     -0.00000346      0.00000011     -0.00005156     -0.27494135     -0.07390663
 0000000 002     -0.13614327     -0.26513183      0.00000687     -0.00000055      0.00001718      0.09066090     -0.07390663
 0000000 b0a     -0.00000000      0.00000563      0.24266379     -0.00000013      0.00000070     -0.00000195      0.00000000
 0000000 a0b      0.00000000     -0.00000563     -0.24266379      0.00000013     -0.00000070      0.00000195     -0.00000000
 0000000 0ba     -0.00000000      0.00000050     -0.00000013     -0.24266379     -0.00000000     -0.00000000     -0.00000000
 0000000 0ab      0.00000000     -0.00000050      0.00000013      0.24266379      0.00000000      0.00000000      0.00000000
 0000000 ab0     -0.00000000     -0.00000017      0.00000070     -0.00000000     -0.24266379      0.00004547     -0.00000000
 0000000 ba0      0.00000000      0.00000017     -0.00000070      0.00000000      0.24266379     -0.00004547      0.00000000
 0000000 200     -0.13614327      0.21108056     -0.00000341      0.00000044      0.00003438      0.18428045     -0.07390663
 0000002 000     -0.01638251      0.00000000     -0.00000000      0.00000000     -0.00000000     -0.00000000     -0.14008444
 0000ba0 000     -0.00000000     -0.00000008      0.00000033     -0.00000000     -0.11267849      0.00002111      0.00000000
 0000ab0 000      0.00000000      0.00000008     -0.00000033      0.00000000      0.11267849     -0.00002111     -0.00000000
 0020000 000     -0.04838572     -0.02173565      0.00000139     -0.00000004      0.00002073      0.11056222      0.09020026
 0000020 000     -0.04838572     -0.10661752      0.00000276     -0.00000022      0.00000691      0.03645749      0.09020026
 0000200 000     -0.04838572      0.10661752     -0.00000276      0.00000022     -0.00000691     -0.03645749      0.09020026
 0002000 000     -0.04838572      0.10661752     -0.00000276      0.00000022     -0.00000691     -0.03645749      0.09020026
 000a0b0 000     -0.00000000      0.03645749      0.00000001      0.00000008      0.00001995      0.10661752     -0.00000000
 000b0a0 000      0.00000000     -0.03645749     -0.00000001     -0.00000008     -0.00001995     -0.10661752      0.00000000
 0a0b000 000      0.00000000      0.00000020     -0.00000005     -0.09758244      0.00000000     -0.00000000     -0.00000000
 0b0a000 000     -0.00000000     -0.00000020      0.00000005      0.09758244     -0.00000000      0.00000000      0.00000000
 00a0b00 000     -0.00000000     -0.00000020      0.00000005      0.09758244      0.00000000     -0.00000000      0.00000000
 00b0a00 000      0.00000000      0.00000020     -0.00000005     -0.09758244     -0.00000000      0.00000000     -0.00000000
 0a00b00 000      0.00000000      0.00000226      0.09758244     -0.00000005      0.00000028     -0.00000078      0.00000000
 0b00a00 000     -0.00000000     -0.00000226     -0.09758244      0.00000005     -0.00000028      0.00000078     -0.00000000
 00ba000 000     -0.00000000     -0.00000226     -0.09758244      0.00000005     -0.00000028      0.00000078     -0.00000000
 00ab000 000      0.00000000      0.00000226      0.09758244     -0.00000005      0.00000028     -0.00000078      0.00000000
 0ab0000 000     -0.00000000      0.00000007     -0.00000028      0.00000000      0.09758244     -0.00001829      0.00000000
 0ba0000 000      0.00000000     -0.00000007      0.00000028     -0.00000000     -0.09758244      0.00001829     -0.00000000
 0200000 000     -0.04838572     -0.08488187      0.00000137     -0.00000018     -0.00001383     -0.07410473      0.09020026
 0b000a0 000     -0.00000000     -0.00000012      0.00000003      0.05633925     -0.00000000      0.00000000      0.00000000
 0a000b0 000      0.00000000      0.00000012     -0.00000003     -0.05633925      0.00000000     -0.00000000     -0.00000000
 00a00b0 000     -0.00000000     -0.00000131     -0.05633925      0.00000003     -0.00000016      0.00000045     -0.00000000
 00b00a0 000      0.00000000      0.00000131      0.05633925     -0.00000003      0.00000016     -0.00000045      0.00000000
 
 Energy:        -23.69851907    -23.61713009    -23.61713009    -23.61713009    -23.61713009    -23.61713009    -23.57600235
 
 
 CI Coefficients of symmetry 1 (Triplet)
 =======================================

 State:                1               2               3               4               5               6               7
 a00000a 000      0.00000000     -0.00000000     -0.00000000     -0.00000000      0.00000000      1.00000000      0.00000000
 000a0a0 000      0.00000000      0.00000000     -0.00000000     -0.00000000     -0.00000000      0.00000000     -0.00000000
 a0a0000 000     -0.00000000     -0.00000000     -0.00000000      0.00000000      0.99999812     -0.00000000      0.00000000
 aa00000 000      0.99999812     -0.00000000     -0.00000000      0.00000000      0.00000000     -0.00000000      0.00000000
 a000a00 000      0.00000000     -0.00006236      0.99999812     -0.00000118      0.00000000      0.00000000      0.00000000
 a0000a0 000     -0.00000000      0.26977558      0.00001796      0.96292127     -0.00000000      0.00000000     -0.00000000
 a00a000 000      0.00000000      0.96292127      0.00005973     -0.26977558      0.00000000     -0.00000000      0.00000000
 0000aa0 000      0.00000000     -0.00000000      0.00000000     -0.00000000      0.00000000     -0.00000000     -0.00000000
 00a0a00 000      0.00000000     -0.00000000     -0.00000000      0.00000000     -0.00000000      0.00000000      0.00000000
 0a0a000 000      0.00000000      0.00000000     -0.00000000     -0.00000000     -0.00000000      0.00000000     -0.00000000
 0a00a00 000      0.00000000      0.00000000      0.00000000      0.00000000     -0.00000000      0.00000000     -0.32208519
 0aa0000 000      0.00000000      0.00000000     -0.00000000      0.00000000     -0.00000000     -0.00000000     -0.00000082
 00aa000 000     -0.00000000     -0.00000000      0.00000000     -0.00000000      0.00000000     -0.00000000     -0.32208519
 0000000 0aa     -0.00000000     -0.00000000      0.00000000     -0.00000000      0.00000000     -0.00000000      0.00000000
 0000000 aa0     -0.00000000      0.00000000     -0.00000000     -0.00000000     -0.00000000      0.00000000      0.00000176
 0000000 a0a      0.00000000      0.00000000      0.00000000      0.00000000     -0.00000000     -0.00000000      0.69376195
 000aa00 000     -0.00000000      0.00000000     -0.00000000     -0.00000000     -0.00000000     -0.00000000      0.00000163
 00a00a0 000     -0.00000000     -0.00000000      0.00000000     -0.00000000      0.00000000     -0.00000000     -0.55786792
 0a000a0 000      0.00000000      0.00000000      0.00000000     -0.00000000     -0.00000000     -0.00000000     -0.00000000
 
 Energy:        -23.62654583    -23.62654583    -23.62654583    -23.62654583    -23.62654583    -23.58338771    -23.55886697

 State:                8               9              10              11              12              13              14
 a00000a 000      0.00000000     -0.00000000     -0.00000000     -0.00000000     -0.00000000     -0.00000000     -0.00000000
 000a0a0 000      0.00000000     -0.00000000      0.00000000      0.00017034      0.00026630      0.99999995      0.00000484
 a0a0000 000     -0.00000000     -0.00000000      0.00000000      0.00000000     -0.00000000     -0.00000000      0.00000000
 aa00000 000     -0.00000000      0.00000000     -0.00000000     -0.00000000     -0.00000000      0.00000000     -0.00000000
 a000a00 000     -0.00000000      0.00000000      0.00000000     -0.00000000     -0.00000000      0.00000000      0.00000000
 a0000a0 000     -0.00000000      0.00000000      0.00000000      0.00000000      0.00000000      0.00000000      0.00000000
 a00a000 000      0.00000000     -0.00000000     -0.00000000     -0.00000000     -0.00000000     -0.00000000      0.00000000
 0000aa0 000     -0.00000000     -0.00000000     -0.00000000      0.00013774      0.90170150     -0.00026798     -0.00000912
 00a0a00 000      0.32208519     -0.00000000      0.04472809      0.00000000      0.00000903     -0.00000433      0.89330812
 0a0a000 000     -0.32208519      0.00000000      0.87612389      0.00000000      0.00000182     -0.00000087      0.18001924
 0a00a00 000      0.00000000      0.00000082     -0.00000000      0.86779140     -0.00012619     -0.00014619      0.00000000
 0aa0000 000      0.00000000     -0.32208519     -0.00000000     -0.00005446     -0.38671364      0.00005107      0.00000391
 00aa000 000      0.00000000      0.00000082     -0.00000000     -0.42672015      0.00008047      0.00007846     -0.00000000
 0000000 0aa      0.69376195      0.00000000     -0.00000000      0.00000000     -0.00000000      0.00000000     -0.00000000
 0000000 aa0     -0.00000000      0.69376195     -0.00000000      0.00000000      0.00000000     -0.00000000      0.00000000
 0000000 a0a     -0.00000000     -0.00000176      0.00000000     -0.00000000      0.00000000      0.00000000     -0.00000000
 000aa00 000     -0.00000000      0.64417039     -0.00000000     -0.00002723     -0.19335682      0.00002553      0.00000196
 00a00a0 000     -0.00000000      0.00000142     -0.00000000     -0.25465260      0.00002640      0.00003910      0.00000000
 0a000a0 000      0.55786792      0.00000000      0.48000659     -0.00000000     -0.00000416      0.00000199     -0.41181753
 
 Energy:        -23.55886697    -23.55886697    -23.55367185    -23.55367185    -23.55367185    -23.55367185    -23.55367185

 State:               15              16
 a00000a 000      0.00000000     -0.00000000
 000a0a0 000      0.00006438     -0.00000737
 a0a0000 000     -0.00000000     -0.00000000
 aa00000 000      0.00000000      0.00000000
 a000a00 000      0.00000000      0.00000000
 a0000a0 000      0.00000000     -0.00000000
 a00a000 000     -0.00000000      0.00000000
 0000aa0 000      0.43235900     -0.00001942
 00a0a00 000     -0.00000000      0.00000000
 0a0a000 000     -0.00000000     -0.00000000
 0a00a00 000     -0.00000363      0.21665191
 0aa0000 000      0.80650639      0.00000645
 00aa000 000      0.00000348      0.78607245
 0000000 0aa     -0.00000000      0.00000000
 0000000 aa0      0.00000000     -0.00000000
 0000000 a0a      0.00000000     -0.00000000
 000aa00 000      0.40325319      0.00000322
 00a00a0 000      0.00000009     -0.57892318
 0a000a0 000      0.00000000     -0.00000000
 
 Energy:        -23.55367185    -23.55367185
 


 **********************************************************************************************************************************
 DATASETS  * FILE   NREC   LENGTH (MB)   RECORD NAMES
              1      21       33.57       500      610      700      900      950      970     1000      129      960     1100   
                                          VAR    BASINP    GEOM    SYMINP    ZMAT    AOBASIS   BASIS     P2S    ABASIS      S 
                                         1400     1410     1420     1200     1210     1080     1700     1600     1650     1380   
                                           T        V       ECP      H0       H01     AOSYM    OPER      SMH    MOLCAS    JKOP   
                                         1700(1)
                                         OPER   

              2       5        0.69       700     1000      520     2100     2140   
                                         GEOM     BASIS   MCVARS     RHF     MCSCF   

 PROGRAMS   *        TOTAL     MULTI   RHF-SCF       INT
 CPU TIMES  *         2.30      1.09      0.11      0.93
 REAL TIME  *         5.43 SEC
 DISK USED  *        34.34 MB (local),      235.37 MB (total)
 SF USED    *        14.89 MB
 GA USED    *         0.00 MB       (max)       0.00 MB       (current)
 **********************************************************************************************************************************

 Energies and &lt;L**2&gt; values

        ENERGY       LL
    -23.69851907   -0.0
    -23.61713009    6.0
    -23.61713009    6.0
    -23.61713009    6.0
    -23.61713009    6.0
    -23.61713009    6.0
    -23.57600235   -0.0
    -23.62654583    6.0
    -23.62654583    6.0
    -23.62654583    6.0
    -23.62654583    6.0
    -23.62654583    6.0
    -23.58338771   -0.0
    -23.55886697    2.0
    -23.55886697    2.0
    -23.55886697    2.0
    -23.55367185   12.0
    -23.55367185   12.0
    -23.55367185   12.0
    -23.55367185   12.0
    -23.55367185   12.0
    -23.55367185   12.0
    -23.55367185   12.0
                                                  


 PROGRAM * CI (Multireference internally contracted CI)     Authors: H.-J. Werner, P.J. Knowles, 1987


 Convergence thresholds:  THRVAR = 1.00D-08  THRDEN = 1.00D-06

 Number of optimized states: 7  Roots:    1   2   3   4   5   6   7
 Number of reference states: 7  Roots:    1   2   3   4   5   6   7

 Reference symmetry:                   1   Singlet 
 Number of electrons:                 10
 Maximum number of shells:             5
 Maximum number of spin couplings:    14

 Reference space:       34 conf       34 CSFs
 N elec internal:     7045 conf    15565 CSFs
 N-1 el internal:     2330 conf     6410 CSFs
 N-2 el internal:      381 conf     1153 CSFs

 Number of electrons in valence space:                     10
 Maximum number of open shell orbitals in reference space:  2
 Maximum number of open shell orbitals in internal spaces:  8


 Number of closed-shell orbitals:   4 (   1   3 )
 Number of active  orbitals:       10 (   7   3 )
 Number of external orbitals:      73 (  30  43 )

 Molecular orbitals read from record     2140.2  Type=MCSCF/NATURAL (state averaged)

 Valence orbitals related to previous ones by unitary transformation. Operators transformed.


 Number of p-space configurations:  34

 Reference wavefunction optimized for reference space (refopt=1)

 State     Reference Energy 
     1       -23.69851907
     2       -23.61713009
     3       -23.61713009
     4       -23.61713009
     5       -23.61713009
     6       -23.61713009
     7       -23.57600235

 Number of blocks in overlap matrix:   169   Smallest eigenvalue:  0.53D+00
 Number of N-2 electron functions:     193
 Number of N-1 electron functions:    6410

 Number of internal configurations:                 7851
 Number of singly external configurations:        233627
 Number of doubly external configurations:        258732
 Total number of contracted configurations:       500210
 Total number of uncontracted configurations:    1785599

 Diagonal Coupling coefficients finished.               Storage:   3217856 words, CPU-Time:      0.54 seconds.
 Energy denominators for pairs finished in 1 passes.    Storage:    434052 words, CPU-time:      0.01 seconds.

  ITER. STATE  ROOT     SQ.NORM     CORR.ENERGY   TOTAL ENERGY   ENERGY CHANGE       DEN1      VAR(S)    VAR(P)      TIME
    1     1     1     1.00000000     0.00000000   -23.69851907     0.00000000    -0.20434391  0.38D-01  0.47D-01     1.00
    1     2     2     1.00000000     0.00000000   -23.61713009    -0.00000000    -0.20890919  0.43D-01  0.51D-01     1.00
    1     3     3     1.00000000     0.00000000   -23.61713009    -0.00000000    -0.20904917  0.44D-01  0.52D-01     1.00
    1     4     4     1.00000000     0.00000000   -23.61713009    -0.00000000    -0.20907484  0.44D-01  0.52D-01     1.00
    1     5     5     1.00000000     0.00000000   -23.61713009     0.00000000    -0.20916190  0.44D-01  0.52D-01     1.00
    1     6     6     1.00000000     0.00000000   -23.61713009    -0.00000000    -0.20891311  0.43D-01  0.51D-01     1.00
    1     7     7     1.00000000     0.00000000   -23.57600235     0.00000000    -0.20012848  0.45D-01  0.45D-01     1.00
    2     1     1     1.07020254    -0.20095194   -23.89947101    -0.20095194    -0.00554747  0.20D-02  0.83D-03     6.48
    2     2     2     1.07795040    -0.20000428   -23.81713437    -0.20000428    -0.00531961  0.20D-02  0.94D-03     6.48
    2     3     3     1.07788186    -0.19999892   -23.81712901    -0.19999892    -0.00532196  0.20D-02  0.94D-03     6.48
    2     4     4     1.07804759    -0.19997372   -23.81710381    -0.19997372    -0.00536110  0.21D-02  0.96D-03     6.48
    2     5     5     1.07805577    -0.19996970   -23.81709979    -0.19996970    -0.00536762  0.21D-02  0.96D-03     6.48
    2     6     6     1.07802174    -0.19996326   -23.81709335    -0.19996326    -0.00537243  0.21D-02  0.96D-03     6.48
    2     7     7     1.07620356    -0.19787022   -23.77387257    -0.19787022    -0.00532734  0.23D-02  0.88D-03     6.48
    3     1     1     1.07255782    -0.20665954   -23.90517860    -0.00570760    -0.00020509  0.67D-04  0.35D-04    11.82
    3     2     2     1.07912594    -0.20549158   -23.82262167    -0.00548729    -0.00019635  0.69D-04  0.42D-04    11.82
    3     3     3     1.07913468    -0.20549071   -23.82262079    -0.00549178    -0.00019717  0.69D-04  0.43D-04    11.82
    3     4     4     1.07915960    -0.20548948   -23.82261957    -0.00551575    -0.00019928  0.69D-04  0.44D-04    11.82
    3     5     5     1.07916491    -0.20548941   -23.82261950    -0.00551971    -0.00019946  0.69D-04  0.44D-04    11.82
    3     6     6     1.07916117    -0.20548885   -23.82261894    -0.00552559    -0.00019959  0.69D-04  0.44D-04    11.82
    3     7     7     1.07663582    -0.20327351   -23.77927587    -0.00540330    -0.00020827  0.74D-04  0.42D-04    11.82
    4     1     1     1.07343292    -0.20688419   -23.90540325    -0.00022465    -0.00001340  0.94D-05  0.16D-05    16.94
    4     2     2     1.08038813    -0.20571518   -23.82284527    -0.00022360    -0.00001735  0.18D-04  0.18D-05    16.94
    4     3     3     1.08039366    -0.20571510   -23.82284519    -0.00022440    -0.00001743  0.18D-04  0.18D-05    16.94
    4     4     4     1.08038507    -0.20571498   -23.82284507    -0.00022551    -0.00001747  0.18D-04  0.18D-05    16.94
    4     5     5     1.08039169    -0.20571496   -23.82284505    -0.00022555    -0.00001752  0.18D-04  0.18D-05    16.94
    4     6     6     1.08039259    -0.20571491   -23.82284500    -0.00022606    -0.00001755  0.18D-04  0.18D-05    16.94
    4     7     7     1.07769684    -0.20349416   -23.77949651    -0.00022065    -0.00001337  0.10D-04  0.18D-05    16.94
    5     1     1     1.07379340    -0.20690072   -23.90541979    -0.00001653    -0.00000106  0.57D-06  0.17D-06    21.88
    5     2     2     1.08094759    -0.20573872   -23.82286881    -0.00002354    -0.00000231  0.14D-05  0.34D-06    21.88
    5     3     3     1.08094702    -0.20573869   -23.82286878    -0.00002359    -0.00000233  0.14D-05  0.34D-06    21.88
    5     4     4     1.08094570    -0.20573866   -23.82286875    -0.00002368    -0.00000235  0.15D-05  0.34D-06    21.88
    5     5     5     1.08094573    -0.20573864   -23.82286873    -0.00002368    -0.00000236  0.15D-05  0.34D-06    21.88
    5     6     6     1.08094556    -0.20573864   -23.82286873    -0.00002372    -0.00000237  0.15D-05  0.34D-06    21.88
    5     7     7     1.07794633    -0.20351072   -23.77951307    -0.00001656    -0.00000130  0.10D-05  0.20D-06    21.88
    6     1     1     1.07385069    -0.20690195   -23.90542102    -0.00000124    -0.00000008  0.28D-07  0.15D-07    26.81
    6     2     2     1.08103439    -0.20574168   -23.82287177    -0.00000296    -0.00000025  0.14D-06  0.39D-07    26.81
    6     3     3     1.08103402    -0.20574168   -23.82287177    -0.00000298    -0.00000025  0.14D-06  0.40D-07    26.81
    6     4     4     1.08103412    -0.20574167   -23.82287176    -0.00000301    -0.00000026  0.15D-06  0.42D-07    26.81
    6     5     5     1.08103433    -0.20574167   -23.82287176    -0.00000303    -0.00000026  0.15D-06  0.42D-07    26.81
    6     6     6     1.08103394    -0.20574167   -23.82287176    -0.00000303    -0.00000026  0.15D-06  0.42D-07    26.81
    6     7     7     1.07799976    -0.20351237   -23.77951472    -0.00000165    -0.00000015  0.71D-07  0.32D-07    26.81
    7     1     1     1.07386433    -0.20690204   -23.90542110    -0.00000008    -0.00000001  0.34D-08  0.84D-09    31.75
    7     2     2     1.08105781    -0.20574197   -23.82287206    -0.00000029    -0.00000003  0.28D-07  0.40D-08    31.75
    7     3     3     1.08105770    -0.20574197   -23.82287206    -0.00000029    -0.00000003  0.28D-07  0.41D-08    31.75
    7     4     4     1.08105748    -0.20574197   -23.82287206    -0.00000030    -0.00000003  0.29D-07  0.43D-08    31.75
    7     5     5     1.08105746    -0.20574197   -23.82287206    -0.00000030    -0.00000003  0.29D-07  0.43D-08    31.75
    7     6     6     1.08105739    -0.20574197   -23.82287205    -0.00000030    -0.00000003  0.29D-07  0.43D-08    31.75
    7     7     7     1.07801274    -0.20351253   -23.77951489    -0.00000017    -0.00000002  0.17D-07  0.39D-08    31.75
    8     1     1     1.07386749    -0.20690204   -23.90542111    -0.00000000    -0.00000000  0.71D-09  0.23D-09    36.22
    8     2     2     1.08106485    -0.20574200   -23.82287209    -0.00000003    -0.00000000  0.29D-08  0.63D-09    36.22
    8     3     3     1.08106479    -0.20574200   -23.82287209    -0.00000003    -0.00000000  0.30D-08  0.63D-09    36.22
    8     4     4     1.08106476    -0.20574200   -23.82287209    -0.00000004    -0.00000000  0.32D-08  0.64D-09    36.22
    8     5     5     1.08106472    -0.20574200   -23.82287209    -0.00000004    -0.00000000  0.32D-08  0.64D-09    36.22
    8     6     6     1.08106472    -0.20574200   -23.82287209    -0.00000004    -0.00000000  0.32D-08  0.64D-09    36.22
    8     7     7     1.07801302    -0.20351256   -23.77951491    -0.00000002    -0.00000000  0.81D-09  0.33D-09    36.22


 =====================================
 Analysis of CPU times by interactions
 =====================================

       I      S      P

 I  10.4%
 S   6.1%  31.4%
 P   1.0%  21.9%  13.0%

 Initialization:   1.7%
 Other:           14.5%

 Total CPU:       36.2 seconds
 =====================================



 Wavefunction saved on  5101.2

 Reference coefficients greater than 0.0500000
 =============================================
 22000000222000           0.9335739  -0.0000000   0.0000000   0.0000000  -0.0000000  -0.0000000   0.0427257
 2/00000\222000          -0.0486920   0.0000000  -0.0000000  -0.0000000   0.0000000   0.0000000   0.9172496
 2/000\00222000          -0.0000000   0.0000000   0.0000000   0.0000000   0.8933675  -0.0000000  -0.0000000
 2/\00000222000          -0.0000000   0.0000000   0.0000000   0.8933675  -0.0000000  -0.0000000   0.0000000
 2/0\0000222000           0.0000000  -0.0000000  -0.0000000   0.0000000   0.0000000   0.8933675  -0.0000000
 2/0000\0222000           0.0000000   0.8457351   0.2878157  -0.0000000  -0.0000000   0.0000000   0.0000000
 2/00\000222000          -0.0000000  -0.2878157   0.8457350   0.0000000  -0.0000000  -0.0000000   0.0000000
 20000000222/0\           0.0000000  -0.0000000   0.0000000  -0.0000000   0.0000000  -0.2862192   0.0000000
 20000000222/\0          -0.0000000   0.0000000  -0.0000000   0.0000000  -0.2862191  -0.0000000  -0.0000000
 200000002220/\          -0.0000000  -0.0000000  -0.0000000   0.2862191   0.0000000   0.0000000  -0.0000000
 20000000222200          -0.1100183   0.0454153   0.2292415   0.0000000   0.0000000   0.0000000  -0.0839571
 20000000222002          -0.1100183  -0.2212365  -0.0752900   0.0000000  -0.0000000   0.0000000  -0.0839572
 20000000222020          -0.1100184   0.1758212  -0.1539515  -0.0000000  -0.0000000  -0.0000000  -0.0839572
 20000002222000          -0.0105589  -0.0000000  -0.0000000   0.0000000   0.0000000  -0.0000000  -0.1567537
 20000/\0222000           0.0000000   0.0000000   0.0000000   0.0000000   0.1489692  -0.0000000   0.0000000
 2000/0\0222000          -0.0000000  -0.0479933   0.1410264  -0.0000000  -0.0000000   0.0000000  -0.0000000
 20/\0000222000           0.0000000   0.0000000  -0.0000000   0.0000000   0.1290112  -0.0000000   0.0000000
 200/0\00222000           0.0000000   0.0000000  -0.0000000   0.1290111  -0.0000000   0.0000000   0.0000000
 20/00\00222000           0.0000000   0.0000000   0.0000000  -0.0000000   0.0000000   0.1290111   0.0000000
 200/\000222000           0.0000000   0.0000000   0.0000000  -0.0000000   0.0000000   0.1290111   0.0000000
 20/0\000222000          -0.0000000  -0.0000000   0.0000000  -0.1290111   0.0000000  -0.0000000  -0.0000000
 20200000222000          -0.0492794  -0.0204706  -0.1033289   0.0000000   0.0000000  -0.0000000   0.0791401
 20000200222000          -0.0492794   0.0997207   0.0339364  -0.0000000   0.0000000   0.0000000   0.0791400
 20002000222000          -0.0492796   0.0997206   0.0339363  -0.0000000   0.0000000   0.0000000   0.0791401
 20000020222000          -0.0492796  -0.0997206  -0.0339363   0.0000000   0.0000000  -0.0000000   0.0791402
 20020000222000          -0.0492795  -0.0792502   0.0693925  -0.0000000  -0.0000000  -0.0000000   0.0791401
 20/000\0222000           0.0000000  -0.0000000  -0.0000000  -0.0744846   0.0000000  -0.0000000  -0.0000000
 200/00\0222000          -0.0000000  -0.0000000   0.0000000  -0.0000000  -0.0000000  -0.0744846   0.0000000

 Coefficients of fixed reference functions:
 ==========================================

 State      Coefficients
 1           0.957853    0.000000    0.000000   -0.000000    0.000000   -0.000000   -0.064576
 2          -0.000000    0.756980   -0.000000    0.000000    0.000000   -0.586085   -0.000000
 3           0.000000    0.586085   -0.000000    0.000000    0.000000    0.756980   -0.000000
 4           0.000000   -0.000000    0.000000    0.957348   -0.000000    0.000000   -0.000000
 5          -0.000000   -0.000000    0.000000   -0.000000    0.957348    0.000000    0.000000
 6          -0.000000    0.000000    0.957348    0.000000   -0.000000    0.000000    0.000000
 7           0.069971    0.000000   -0.000000    0.000000   -0.000000    0.000000    0.956408

 Coefficients of rotated reference functions:
 ============================================

 State      Coefficients
 1           0.960024   -0.000000    0.000000   -0.000000   -0.000000   -0.000000    0.002741
 2          -0.000000    0.957348    0.000000   -0.000000   -0.000000   -0.000000    0.000000
 3           0.000000    0.000000    0.957348    0.000000    0.000000    0.000000    0.000000
 4          -0.000000   -0.000000    0.000000    0.957348   -0.000000    0.000000   -0.000000
 5          -0.000000   -0.000000    0.000000   -0.000000    0.957348    0.000000    0.000000
 6          -0.000000   -0.000000    0.000000    0.000000    0.000000    0.957348   -0.000000
 7           0.002741    0.000000    0.000000   -0.000000    0.000000   -0.000000    0.958960


 RESULTS FOR STATE 1.1
 =====================

 Coefficient of reference function:   C(0) = 0.95785316 (fixed)   0.96046713 (relaxed)   0.96002355 (rotated)

 Energy contributions of configuration classes

 CLASS          SQ.NORM        ECORR1        ECORR2
 +++++++++++++++++++++++++++++++++++++++++++++++++++
 Internals    0.01038185   -0.01465868   -0.14954843
 Singles      0.03114651   -0.05979497   -0.06104965
 Pairs        0.04348786    0.01300737    0.00369604
 Total        1.08501622   -0.06144628   -0.20690204
 +++++++++++++++++++++++++++++++++++++++++++++++++++


 Reference energy                     -23.69791679
 Nuclear energy                         0.00000000
 Kinetic energy                         6.18736915
 One electron energy                  -38.97082727
 Two electron energy                   15.06540617
 Virial quotient                       -3.86358410
 Correlation energy                    -0.20750432
 !MRCI STATE 1.1 Energy               -23.905421105875

 Properties without orbital relaxation:

 !MRCI STATE 1.1 Dipole moment          0.00000000     0.00000000     0.00000000
 Dipole moment /Debye                   0.00000000     0.00000000     0.00000000

 Cluster corrected energies           -23.92306234 (Davidson, fixed reference)
 Cluster corrected energies           -23.92285442 (Davidson, relaxed reference)
 Cluster corrected energies           -23.92306234 (Davidson, rotated reference)

 Cluster corrected energies           -23.92027364 (Pople, fixed reference)
 Cluster corrected energies           -23.92008976 (Pople, relaxed reference)
 Cluster corrected energies           -23.92027364 (Pople, rotated reference)



 RESULTS FOR STATE 2.1
 =====================

 Coefficient of reference function:   C(0) = 0.75698021 (fixed)   0.95874131 (relaxed)   0.95734777 (rotated)

 Energy contributions of configuration classes

 CLASS          SQ.NORM        ECORR1        ECORR2
 +++++++++++++++++++++++++++++++++++++++++++++++++++
 Internals    0.00927333   -0.01043088   -0.13674772
 Singles      0.03462357   -0.05844585   -0.06009569
 Pairs        0.04719301   -0.00000000   -0.00889859
 Total        1.09108992   -0.06887673   -0.20574200
 +++++++++++++++++++++++++++++++++++++++++++++++++++


 Reference energy                     -23.61713009
 Nuclear energy                         0.00000000
 Kinetic energy                         6.26724728
 One electron energy                  -38.94341064
 Two electron energy                   15.12053855
 Virial quotient                       -3.80116996
 Correlation energy                    -0.20574200
 !MRCI STATE 2.1 Energy               -23.822872091071

 Properties without orbital relaxation:

 !MRCI STATE 2.1 Dipole moment          0.00000000     0.00000000     0.00000000
 Dipole moment /Debye                   0.00000000     0.00000000     0.00000000

 Cluster corrected energies           -23.84161311 (Davidson, fixed reference)
 Cluster corrected energies           -23.84096101 (Davidson, relaxed reference)
 Cluster corrected energies           -23.84161311 (Davidson, rotated reference)

 Cluster corrected energies           -23.83870821 (Pople, fixed reference)
 Cluster corrected energies           -23.83812813 (Pople, relaxed reference)
 Cluster corrected energies           -23.83870821 (Pople, rotated reference)



 RESULTS FOR STATE 3.1
 =====================

 Maximum overlap with reference state  6

 Coefficient of reference function:   C(0) = 0.75698023 (fixed)   0.95874133 (relaxed)   0.95734779 (rotated)

 Energy contributions of configuration classes

 CLASS          SQ.NORM        ECORR1        ECORR2
 +++++++++++++++++++++++++++++++++++++++++++++++++++
 Internals    0.00927333   -0.01043088   -0.13674773
 Singles      0.03462354   -0.05844585   -0.06009569
 Pairs        0.04719299   -0.00000000   -0.00889858
 Total        1.09108986   -0.06887673   -0.20574200
 +++++++++++++++++++++++++++++++++++++++++++++++++++


 Reference energy                     -23.61713009
 Nuclear energy                         0.00000000
 Kinetic energy                         6.26724702
 One electron energy                  -38.94340956
 Two electron energy                   15.12053747
 Virial quotient                       -3.80117012
 Correlation energy                    -0.20574200
 !MRCI STATE 3.1 Energy               -23.822872090977

 Properties without orbital relaxation:

 !MRCI STATE 3.1 Dipole moment          0.00000000     0.00000000     0.00000000
 Dipole moment /Debye                   0.00000000     0.00000000     0.00000000

 Cluster corrected energies           -23.84161310 (Davidson, fixed reference)
 Cluster corrected energies           -23.84096100 (Davidson, relaxed reference)
 Cluster corrected energies           -23.84161310 (Davidson, rotated reference)

 Cluster corrected energies           -23.83870820 (Pople, fixed reference)
 Cluster corrected energies           -23.83812811 (Pople, relaxed reference)
 Cluster corrected energies           -23.83870820 (Pople, rotated reference)



 RESULTS FOR STATE 4.1
 =====================

 Coefficient of reference function:   C(0) = 0.95734781 (fixed)   0.95874134 (relaxed)   0.95734781 (rotated)

 Energy contributions of configuration classes

 CLASS          SQ.NORM        ECORR1        ECORR2
 +++++++++++++++++++++++++++++++++++++++++++++++++++
 Internals    0.00927332   -0.01043088   -0.13674777
 Singles      0.03462344   -0.05844581   -0.06009567
 Pairs        0.04719306    0.00000000   -0.00889856
 Total        1.09108982   -0.06887669   -0.20574200
 +++++++++++++++++++++++++++++++++++++++++++++++++++


 Reference energy                     -23.61713009
 Nuclear energy                         0.00000000
 Kinetic energy                         6.26724676
 One electron energy                  -38.94340769
 Two electron energy                   15.12053560
 Virial quotient                       -3.80117027
 Correlation energy                    -0.20574200
 !MRCI STATE 4.1 Energy               -23.822872090812

 Properties without orbital relaxation:

 !MRCI STATE 4.1 Dipole moment          0.00000000     0.00000000     0.00000000
 Dipole moment /Debye                   0.00000000     0.00000000     0.00000000

 Cluster corrected energies           -23.84161309 (Davidson, fixed reference)
 Cluster corrected energies           -23.84096099 (Davidson, relaxed reference)
 Cluster corrected energies           -23.84161309 (Davidson, rotated reference)

 Cluster corrected energies           -23.83870819 (Pople, fixed reference)
 Cluster corrected energies           -23.83812811 (Pople, relaxed reference)
 Cluster corrected energies           -23.83870819 (Pople, rotated reference)



 RESULTS FOR STATE 5.1
 =====================

 Coefficient of reference function:   C(0) = 0.95734783 (fixed)   0.95874136 (relaxed)   0.95734783 (rotated)

 Energy contributions of configuration classes

 CLASS          SQ.NORM        ECORR1        ECORR2
 +++++++++++++++++++++++++++++++++++++++++++++++++++
 Internals    0.00927331   -0.01043087   -0.13674775
 Singles      0.03462344   -0.05844584   -0.06009568
 Pairs        0.04719302   -0.00000000   -0.00889858
 Total        1.09108977   -0.06887672   -0.20574200
 +++++++++++++++++++++++++++++++++++++++++++++++++++


 Reference energy                     -23.61713009
 Nuclear energy                         0.00000000
 Kinetic energy                         6.26724673
 One electron energy                  -38.94340741
 Two electron energy                   15.12053532
 Virial quotient                       -3.80117029
 Correlation energy                    -0.20574200
 !MRCI STATE 5.1 Energy               -23.822872090777

 Properties without orbital relaxation:

 !MRCI STATE 5.1 Dipole moment          0.00000000     0.00000000     0.00000000
 Dipole moment /Debye                   0.00000000     0.00000000     0.00000000

 Cluster corrected energies           -23.84161308 (Davidson, fixed reference)
 Cluster corrected energies           -23.84096098 (Davidson, relaxed reference)
 Cluster corrected energies           -23.84161308 (Davidson, rotated reference)

 Cluster corrected energies           -23.83870818 (Pople, fixed reference)
 Cluster corrected energies           -23.83812810 (Pople, relaxed reference)
 Cluster corrected energies           -23.83870818 (Pople, rotated reference)



 RESULTS FOR STATE 6.1
 =====================

 Maximum overlap with reference state  3

 Coefficient of reference function:   C(0) = 0.95734783 (fixed)   0.95874136 (relaxed)   0.95734783 (rotated)

 Energy contributions of configuration classes

 CLASS          SQ.NORM        ECORR1        ECORR2
 +++++++++++++++++++++++++++++++++++++++++++++++++++
 Internals    0.00927331   -0.01043087   -0.13674777
 Singles      0.03462342   -0.05844582   -0.06009567
 Pairs        0.04719304   -0.00000000   -0.00889856
 Total        1.09108976   -0.06887669   -0.20574200
 +++++++++++++++++++++++++++++++++++++++++++++++++++


 Reference energy                     -23.61713009
 Nuclear energy                         0.00000000
 Kinetic energy                         6.26724665
 One electron energy                  -38.94340712
 Two electron energy                   15.12053503
 Virial quotient                       -3.80117034
 Correlation energy                    -0.20574200
 !MRCI STATE 6.1 Energy               -23.822872090742

 Properties without orbital relaxation:

 !MRCI STATE 6.1 Dipole moment          0.00000000     0.00000000     0.00000000
 Dipole moment /Debye                   0.00000000     0.00000000     0.00000000

 Cluster corrected energies           -23.84161308 (Davidson, fixed reference)
 Cluster corrected energies           -23.84096098 (Davidson, relaxed reference)
 Cluster corrected energies           -23.84161308 (Davidson, rotated reference)

 Cluster corrected energies           -23.83870818 (Pople, fixed reference)
 Cluster corrected energies           -23.83812810 (Pople, relaxed reference)
 Cluster corrected energies           -23.83870818 (Pople, rotated reference)



 RESULTS FOR STATE 7.1
 =====================

 Coefficient of reference function:   C(0) = 0.95640828 (fixed)   0.95927382 (relaxed)   0.95896045 (rotated)

 Energy contributions of configuration classes

 CLASS          SQ.NORM        ECORR1        ECORR2
 +++++++++++++++++++++++++++++++++++++++++++++++++++
 Internals    0.00872921   -0.01307213   -0.01425493
 Singles      0.03537468   -0.05923860   -0.06109693
 Pairs        0.04331933   -0.13054931   -0.12816070
 Total        1.08742322   -0.20286005   -0.20351256
 +++++++++++++++++++++++++++++++++++++++++++++++++++


 Reference energy                     -23.57660463
 Nuclear energy                         0.00000000
 Kinetic energy                         6.13286952
 One electron energy                  -38.00685541
 Two electron energy                   14.22734050
 Virial quotient                       -3.87738804
 Correlation energy                    -0.20291028
 !MRCI STATE 7.1 Energy               -23.779514908788

 Properties without orbital relaxation:

 !MRCI STATE 7.1 Dipole moment          0.00000000     0.00000000     0.00000000
 Dipole moment /Debye                   0.00000000     0.00000000     0.00000000

 Cluster corrected energies           -23.79725398 (Davidson, fixed reference)
 Cluster corrected energies           -23.79710985 (Davidson, relaxed reference)
 Cluster corrected energies           -23.79725398 (Davidson, rotated reference)

 Cluster corrected energies           -23.79447142 (Pople, fixed reference)
 Cluster corrected energies           -23.79434357 (Pople, relaxed reference)
 Cluster corrected energies           -23.79447142 (Pople, rotated reference)



 **********************************************************************************************************************************
 DATASETS  * FILE   NREC   LENGTH (MB)   RECORD NAMES
              1      21       33.57       500      610      700      900      950      970     1000      129      960     1100   
                                          VAR    BASINP    GEOM    SYMINP    ZMAT    AOBASIS   BASIS     P2S    ABASIS      S 
                                         1400     1410     1420     1200     1210     1080     1700     1600     1650     1380   
                                           T        V       ECP      H0       H01     AOSYM    OPER      SMH    MOLCAS    JKOP   
                                         1700(1)
                                         OPER   

              2       6       28.86       700     1000      520     2100     2140     5101   
                                         GEOM     BASIS   MCVARS     RHF     MCSCF    MRCI   

 PROGRAMS   *        TOTAL        CI     MULTI   RHF-SCF       INT
 CPU TIMES  *        41.22     38.91      1.09      0.11      0.93
 REAL TIME  *        46.39 SEC
 DISK USED  *        62.51 MB (local),      404.41 MB (total)
 SF USED    *       300.74 MB
 GA USED    *         0.00 MB       (max)       0.00 MB       (current)
 **********************************************************************************************************************************
 SETTING HLSDIAG(1)     =       -23.92306234  AU                              
 SETTING HLSDIAG(2)     =       -23.84161311  AU                              
 SETTING HLSDIAG(3)     =       -23.84161310  AU                              
 SETTING HLSDIAG(4)     =       -23.84161309  AU                              
 SETTING HLSDIAG(5)     =       -23.84161308  AU                              
 SETTING HLSDIAG(6)     =       -23.84161308  AU                              
 SETTING HLSDIAG(7)     =       -23.79725398  AU                              


 PROGRAM * CI (Multireference internally contracted CI)     Authors: H.-J. Werner, P.J. Knowles, 1987


 Convergence thresholds:  THRVAR = 1.00D-08  THRDEN = 1.00D-06

 Number of optimized states: 16  Roots:   1   2   3   4   5   6   7   8   9  10  11  12  13  14  15  16
 Number of reference states: 16  Roots:   1   2   3   4   5   6   7   8   9  10  11  12  13  14  15  16

 Reference symmetry:                   1   Triplet 
 Number of electrons:                 10
 Maximum number of shells:             4
 Maximum number of spin couplings:    28

 Reference space:       24 conf       24 CSFs
 N elec internal:     6729 conf    23769 CSFs
 N-1 el internal:     1910 conf     9566 CSFs
 N-2 el internal:      281 conf     1705 CSFs

 Number of electrons in valence space:                     10
 Maximum number of open shell orbitals in reference space:  2
 Maximum number of open shell orbitals in internal spaces:  8


 Number of closed-shell orbitals:   4 (   1   3 )
 Number of active  orbitals:       10 (   7   3 )
 Number of external orbitals:      73 (  30  43 )

 Molecular orbitals read from record     2140.2  Type=MCSCF/NATURAL (state averaged)

 Coulomb and exchange operators available. No transformation done.


 Number of p-space configurations:  24

 Reference wavefunction optimized for reference space (refopt=1)

 State     Reference Energy 
     1       -23.62654583
     2       -23.62654583
     3       -23.62654583
     4       -23.62654583
     5       -23.62654583
     6       -23.58338771
     7       -23.55886697
     8       -23.55886697
     9       -23.55886697
    10       -23.55367185
    11       -23.55367185
    12       -23.55367185
    13       -23.55367185
    14       -23.55367185
    15       -23.55367185
    16       -23.55367185

 Number of blocks in overlap matrix:   329   Smallest eigenvalue:  0.79D+00
 Number of N-2 electron functions:     337
[...]
 44  1     5    1  |1 1>-         0.00%    0.00%    0.00%    0.00%    0.00%    0.00%    0.00%    0.00%
 45  1     6    1  |1 1>-         0.00%    0.00%    0.00%    0.00%    0.00%    0.00%    0.00%    0.00%
 46  1     7    1  |1 1>-         0.00%    0.00%    0.00%    0.00%   23.83%    0.00%    0.00%    0.00%
 47  1     8    1  |1 1>-         0.00%   35.49%    0.00%    0.00%    0.00%    0.00%    0.00%    0.00%
 48  1     9    1  |1 1>-         0.00%    0.00%   35.95%    0.00%    0.00%    0.00%    0.00%    0.00%
 49  1    10    1  |1 1>-         0.00%    0.00%    0.00%   23.81%    0.00%    0.00%    0.00%    0.73%
 50  1    11    1  |1 1>-         0.00%    0.00%    0.00%    0.00%   14.28%    0.00%    0.00%    0.00%
 51  1    12    1  |1 1>-         0.00%    0.00%    2.16%    0.00%    0.00%    0.00%    0.00%    0.00%
 52  1    13    1  |1 1>-         0.00%    2.61%    0.00%    0.00%    0.00%   28.57%    0.00%    0.00%
 53  1    14    1  |1 1>-         0.00%    0.00%    0.00%    0.00%    0.00%    0.00%    0.00%    0.00%
 54  1    15    1  |1 1>-         0.00%    0.00%    0.00%    0.00%    0.00%    0.00%    0.00%    0.00%
 55  1    16    1  |1 1>-         0.25%    0.00%    0.00%    0.00%    0.00%    0.00%   33.07%    0.00%

   Total
 Nr Sym  State Sym Spin / Nr.     33       34       35       36       37       38       39       40

  1  1     1    1  |0 0>          0.00%    0.00%    0.00%    0.00%    0.00%    0.00%    0.00%    0.00%
  2  1     2    1  |0 0>          0.00%    0.00%    0.00%    0.00%    0.00%    0.00%    0.00%    0.00%
  3  1     3    1  |0 0>          0.00%    0.00%    0.00%    0.00%    0.00%    0.00%    0.00%    0.00%
  4  1     4    1  |0 0>          0.00%    0.00%    0.00%    0.00%    0.00%    0.00%    0.00%    0.00%
  5  1     5    1  |0 0>          0.00%    0.00%    0.00%    0.00%    0.00%    0.00%    0.00%    0.00%
  6  1     6    1  |0 0>          0.00%    0.00%    0.00%    0.00%    0.00%    0.00%    0.00%    0.00%
  7  1     7    1  |0 0>          0.00%    0.00%    0.00%    0.00%    0.00%    0.00%    0.00%    0.00%
  8  1     1    1  |1 1>+         0.00%    0.00%    0.00%    0.00%    0.00%    0.00%    0.00%    0.00%
  9  1     2    1  |1 1>+         0.00%    0.00%    0.00%    0.00%    0.00%    0.00%    0.00%    0.00%
 10  1     3    1  |1 1>+         0.00%    0.00%    0.00%    0.00%    0.00%    0.00%    0.00%    0.00%
 11  1     4    1  |1 1>+         0.00%    0.00%    0.00%    0.00%    0.00%    0.00%    0.00%    0.00%
 12  1     5    1  |1 1>+         0.00%    0.00%    0.00%    0.00%    0.00%    0.00%    0.00%    0.00%
 13  1     6    1  |1 1>+         0.00%    0.00%    0.00%    0.00%    0.00%    0.00%    0.03%    0.00%
 14  1     7    1  |1 1>+         0.00%    0.00%    0.00%    5.10%    0.00%    0.00%    0.00%    0.00%
 15  1     8    1  |1 1>+         0.00%    0.00%    0.00%    0.00%    0.01%   12.10%    0.00%    0.00%
 16  1     9    1  |1 1>+         0.00%   12.89%    0.00%    0.00%    0.00%    0.00%    0.00%    0.00%
 17  1    10    1  |1 1>+         0.74%    0.00%   32.58%    0.00%    0.00%    0.00%    0.00%    0.00%
 18  1    11    1  |1 1>+         0.00%    0.00%    0.00%   38.07%    0.00%    0.00%    0.00%    0.00%
 19  1    12    1  |1 1>+         0.00%   20.43%    0.00%    0.00%    0.00%    0.00%    0.00%    0.00%
 20  1    13    1  |1 1>+         0.00%    0.00%    0.00%    0.00%   49.92%   21.30%    0.00%    0.00%
 21  1    14    1  |1 1>+         0.00%    0.00%    0.00%    0.00%    0.00%    0.00%    0.00%   49.99%
 22  1    15    1  |1 1>+         0.00%    0.00%    0.00%    0.00%    0.00%    0.00%    0.00%    0.00%
 23  1    16    1  |1 1>+         0.00%    0.00%    0.00%    0.00%    0.00%    0.00%    0.00%    0.00%
 24  1     1    1  |1 0>          0.00%    0.00%    0.00%    0.00%    0.00%    0.00%    0.00%    0.00%
 25  1     2    1  |1 0>          0.00%    0.00%    0.00%    0.00%    0.00%    0.00%    0.00%    0.00%
 26  1     3    1  |1 0>          0.00%    0.00%    0.00%    0.00%    0.00%    0.00%    0.00%    0.00%
 27  1     4    1  |1 0>          0.00%    0.00%    0.00%    0.00%    0.00%    0.00%    0.00%    0.00%
 28  1     5    1  |1 0>          0.00%    0.00%    0.00%    0.00%    0.00%    0.00%    0.00%    0.00%
 29  1     6    1  |1 0>          0.00%    0.00%    0.00%    0.00%    0.00%    0.00%    0.00%    0.00%
 30  1     7    1  |1 0>          0.00%   33.36%    0.00%    0.00%    0.00%    0.00%    0.00%    0.00%
 31  1     8    1  |1 0>         57.40%    0.00%   17.61%    0.00%    0.00%    0.00%    0.00%    0.00%
 32  1     9    1  |1 0>          0.00%    0.00%    0.00%   17.63%    0.00%    0.00%    0.00%    0.00%
 33  1    10    1  |1 0>          0.00%    0.00%    0.00%    0.00%    0.00%   33.37%    0.00%    0.00%
 34  1    11    1  |1 0>          0.00%    0.00%    0.00%    0.00%    0.00%    0.00%    0.00%    0.00%
 35  1    12    1  |1 0>          0.00%    0.00%    0.00%    6.61%    0.00%    0.00%    0.00%    0.00%
 36  1    13    1  |1 0>          1.74%    0.00%    6.61%    0.00%    0.00%    0.00%    0.00%    0.00%
 37  1    14    1  |1 0>          0.00%    0.00%    0.00%    0.00%    0.00%    0.00%    0.00%    0.00%
 38  1    15    1  |1 0>          0.00%    0.00%    0.00%    0.00%    0.00%    0.00%    0.00%   49.98%
 39  1    16    1  |1 0>          0.00%    0.00%    0.00%    0.00%    0.00%    0.00%   49.98%    0.00%
 40  1     1    1  |1 1>-         0.00%    0.00%    0.00%    0.00%    0.00%    0.00%    0.00%    0.00%
 41  1     2    1  |1 1>-         0.00%    0.00%    0.00%    0.00%    0.00%    0.00%    0.00%    0.00%
 42  1     3    1  |1 1>-         0.00%    0.00%    0.00%    0.00%    0.00%    0.00%    0.00%    0.00%
 43  1     4    1  |1 1>-         0.00%    0.00%    0.00%    0.00%    0.00%    0.00%    0.00%    0.00%
 44  1     5    1  |1 1>-         0.00%    0.00%    0.00%    0.00%    0.00%    0.00%    0.00%    0.00%
 45  1     6    1  |1 1>-         0.00%    0.00%    0.00%    0.00%    0.00%    0.00%    0.00%    0.03%
 46  1     7    1  |1 1>-        28.22%    0.00%    5.10%    0.00%    0.00%    0.00%    0.00%    0.00%
 47  1     8    1  |1 1>-         0.00%   12.89%    0.00%    0.00%    0.00%    0.00%    0.00%    0.00%
 48  1     9    1  |1 1>-         0.00%    0.00%    0.00%    0.00%    0.01%   12.10%    0.00%    0.00%
 49  1    10    1  |1 1>-         0.00%    0.00%    0.00%   32.59%    0.00%    0.00%    0.00%    0.00%
 50  1    11    1  |1 1>-        11.91%    0.00%   38.09%    0.00%    0.00%    0.00%    0.00%    0.00%
 51  1    12    1  |1 1>-         0.00%    0.00%    0.00%    0.00%   50.07%   21.15%    0.00%    0.00%
 52  1    13    1  |1 1>-         0.00%   20.43%    0.00%    0.00%    0.00%    0.00%    0.00%    0.00%
 53  1    14    1  |1 1>-         0.00%    0.00%    0.00%    0.00%    0.00%    0.00%   49.99%    0.00%
 54  1    15    1  |1 1>-         0.00%    0.00%    0.00%    0.00%    0.00%    0.00%    0.00%    0.00%
 55  1    16    1  |1 1>-         0.00%    0.00%    0.00%    0.00%    0.00%    0.00%    0.00%    0.00%

   Total
 Nr Sym  State Sym Spin / Nr.     41       42       43       44       45       46       47       48

  1  1     1    1  |0 0>          0.00%    0.00%    0.00%    0.00%    0.00%    0.00%    0.00%    0.00%
  2  1     2    1  |0 0>          0.00%    0.00%    0.00%    0.00%    0.00%    0.00%    0.00%    0.00%
  3  1     3    1  |0 0>          0.00%    0.00%    0.00%    0.00%    0.00%    0.00%    0.00%    0.00%
  4  1     4    1  |0 0>          0.00%    0.00%    0.00%    0.00%    0.00%    0.00%    0.00%    0.00%
  5  1     5    1  |0 0>          0.00%    0.00%    0.00%    0.00%    0.00%    0.00%    0.00%    0.00%
  6  1     6    1  |0 0>          0.00%    0.00%    0.00%    0.00%    0.00%    0.00%    0.00%    0.00%
  7  1     7    1  |0 0>          0.00%    0.00%    0.00%    0.00%    0.00%    0.00%    0.00%    0.00%
  8  1     1    1  |1 1>+         0.00%    0.00%    0.00%    0.00%    0.00%    0.00%    0.00%    0.00%
  9  1     2    1  |1 1>+         0.00%    0.00%    0.00%    0.00%    0.00%    0.00%    0.00%    0.00%
 10  1     3    1  |1 1>+         0.00%    0.00%    0.00%    0.00%    0.00%    0.00%    0.00%    0.00%
 11  1     4    1  |1 1>+         0.00%    0.00%    0.00%    0.00%    0.00%    0.00%    0.00%    0.00%
 12  1     5    1  |1 1>+         0.00%    0.00%    0.00%    0.00%    0.00%    0.00%    0.00%    0.00%
 13  1     6    1  |1 1>+         0.00%    0.00%    0.00%    0.00%    0.00%    0.00%    0.00%    0.00%
 14  1     7    1  |1 1>+         0.00%    0.00%    0.00%    0.00%   41.43%    0.00%    0.00%    1.43%
 15  1     8    1  |1 1>+         0.00%    0.00%   49.99%    0.00%    0.00%    0.00%    1.96%    0.00%
 16  1     9    1  |1 1>+         0.00%   49.16%    0.00%    0.00%    0.00%    1.62%    0.00%    0.00%
 17  1    10    1  |1 1>+         0.00%    0.00%    0.00%   31.58%    0.00%    0.00%    0.00%    0.00%
 18  1    11    1  |1 1>+         0.00%    0.00%    0.00%    0.00%    1.12%    0.00%    0.00%   34.60%
 19  1    12    1  |1 1>+         0.00%    0.41%    0.00%    0.00%    0.00%   27.02%    0.00%    0.00%
 20  1    13    1  |1 1>+         0.00%    0.00%    0.01%    0.00%    0.00%    0.00%   26.62%    0.00%
 21  1    14    1  |1 1>+         0.00%    0.00%    0.00%    0.00%    0.00%    0.00%    0.00%    0.00%
 22  1    15    1  |1 1>+         0.00%    0.00%    0.00%    0.00%    0.00%    0.00%    0.00%    0.00%
 23  1    16    1  |1 1>+        49.98%    0.00%    0.00%    0.00%    0.00%    0.00%    0.00%    0.00%
 24  1     1    1  |1 0>          0.00%    0.00%    0.00%    0.00%    0.00%    0.00%    0.00%    0.00%
 25  1     2    1  |1 0>          0.00%    0.00%    0.00%    0.00%    0.00%    0.00%    0.00%    0.00%
 26  1     3    1  |1 0>          0.00%    0.00%    0.00%    0.00%    0.00%    0.00%    0.00%    0.00%
 27  1     4    1  |1 0>          0.00%    0.00%    0.00%    0.00%    0.00%    0.00%    0.00%    0.00%
 28  1     5    1  |1 0>          0.00%    0.00%    0.00%    0.00%    0.00%    0.00%    0.00%    0.00%
 29  1     6    1  |1 0>          0.03%    0.00%    0.00%    0.00%    0.00%    0.00%    0.00%    0.00%
 30  1     7    1  |1 0>          0.00%    0.00%    0.00%    0.00%    0.00%   42.83%    0.00%    0.00%
 31  1     8    1  |1 0>          0.00%    0.00%    0.00%   24.04%    0.00%    0.00%    0.00%    0.00%
 32  1     9    1  |1 0>          0.00%    0.00%    0.00%    0.00%   24.04%    0.00%    0.00%    0.94%
 33  1    10    1  |1 0>          0.00%    0.00%    0.00%    0.00%    0.00%    0.00%   42.85%    0.00%
 34  1    11    1  |1 0>          0.00%    0.83%    0.00%    0.00%    0.00%    0.00%    0.00%    0.00%
 35  1    12    1  |1 0>          0.00%    0.00%    0.00%    0.00%    1.83%    0.00%    0.00%   51.74%
 36  1    13    1  |1 0>          0.00%    0.00%    0.00%    1.84%    0.00%    0.00%    0.00%    0.00%
 37  1    14    1  |1 0>          0.00%    0.00%    0.00%    0.00%    0.00%    0.00%    0.00%    0.00%
 38  1    15    1  |1 0>          0.00%    0.00%    0.00%    0.00%    0.00%    0.00%    0.00%    0.00%
 39  1    16    1  |1 0>          0.00%    0.00%    0.00%    0.00%    0.00%    0.00%    0.00%    0.00%
 40  1     1    1  |1 1>-         0.00%    0.00%    0.00%    0.00%    0.00%    0.00%    0.00%    0.00%
 41  1     2    1  |1 1>-         0.00%    0.00%    0.00%    0.00%    0.00%    0.00%    0.00%    0.00%
 42  1     3    1  |1 1>-         0.00%    0.00%    0.00%    0.00%    0.00%    0.00%    0.00%    0.00%
 43  1     4    1  |1 1>-         0.00%    0.00%    0.00%    0.00%    0.00%    0.00%    0.00%    0.00%
 44  1     5    1  |1 1>-         0.00%    0.00%    0.00%    0.00%    0.00%    0.00%    0.00%    0.00%
 45  1     6    1  |1 1>-         0.00%    0.00%    0.00%    0.00%    0.00%    0.00%    0.00%    0.00%
 46  1     7    1  |1 1>-         0.00%    0.00%    0.00%   41.43%    0.00%    0.00%    0.00%    0.00%
 47  1     8    1  |1 1>-         0.00%   49.18%    0.00%    0.00%    0.00%    1.62%    0.00%    0.00%
 48  1     9    1  |1 1>-         0.00%    0.00%   50.00%    0.00%    0.00%    0.00%    1.95%    0.00%
 49  1    10    1  |1 1>-         0.00%    0.00%    0.00%    0.00%   31.58%    0.00%    0.00%   11.29%
 50  1    11    1  |1 1>-         0.00%    0.00%    0.00%    1.12%    0.00%    0.00%    0.00%    0.00%
 51  1    12    1  |1 1>-         0.00%    0.00%    0.01%    0.00%    0.00%    0.00%   26.62%    0.00%
 52  1    13    1  |1 1>-         0.00%    0.42%    0.00%    0.00%    0.00%   26.91%    0.00%    0.00%
 53  1    14    1  |1 1>-         0.00%    0.00%    0.00%    0.00%    0.00%    0.00%    0.00%    0.00%
 54  1    15    1  |1 1>-        49.98%    0.00%    0.00%    0.00%    0.00%    0.00%    0.00%    0.00%
 55  1    16    1  |1 1>-         0.00%    0.00%    0.00%    0.00%    0.00%    0.00%    0.00%    0.00%

   Total
 Nr Sym  State Sym Spin / Nr.     49       50       51       52       53       54       55

  1  1     1    1  |0 0>          0.00%    0.00%    0.00%    0.00%    0.00%    0.00%    0.00%
  2  1     2    1  |0 0>          0.00%    0.00%    0.06%    0.00%    0.00%    0.01%    0.00%
  3  1     3    1  |0 0>          0.00%    0.00%    0.01%    0.00%    0.00%    0.06%    0.00%
  4  1     4    1  |0 0>          0.00%    0.00%    0.00%    0.06%    0.00%    0.00%    0.00%
  5  1     5    1  |0 0>          0.00%    0.00%    0.00%    0.00%    0.00%    0.00%    0.06%
  6  1     6    1  |0 0>          0.00%    0.00%    0.00%    0.00%    0.06%    0.00%    0.00%
  7  1     7    1  |0 0>          0.00%    0.00%    0.00%    0.00%    0.00%    0.00%    0.00%
  8  1     1    1  |1 1>+         0.00%    0.00%    0.00%    0.00%    0.00%    0.00%    0.00%
  9  1     2    1  |1 1>+         0.00%    0.00%    0.00%    0.00%    0.00%    0.00%    0.00%
 10  1     3    1  |1 1>+         0.00%    0.00%    0.00%    0.00%    0.00%    0.00%    0.00%
 11  1     4    1  |1 1>+         0.00%    0.00%    0.00%    0.00%    0.00%    0.00%    0.00%
 12  1     5    1  |1 1>+         0.00%    0.00%    0.00%    0.00%    0.00%    0.00%    0.00%
 13  1     6    1  |1 1>+         0.00%    0.00%    0.00%    0.00%    0.00%    0.00%    0.00%
 14  1     7    1  |1 1>+         0.00%    0.00%    0.00%    0.00%    0.00%    0.00%    0.00%
 15  1     8    1  |1 1>+         0.00%    0.00%    0.00%    0.00%    0.00%    0.00%    0.00%
 16  1     9    1  |1 1>+         0.00%    0.83%    0.00%    0.00%    0.00%    0.00%    0.00%
 17  1    10    1  |1 1>+        11.30%    0.00%    0.00%    0.00%    0.00%    0.00%    0.00%
 18  1    11    1  |1 1>+         0.00%    0.00%    0.00%    0.00%    0.00%    0.00%    0.00%
 19  1    12    1  |1 1>+         0.00%   20.97%    0.00%    0.00%    0.00%    0.00%    0.00%
 20  1    13    1  |1 1>+         0.00%    0.00%    0.00%    0.00%    0.00%    0.00%    0.00%
 21  1    14    1  |1 1>+         0.00%    0.00%    0.00%    0.00%   49.97%    0.00%    0.00%
 22  1    15    1  |1 1>+         0.00%    0.00%   16.43%    0.00%    0.00%   50.20%    0.00%
 23  1    16    1  |1 1>+         0.00%    0.00%    0.00%    0.00%    0.00%    0.00%   49.97%
 24  1     1    1  |1 0>          0.00%    0.00%    0.00%    0.00%    0.00%    0.00%    0.00%
 25  1     2    1  |1 0>          0.00%    0.00%    0.00%    0.00%    0.00%    0.00%    0.00%
 26  1     3    1  |1 0>          0.00%    0.00%    0.00%    0.00%    0.00%    0.00%    0.00%
 27  1     4    1  |1 0>          0.00%    0.00%    0.00%    0.00%    0.00%    0.00%    0.00%
 28  1     5    1  |1 0>          0.00%    0.00%    0.00%    0.00%    0.00%    0.00%    0.00%
 29  1     6    1  |1 0>          0.00%    0.00%    0.00%    0.00%    0.00%    0.00%    0.00%
 30  1     7    1  |1 0>          0.00%    0.00%    0.00%    0.00%    0.00%    0.00%    0.00%
 31  1     8    1  |1 0>          0.94%    0.00%    0.00%    0.00%    0.00%    0.00%    0.00%
 32  1     9    1  |1 0>          0.00%    0.00%    0.00%    0.00%    0.00%    0.00%    0.00%
 33  1    10    1  |1 0>          0.00%    0.00%    0.00%    0.00%    0.00%    0.00%    0.00%
 34  1    11    1  |1 0>          0.00%   56.31%    0.00%    0.00%    0.00%    0.00%    0.00%
 35  1    12    1  |1 0>          0.00%    0.00%    0.00%    0.00%    0.00%    0.00%    0.00%
 36  1    13    1  |1 0>         51.73%    0.00%    0.00%    0.00%    0.00%    0.00%    0.00%
 37  1    14    1  |1 0>          0.00%    0.00%   66.62%    0.00%    0.00%    0.00%    0.00%
 38  1    15    1  |1 0>          0.00%    0.00%    0.00%    0.00%   49.97%    0.00%    0.00%
 39  1    16    1  |1 0>          0.00%    0.00%    0.00%   49.97%    0.00%    0.00%    0.00%
 40  1     1    1  |1 1>-         0.00%    0.00%    0.00%    0.00%    0.00%    0.00%    0.00%
 41  1     2    1  |1 1>-         0.00%    0.00%    0.00%    0.00%    0.00%    0.00%    0.00%
 42  1     3    1  |1 1>-         0.00%    0.00%    0.00%    0.00%    0.00%    0.00%    0.00%
 43  1     4    1  |1 1>-         0.00%    0.00%    0.00%    0.00%    0.00%    0.00%    0.00%
 44  1     5    1  |1 1>-         0.00%    0.00%    0.00%    0.00%    0.00%    0.00%    0.00%
 45  1     6    1  |1 1>-         0.00%    0.00%    0.00%    0.00%    0.00%    0.00%    0.00%
 46  1     7    1  |1 1>-         1.43%    0.00%    0.00%    0.00%    0.00%    0.00%    0.00%
 47  1     8    1  |1 1>-         0.00%    0.82%    0.00%    0.00%    0.00%    0.00%    0.00%
 48  1     9    1  |1 1>-         0.00%    0.00%    0.00%    0.00%    0.00%    0.00%    0.00%
 49  1    10    1  |1 1>-         0.00%    0.00%    0.00%    0.00%    0.00%    0.00%    0.00%
 50  1    11    1  |1 1>-        34.60%    0.00%    0.00%    0.00%    0.00%    0.00%    0.00%
 51  1    12    1  |1 1>-         0.00%    0.00%    0.00%    0.00%    0.00%    0.00%    0.00%
 52  1    13    1  |1 1>-         0.00%   21.07%    0.00%    0.00%    0.00%    0.00%    0.00%
 53  1    14    1  |1 1>-         0.00%    0.00%    0.00%   49.97%    0.00%    0.00%    0.00%
 54  1    15    1  |1 1>-         0.00%    0.00%    0.00%    0.00%    0.00%    0.00%   49.97%
 55  1    16    1  |1 1>-         0.00%    0.00%   16.89%    0.00%    0.00%   49.74%    0.00%



 **********************************************************************************************************************************
 DATASETS  * FILE   NREC   LENGTH (MB)   RECORD NAMES
              1      21       33.57       500      610      700      900      950      970     1000      129      960     1100   
                                          VAR    BASINP    GEOM    SYMINP    ZMAT    AOBASIS   BASIS     P2S    ABASIS      S 
                                         1400     1410     1420     1200     1210     1080     1700     1600     1650     1380   
                                           T        V       ECP      H0       H01     AOSYM    OPER      SMH    MOLCAS    JKOP   
                                         1700(1)
                                         OPER   

              2       7      131.79       700     1000      520     2100     2140     5101     5103   
                                         GEOM     BASIS   MCVARS     RHF     MCSCF    MRCI     MRCI   

 PROGRAMS   *        TOTAL        CI        CI        CI     MULTI   RHF-SCF       INT
 CPU TIMES  *       775.60    561.57    172.79     38.91      1.09      0.11      0.93
 REAL TIME  *       808.39 SEC
 DISK USED  *       165.44 MB (local),     1021.99 MB (total)
 SF USED    *         1.06 GB
 GA USED    *         0.00 MB       (max)       0.00 MB       (current)
 **********************************************************************************************************************************

 CI/aug-cc-pWCVTZ-PP energy=    -23.771440804161

              CI              CI           MULTI         RHF-SCF
    -23.75823883    -23.77951491    -23.55367185    -23.68006961
 **********************************************************************************************************************************
 Molpro calculation terminated with 1 warning(s)
