
 Working directory              : /wrk/irikura/molpro.C2RQO8DE2G/
 Global scratch directory       : /wrk/irikura/molpro.C2RQO8DE2G/
 Wavefunction directory         : /home/irikura/wfu/
 Main file repository           : /wrk/irikura/molpro.C2RQO8DE2G/

 id        : nistki

 Nodes            nprocs
 pn125343.nist.gov    6
 GA implementation: MPI file
 GA implementation (serial work in mppx): MPI file

 Using customized tuning parameters: mindgm=1; mindgv=20; mindgc=4; mindgr=1; noblas=0; minvec=7
 default implementation of scratch files=sf  


 Variables initialized (1042), CPU time= 0.01 sec
 ***,Ra SO-CI
                                                                                 ! larger core [15 19]
 memory,8,G
 
 gprint,orbitals,civector;
 
 symmetry,xyz
 geometry={Ra};
 
 basis=aug-cc-pwCVTZ-X2C
 
 set,dkho=101
 
 {rhf;wf,sym=1,spin=0}
 
 NSING=7
 NTRIP=24
 
                                                                                 ! active space (2/10) as orbitals [7 3]
 {multi
     closed,21,22
     occ,28,25
     wf,sym=1,spin=0;state,NSING;
     wf,sym=1,spin=2;state,NTRIP;
     expec2,lxx,lyy,lzz;
 }
 table, energy, ll
 title, Energies and &lt;L**2&gt; values
 
 core,15,19
 {ci;wf,sym=1,spin=0;state,NSING; save,5101.2}
 hlsdiag = energd4
 {ci;wf,sym=1,spin=2;state,NTRIP; save,5103.2}
 hlsdiag(NSING+1) = energd4
 
 table,hlsdiag
 
 lsint
 {ci;hlsmat,ls,5101.2,5103.2;print,vls=0,hls=0}                                  !compute and diagonalize SO matrix
 Commands initialized (847), CPU time= 0.01 sec, 718 directives.
 Default parameters read. Elapsed time= 0.10 sec

 Checking input...
 Passed
1


                                         ***  PROGRAM SYSTEM MOLPRO  ***
                                       Copyright, TTI GmbH Stuttgart, 2015
                                    Version 2024.1 linked Wed Jan 31 05:42:09 2024


 **********************************************************************************************************************************
 LABEL *   Ra SO-CI                                                                                                                                                      
  (64 PROC) 64 bit mpp version                                                           DATE: 09-May-24          TIME: 11:21:14  
 **********************************************************************************************************************************

 SHA1:             675817fde4514a4a933b69e420913a90cee4ef91
 **********************************************************************************************************************************

 Memory per process:      8000 MW
 Total memory per node:  48000 MW

 GA preallocation disabled
 GA check disabled

 Variable memory set to 8000.0 MW


 ZSYMEL=XYZ

 SETTING BASIS          =    AUG-CC-PWCVTZ-X2C
 SETTING DKHO           =       101.00000000                                  


 Recomputing integrals since basis changed


 Using spherical harmonics

 Library entry RA     S aug-cc-pwCVTZ-X      selected for orbital group  1
 Library entry RA     P aug-cc-pwCVTZ-X      selected for orbital group  1
 Library entry RA     D aug-cc-pwCVTZ-X      selected for orbital group  1
 Library entry RA     F aug-cc-pwCVTZ-X      selected for orbital group  1


 PROGRAM * SEWARD (Integral evaluation for generally contracted gaussian basis sets)     Author: Roland Lindh, 1990

 Geometry written to block  1 of record 700

 Orientation using atomic masses  
 Molecule type: Atom
 User-specified symmetry elements: XYZ
 Symmetry elements: XYZ
 Rotational constants:       0.0000000      0.0000000      0.0000000 GHz  (calculated with average atomic masses)

 Point group  Ci  



 ATOMIC COORDINATES

 NR  ATOM    CHARGE       X              Y              Z

   1  RA     88.00    0.000000000    0.000000000    0.000000000

 NUCLEAR CHARGE:                   88
 NUMBER OF PRIMITIVE AOS:         430
 NUMBER OF SYMMETRY AOS:          359
 NUMBER OF CONTRACTIONS:          125   (   57Ag  +   68Au  )
 NUMBER OF INNER CORE ORBITALS:    39   (   20Ag  +   19Au  )
 NUMBER OF OUTER CORE ORBITALS:     4   (    1Ag  +    3Au  )
 NUMBER OF VALENCE ORBITALS:        1   (    1Ag  +    0Au  )


 NUCLEAR REPULSION ENERGY    0.00000000

 One-electron integrals computed with SEWARD

 eXact-2-Component (X2C) method activated

 Computing Douglas-Kroll / X2C integrals

 AO integral compression algorithm  1   Integral accuracy      1.0D-11

     36.962 MB (compressed) written to integral file ( 13.0%)

     Node minimum: 3.932 MB, node maximum: 8.389 MB


 NUMBER OF SORTED TWO-ELECTRON INTEGRALS:    2626485.     BUFFER LENGTH:  32768
 NUMBER OF SEGMENTS:   1  SEGMENT LENGTH:    2626485      RECORD LENGTH: 524288

 Memory used in sort:       3.18 MW

 SORT1 READ    36081304. AND WROTE      538463. INTEGRALS IN      2 RECORDS. CPU TIME:     0.14 SEC, REAL TIME:     0.16 SEC
 SORT2 READ     3260452. AND WROTE    15753876. INTEGRALS IN    192 RECORDS. CPU TIME:     0.05 SEC, REAL TIME:     0.06 SEC

 Node minimum:     2624806.  Node maximum:     2626485. integrals

 OPERATOR DM      FOR CENTER  0  COORDINATES:    0.000000    0.000000    0.000000

 EXTRA SYMMETRY OF AOS IN SYMMETRY 1:   1 1 1 1 1 1 1 1 1 1   1 1 2 3 4 5 6 2 3 4   5 6 2 3 4 5 6 2 3 4   5 6 2 3 4 5 6 2 3 4
                                        5 6 2 3 4 5 6 2 3 4   5 6 2 3 4 5 6
 EXTRA SYMMETRY OF AOS IN SYMMETRY 2:   1 2 3 1 2 3 1 2 3 1   2 3 1 2 3 1 2 3 1 2   3 1 2 3 1 2 3 1 2 3   1 2 3 4 5 6 7 8 910
                                        4 5 6 7 8 910 4 5 6   7 8 910 4 5 6 7 8 9  10 4 5 6 7 8 910

 Eigenvalues of metric

         1 0.525E-03 0.161E-02 0.161E-02 0.161E-02 0.161E-02 0.161E-02 0.163E-02 0.203E-01
         2 0.243E-02 0.243E-02 0.243E-02 0.514E-02 0.514E-02 0.514E-02 0.700E-01 0.700E-01


 **********************************************************************************************************************************
 DATASETS  * FILE   NREC   LENGTH (MB)   RECORD NAMES
              1      22       30.10       500      610      700      900      950      970     1000      129      960     1700   
                                          VAR    BASINP    GEOM    SYMINP    ZMAT    AOBASIS   BASIS     P2S    ABASIS    OPER   
                                         1101     1401     1411     1412     1650     1100     1400     1410     1200     1210   
                                          SR      EKINR    POTR     PVPR    MOLCAS      S      EKIN      POT      H0       H01  
                                         1080     1600   
                                         AOSYM     SMH  

 PROGRAMS   *        TOTAL       INT
 CPU TIMES  *        14.53     14.36
 REAL TIME  *        17.71 SEC
 DISK USED  *        30.49 MB (local),      248.68 MB (total)
 GA USED    *         0.00 MB       (max)       0.00 MB       (current)
 **********************************************************************************************************************************


 Program * Restricted Hartree-Fock

 Orbital guess generated from atomic densities.

 Initial occupancy:  21  23

 NELEC=   88   SYM=1   MS2= 0   THRE=1.0D-08   THRD=3.2D-06   THRG=3.2D-06  HFMA2=F  DIIS_START=2   DIIS_MAX=10   DIIS_INCORE=F

 Level shifts:    0.00 (CLOSED)    0.00 (OPEN)    0.30 (GAP_MIN)

 ITER           ETOT              DE          GRAD        DDIFF     DIIS  NEXP   TIME(IT)  TIME(TOT)  DIAG
   1   -24984.29449825  -24984.29449825     0.00D+00     0.73D+00     0     0       0.02      0.04    start
   2   -24984.38775570      -0.09325745     0.63D-02     0.19D+00     1     0       0.01      0.05    diag
   3   -24984.39998493      -0.01222923     0.28D-02     0.82D-01     2     0       0.01      0.06    diag
   4   -24984.41003965      -0.01005472     0.91D-03     0.98D-01     3     0       0.02      0.08    diag
   5   -24984.41791696      -0.00787731     0.71D-03     0.52D-01     4     0       0.02      0.10    diag
   6   -24984.40358598       0.01433097     0.79D-03     0.67D-01     5     0       0.01      0.11    diag
   7   -24984.40997326      -0.00638727     0.55D-03     0.11D+00     6     0       0.02      0.13    diag
   8   -24984.41146894      -0.00149568     0.53D-03     0.17D-01     7     0       0.01      0.14    fixocc
   9   -24984.42656859      -0.01509965     0.53D-03     0.11D+00     8     0       0.02      0.16    diag
  10   -24984.45001344      -0.02344485     0.50D-03     0.14D+00     9     0       0.02      0.18    diag/orth
  11   -24984.44742675       0.00258668     0.21D-03     0.36D-01     9     0       0.01      0.19    diag
  12   -24984.45063458      -0.00320783     0.23D-03     0.29D-01     9     0       0.01      0.20    diag
  13   -24984.45063396       0.00000062     0.69D-04     0.61D-02     9     0       0.02      0.22    diag
  14   -24984.45062820       0.00000577     0.44D-04     0.16D-02     9     0       0.02      0.24    diag
  15   -24984.45064760      -0.00001940     0.25D-04     0.11D-02     9     0       0.01      0.25    diag
  16   -24984.45066461      -0.00001702     0.20D-04     0.10D-02     9     0       0.02      0.27    diag
  17   -24984.45069590      -0.00003129     0.17D-04     0.79D-03     9     0       0.01      0.28    diag
  18   -24984.45070477      -0.00000887     0.12D-04     0.54D-03     9     0       0.02      0.30    diag
  19   -24984.45070686      -0.00000210     0.64D-05     0.27D-03     9     0       0.01      0.31    diag
  20   -24984.45070732      -0.00000045     0.36D-05     0.17D-03     9     0       0.02      0.33    diag/orth
  21   -24984.45070732      -0.00000001     0.64D-06     0.91D-05     9     0       0.01      0.34    diag
  22   -24984.45070732      -0.00000000     0.16D-06     0.15D-04     9     0       0.02      0.36    diag
  23   -24984.45070732      -0.00000000     0.43D-07     0.47D-05     9     0       0.01      0.37    diag
  24   -24984.45070732      -0.00000000     0.24D-07     0.23D-05     9     0       0.02      0.39    diag
  25   -24984.45070732       0.00000000     0.20D-07     0.24D-06     0     0       0.01      0.40    diag

 Final occupancy:  21  23

 !RHF STATE 1.1 Energy               -24984.4507073216    
  RHF One-electron energy            -33978.0845091992    
  RHF Two-electron energy            8993.633801877586
  RHF Kinetic energy                  43484.7984750474    
  RHF Nuclear energy                    0.000000000000
  RHF Virial quotient                  -0.574555973202

 !RHF STATE 1.1 Dipole moment           0.00000000     0.00000000     0.00000000
 Dipole moment /Debye                   0.00000000     0.00000000     0.00000000

 ELECTRON ORBITALS
 =================

  Orbital  Occupation    Energy    Cen Mu Typ  Coefficients
    1.1     2.00000 -3845.45322     1  1  s    1.00000
    2.1     2.00000  -713.00331     1  2  s    1.00000
    3.1     2.00000  -180.01283     1  3  s    1.00000
    4.1     2.00000  -118.35011     1  1  d0   0.86602    1  1  d2+  0.50000
    5.1     2.00000  -118.35011     1  1  d1-  1.00000
    6.1     2.00000  -118.34991     1  1  d2-  1.00000
    7.1     2.00000  -118.34991     1  1  d1+  1.00000
    8.1     2.00000  -118.34984     1  1  d0  -0.50000    1  1  d2+  0.86602
    9.1     2.00000   -45.96516     1  4  s    1.00003
   10.1     2.00000   -23.92051     1  2  d1-  1.00000
   11.1     2.00000   -23.92051     1  2  d0   0.86602    1  2  d2+  0.50000
   12.1     2.00000   -23.92004     1  2  d1+  1.00000
   13.1     2.00000   -23.92004     1  2  d2-  1.00000
   14.1     2.00000   -23.91989     1  2  d0  -0.50000    1  2  d2+  0.86602
   15.1     2.00000   -10.25876     1  5  s    0.99902
   16.1     2.00000    -3.23860     1  3  d1-  1.00101
   17.1     2.00000    -3.23860     1  3  d0   0.86690    1  3  d2+  0.50049
   18.1     2.00000    -3.23763     1  3  d1+  1.00102
   19.1     2.00000    -3.23763     1  3  d2-  1.00102
   20.1     2.00000    -3.23729     1  3  d0  -0.50050    1  3  d2+  0.86692
   21.1     2.00000    -1.86382     1  6  s    1.00368
    1.2     2.00000  -604.37766     1  1  pz   1.00000
    2.2     2.00000  -604.37766     1  1  py   1.00000
    3.2     2.00000  -604.37763     1  1  px   1.00000
    4.2     2.00000  -148.96597     1  2  py   1.00000
    5.2     2.00000  -148.96597     1  2  pz   1.00000
    6.2     2.00000  -148.96577     1  2  px   1.00000
    7.2     2.00000   -35.60374     1  3  pz   0.99998
    8.2     2.00000   -35.60374     1  3  py   0.99998
    9.2     2.00000   -35.60328     1  3  px   0.99997
   10.2     2.00000   -11.44759     1  1  f0   0.79057    1  1  f2+  0.61237
   11.2     2.00000   -11.44759     1  1  f1-  0.96824
   12.2     2.00000   -11.44720     1  1  f1+  0.79057    1  1  f3+  0.61237
   13.2     2.00000   -11.44720     1  1  f2-  1.00000
   14.2     2.00000   -11.44696     1  1  f0  -0.61237    1  1  f2+  0.79057
   15.2     2.00000   -11.44696     1  1  f3-  0.96825
   16.2     2.00000   -11.44688     1  1  f1+ -0.61237    1  1  f3+  0.79057
   17.2     2.00000    -7.05017     1  4  pz   1.00091
   18.2     2.00000    -7.05017     1  4  py   1.00091
   19.2     2.00000    -7.04937     1  4  px   1.00132
   20.2     2.00000    -1.04605     1  5  py   1.03386
   21.2     2.00000    -1.04605     1  5  pz   1.03386
   22.2     2.00000    -1.04343     1  5  px   1.04084
   23.2     2.00000    -0.05365     1  6  px   0.82343    1  8  px   0.78813    1 11  px   0.70820


 HOMO     23.2    -0.053645 =      -1.4598eV
 LUMO     22.1    -0.168129 =      -4.5750eV
 LUMO-HOMO        -0.114484 =      -3.1153eV

 Orbitals saved in record  2100.2


 **********************************************************************************************************************************
 DATASETS  * FILE   NREC   LENGTH (MB)   RECORD NAMES
              1      22       30.10       500      610      700      900      950      970     1000      129      960     1700   
                                          VAR    BASINP    GEOM    SYMINP    ZMAT    AOBASIS   BASIS     P2S    ABASIS    OPER   
                                         1101     1401     1411     1412     1650     1100     1400     1410     1200     1210   
                                          SR      EKINR    POTR     PVPR    MOLCAS      S      EKIN      POT      H0       H01  
                                         1080     1600   
                                         AOSYM     SMH  

              2       4        0.53       700     1000      520     2100   
                                         GEOM     BASIS   MCVARS     RHF  

 PROGRAMS   *        TOTAL   RHF-SCF       INT
 CPU TIMES  *        14.94      0.41     14.36
 REAL TIME  *        18.15 SEC
 DISK USED  *        31.30 MB (local),      253.50 MB (total)
 GA USED    *         0.00 MB       (max)       0.00 MB       (current)
 **********************************************************************************************************************************
 SETTING NSING          =         7.00000000                                  
 SETTING NTRIP          =        24.00000000                                  

 PROGRAM * MULTI (Direct Multiconfiguration SCF)       Authors: P.J. Knowles, H.-J. Werner (1984)
                                                                D.A. Kreplin, P.J. Knowles, H.-J. Werner (2019)

 Number of closed-shell orbitals:  43 (   21   22)
 Number of active  orbitals:       10 (    7    3)
 Number of external orbitals:      72 (   29   43)

 State symmetry 1

 Number of active electrons:   2    Spin symmetry=Singlet   Space symmetry=1
 Number of states:             7
 Number of CSFs:              34   (58 determinants, 100 intermediate states)

 State symmetry 2

 Number of active electrons:   2    Spin symmetry=Triplet   Space symmetry=1
 Number of states:            24
 Number of CSFs:              24   (24 determinants, 45 intermediate states)

 Molecular orbitals read from record     2100.2  Type=RHF/CANONICAL  
 *** IN SYMMETRY 1 ORBITAL  4 SYMMETRY CONTAMINATION OF 0.367D+00 HAS BEEN REMOVED
 *** IN SYMMETRY 1 ORBITAL  5 SYMMETRY CONTAMINATION OF 0.270D-02 HAS BEEN REMOVED
 *** IN SYMMETRY 1 ORBITAL  8 SYMMETRY CONTAMINATION OF 0.366D+00 HAS BEEN REMOVED
 *** IN SYMMETRY 1 ORBITAL  9 SYMMETRY CONTAMINATION OF 0.407D-04 HAS BEEN REMOVED
 *** IN SYMMETRY 1 ORBITAL 10 SYMMETRY CONTAMINATION OF 0.356D-04 HAS BEEN REMOVED
 *** IN SYMMETRY 1 ORBITAL 11 SYMMETRY CONTAMINATION OF 0.366D+00 HAS BEEN REMOVED
 *** IN SYMMETRY 1 ORBITAL 12 SYMMETRY CONTAMINATION OF 0.420D-04 HAS BEEN REMOVED
 *** IN SYMMETRY 1 ORBITAL 13 SYMMETRY CONTAMINATION OF 0.420D-04 HAS BEEN REMOVED
 *** IN SYMMETRY 1 ORBITAL 14 SYMMETRY CONTAMINATION OF 0.366D+00 HAS BEEN REMOVED
 *** IN SYMMETRY 1 ORBITAL 15 SYMMETRY CONTAMINATION OF 0.352D-03 HAS BEEN REMOVED
 *** IN SYMMETRY 1 ORBITAL 17 SYMMETRY CONTAMINATION OF 0.366D+00 HAS BEEN REMOVED
 *** IN SYMMETRY 1 ORBITAL 20 SYMMETRY CONTAMINATION OF 0.367D+00 HAS BEEN REMOVED
 *** IN SYMMETRY 1 ORBITAL 21 SYMMETRY CONTAMINATION OF 0.167D-01 HAS BEEN REMOVED
 *** IN SYMMETRY 1 ORBITAL 22 SYMMETRY CONTAMINATION OF 0.536D-01 HAS BEEN REMOVED
 *** IN SYMMETRY 1 ORBITAL 23 SYMMETRY CONTAMINATION OF 0.366D+00 HAS BEEN REMOVED
 *** IN SYMMETRY 1 ORBITAL 27 SYMMETRY CONTAMINATION OF 0.455D+00 HAS BEEN REMOVED
 *** IN SYMMETRY 1 ORBITAL 28 SYMMETRY CONTAMINATION OF 0.104D+00 HAS BEEN REMOVED

 EXTRA SYMMETRY OF MOS IN SYMMETRY 1:   1 1 1 2 6 3 4 5 1 6   2 4 3 5 1 6 2 4 3 5   1 1 2 6 4 3 5 1 2 6   3 4 5 1 6 2 4 3 5 1
                                        2 6 4 3 5 1 6 2 3 4   5 6 2 3 4 5 1
 *** IN SYMMETRY 2 ORBITAL  1 SYMMETRY CONTAMINATION OF 0.765D-03 HAS BEEN REMOVED
 *** IN SYMMETRY 2 ORBITAL  2 SYMMETRY CONTAMINATION OF 0.765D-03 HAS BEEN REMOVED
 *** IN SYMMETRY 2 ORBITAL  4 SYMMETRY CONTAMINATION OF 0.459D-03 HAS BEEN REMOVED
 *** IN SYMMETRY 2 ORBITAL  5 SYMMETRY CONTAMINATION OF 0.459D-03 HAS BEEN REMOVED
 *** IN SYMMETRY 2 ORBITAL  7 SYMMETRY CONTAMINATION OF 0.423D-04 HAS BEEN REMOVED
 *** IN SYMMETRY 2 ORBITAL  8 SYMMETRY CONTAMINATION OF 0.396D-04 HAS BEEN REMOVED
 *** IN SYMMETRY 2 ORBITAL  9 SYMMETRY CONTAMINATION OF 0.251D-04 HAS BEEN REMOVED
 *** IN SYMMETRY 2 ORBITAL 10 SYMMETRY CONTAMINATION OF 0.437D+00 HAS BEEN REMOVED
 *** IN SYMMETRY 2 ORBITAL 11 SYMMETRY CONTAMINATION OF 0.207D+00 HAS BEEN REMOVED
 *** IN SYMMETRY 2 ORBITAL 12 SYMMETRY CONTAMINATION OF 0.438D+00 HAS BEEN REMOVED
 *** IN SYMMETRY 2 ORBITAL 13 SYMMETRY CONTAMINATION OF 0.398D-02 HAS BEEN REMOVED
 *** IN SYMMETRY 2 ORBITAL 14 SYMMETRY CONTAMINATION OF 0.437D+00 HAS BEEN REMOVED
 *** IN SYMMETRY 2 ORBITAL 15 SYMMETRY CONTAMINATION OF 0.205D+00 HAS BEEN REMOVED
 *** IN SYMMETRY 2 ORBITAL 16 SYMMETRY CONTAMINATION OF 0.437D+00 HAS BEEN REMOVED
 *** IN SYMMETRY 2 ORBITAL 17 SYMMETRY CONTAMINATION OF 0.301D-03 HAS BEEN REMOVED
 *** IN SYMMETRY 2 ORBITAL 18 SYMMETRY CONTAMINATION OF 0.261D-03 HAS BEEN REMOVED
 *** IN SYMMETRY 2 ORBITAL 19 SYMMETRY CONTAMINATION OF 0.356D-03 HAS BEEN REMOVED
 *** IN SYMMETRY 2 ORBITAL 20 SYMMETRY CONTAMINATION OF 0.286D-02 HAS BEEN REMOVED
 *** IN SYMMETRY 2 ORBITAL 21 SYMMETRY CONTAMINATION OF 0.330D-02 HAS BEEN REMOVED
 *** IN SYMMETRY 2 ORBITAL 22 SYMMETRY CONTAMINATION OF 0.413D-02 HAS BEEN REMOVED
 *** IN SYMMETRY 2 ORBITAL 23 SYMMETRY CONTAMINATION OF 0.617D-01 HAS BEEN REMOVED
 *** IN SYMMETRY 2 ORBITAL 24 SYMMETRY CONTAMINATION OF 0.562D-01 HAS BEEN REMOVED
 *** IN SYMMETRY 2 ORBITAL 25 SYMMETRY CONTAMINATION OF 0.492D-01 HAS BEEN REMOVED
 EXTRA SYMMETRY OF MOS IN SYMMETRY 2:   3 2 1 2 3 1 3 2 1 6   5 4 810 9 7 3 2 1 2   3 1 1 3 2 1 3 2 3 2   6 5 1 8 410 9 1 3 2
                                        5 6 1 4 810 9 7 6 5   8 4 910 7 3 2 1 6 5   8 4 910 7 2 3 7

 Wavefunction dump at record             2140.2

 Convergence thresholds  0.10E-04 (gradient)  0.10E-05 (energy)

 Weight factors for state symmetry  1:    0.03226   0.03226   0.03226   0.03226   0.03226   0.03226   0.03226
 Weight factors for state symmetry  2:    0.03226   0.03226   0.03226   0.03226   0.03226   0.03226   0.03226   0.03226
                                          0.03226   0.03226   0.03226   0.03226   0.03226   0.03226   0.03226   0.03226
                                          0.03226   0.03226   0.03226   0.03226   0.03226   0.03226   0.03226   0.03226
 
 Number of orbital rotations:  2100  ( 213 closed/active, 1555 closed/virtual, 0 active/active, 332 active/virtual )
 Total number of variables:    3082
 
 Second-order MCSCF: L-BFGS accelerated
 
 ITER  MIC  NCI  NEG     ENERGY(VAR)    ENERGY(PROJ) ENERGY CHANGE       GRAD(0)  GRAD(ORB)   GRAD(CI)      STEP      TIME
   1    8   14    1 -24984.65077547  -24984.66540111   -0.01462563    0.11177517 0.00053026 0.00000000  0.11E+01      2.51
   2    8   12    0 -24984.66570588  -24984.66588640   -0.00018051    0.00474688 0.00000098 0.00000000  0.13E+00      5.36
   3    8   12    0 -24984.66588809  -24984.66588814   -0.00000005    0.00004202 0.00000000 0.00000000  0.22E-02      7.72
   4    6    8    0 -24984.66588814  -24984.66588814   -0.00000000    0.00000001 0.00000001 0.00000000  0.83E-06      9.47

 CONVERGENCE REACHED!  Final gradient:    0.00000000 ( 0.14E-08)
                       Final energy: -24984.66588814
 
 Results for state 1.1 Singlet
 =============================
 !MCSCF STATE 1.1 Singlet Energy              -24984.7914872068    
 Nuclear energy                                  0.00000000
 Kinetic energy                              43485.54445950
 One electron energy                        -33998.72701200
 Two electron energy                          9013.93552479
 Virial ratio                                    1.57455395
 
 !MCSCF STATE 1.1 Singlet Dipole moment          0.00000000     0.00000000     0.00000000
 Dipole moment /Debye                            0.00000000     0.00000000     0.00000000
 
 Results for state 2.1 Singlet
 =============================
 !MCSCF STATE 2.1 Singlet Energy              -24984.7105152627    
 Nuclear energy                                  0.00000000
 Kinetic energy                              43485.28747771
 One electron energy                        -34000.33436476
 Two electron energy                          9015.62384950
 Virial ratio                                    1.57455549
 
 !MCSCF STATE 2.1 Singlet Dipole moment          0.00000000     0.00000000     0.00000000
 Dipole moment /Debye                            0.00000000     0.00000000     0.00000000
 
 Results for state 3.1 Singlet
 =============================
 !MCSCF STATE 3.1 Singlet Energy              -24984.7105152627    
 Nuclear energy                                  0.00000000
 Kinetic energy                              43485.28747772
 One electron energy                        -34000.33436479
 Two electron energy                          9015.62384952
 Virial ratio                                    1.57455549
 
 !MCSCF STATE 3.1 Singlet Dipole moment          0.00000000     0.00000000     0.00000000
 Dipole moment /Debye                            0.00000000     0.00000000     0.00000000
 
 Results for state 4.1 Singlet
 =============================
 !MCSCF STATE 4.1 Singlet Energy              -24984.7105152627    
 Nuclear energy                                  0.00000000
 Kinetic energy                              43485.28747771
 One electron energy                        -34000.33436474
 Two electron energy                          9015.62384948
 Virial ratio                                    1.57455549
 
 !MCSCF STATE 4.1 Singlet Dipole moment          0.00000000     0.00000000     0.00000000
 Dipole moment /Debye                            0.00000000     0.00000000     0.00000000
 
 Results for state 5.1 Singlet
 =============================
 !MCSCF STATE 5.1 Singlet Energy              -24984.7105152625    
 Nuclear energy                                  0.00000000
 Kinetic energy                              43485.28747771
 One electron energy                        -34000.33436473
 Two electron energy                          9015.62384947
 Virial ratio                                    1.57455549
 
 !MCSCF STATE 5.1 Singlet Dipole moment          0.00000000     0.00000000     0.00000000
 Dipole moment /Debye                            0.00000000     0.00000000     0.00000000
 
 Results for state 6.1 Singlet
 =============================
 !MCSCF STATE 6.1 Singlet Energy              -24984.7105152625    
 Nuclear energy                                  0.00000000
 Kinetic energy                              43485.28747772
 One electron energy                        -34000.33436488
 Two electron energy                          9015.62384961
 Virial ratio                                    1.57455549
 
 !MCSCF STATE 6.1 Singlet Dipole moment          0.00000000     0.00000000     0.00000000
 Dipole moment /Debye                            0.00000000     0.00000000     0.00000000
 
 Results for state 7.1 Singlet
 =============================
 !MCSCF STATE 7.1 Singlet Energy              -24984.6711697950    
 Nuclear energy                                  0.00000000
 Kinetic energy                              43484.99202155
 One electron energy                        -33989.94691978
 Two electron energy                          9005.27574999
 Virial ratio                                    1.57455849
 
 !MCSCF STATE 7.1 Singlet Dipole moment          0.00000000     0.00000000     0.00000000
 Dipole moment /Debye                            0.00000000     0.00000000     0.00000000
 
 Results for state 1.1 Triplet
 =============================
 !MCSCF STATE 1.1 Triplet Energy              -24984.7209705948    
 Nuclear energy                                  0.00000000
 Kinetic energy                              43485.46063810
 One electron energy                        -34001.83907157
 Two electron energy                          9017.11810097
 Virial ratio                                    1.57455344
 
 !MCSCF STATE 1.1 Triplet Dipole moment          0.00000000     0.00000000     0.00000000
 Dipole moment /Debye                            0.00000000     0.00000000     0.00000000
 
 Results for state 2.1 Triplet
 =============================
 !MCSCF STATE 2.1 Triplet Energy              -24984.7209705948    
 Nuclear energy                                  0.00000000
 Kinetic energy                              43485.46063808
 One electron energy                        -34001.83907140
 Two electron energy                          9017.11810080
 Virial ratio                                    1.57455344
 
 !MCSCF STATE 2.1 Triplet Dipole moment          0.00000000     0.00000000     0.00000000
 Dipole moment /Debye                            0.00000000     0.00000000     0.00000000
 
 Results for state 3.1 Triplet
 =============================
 !MCSCF STATE 3.1 Triplet Energy              -24984.7209705947    
 Nuclear energy                                  0.00000000
 Kinetic energy                              43485.46063809
 One electron energy                        -34001.83907144
 Two electron energy                          9017.11810084
 Virial ratio                                    1.57455344
 
 !MCSCF STATE 3.1 Triplet Dipole moment          0.00000000     0.00000000     0.00000000
 Dipole moment /Debye                            0.00000000     0.00000000     0.00000000
 
 Results for state 4.1 Triplet
 =============================
 !MCSCF STATE 4.1 Triplet Energy              -24984.7209705947    
 Nuclear energy                                  0.00000000
 Kinetic energy                              43485.46063808
 One electron energy                        -34001.83907139
 Two electron energy                          9017.11810080
 Virial ratio                                    1.57455344
 
 !MCSCF STATE 4.1 Triplet Dipole moment          0.00000000     0.00000000     0.00000000
 Dipole moment /Debye                            0.00000000     0.00000000     0.00000000
 
 Results for state 5.1 Triplet
 =============================
 !MCSCF STATE 5.1 Triplet Energy              -24984.7209705947    
 Nuclear energy                                  0.00000000
 Kinetic energy                              43485.46063808
 One electron energy                        -34001.83907141
 Two electron energy                          9017.11810081
 Virial ratio                                    1.57455344
 
 !MCSCF STATE 5.1 Triplet Dipole moment          0.00000000     0.00000000     0.00000000
 Dipole moment /Debye                            0.00000000     0.00000000     0.00000000
 
 Results for state 6.1 Triplet
 =============================
 !MCSCF STATE 6.1 Triplet Energy              -24984.6766985552    
 Nuclear energy                                  0.00000000
 Kinetic energy                              43484.77065698
 One electron energy                        -33987.61657076
 Two electron energy                          9002.93987221
 Virial ratio                                    1.57456154
 
 !MCSCF STATE 6.1 Triplet Dipole moment          0.00000000     0.00000000     0.00000000
 Dipole moment /Debye                            0.00000000     0.00000000     0.00000000
 
 Results for state 7.1 Triplet
 =============================
 !MCSCF STATE 7.1 Triplet Energy              -24984.6518666423    
 Nuclear energy                                  0.00000000
 Kinetic energy                              43484.84256105
 One electron energy                        -33997.24254571
 Two electron energy                          9012.59067907
 Virial ratio                                    1.57456002
 
 !MCSCF STATE 7.1 Triplet Dipole moment          0.00000000     0.00000000     0.00000000
 Dipole moment /Debye                            0.00000000     0.00000000     0.00000000
 
 Results for state 8.1 Triplet
 =============================
 !MCSCF STATE 8.1 Triplet Energy              -24984.6518666423    
 Nuclear energy                                  0.00000000
 Kinetic energy                              43484.84256105
 One electron energy                        -33997.24254579
 Two electron energy                          9012.59067914
 Virial ratio                                    1.57456002
 
 !MCSCF STATE 8.1 Triplet Dipole moment          0.00000000     0.00000000     0.00000000
 Dipole moment /Debye                            0.00000000     0.00000000     0.00000000
 
 Results for state 9.1 Triplet
 =============================
 !MCSCF STATE 9.1 Triplet Energy              -24984.6518666422    
 Nuclear energy                                  0.00000000
 Kinetic energy                              43484.84256104
 One electron energy                        -33997.24254569
 Two electron energy                          9012.59067904
 Virial ratio                                    1.57456002
 
 !MCSCF STATE 9.1 Triplet Dipole moment          0.00000000     0.00000000     0.00000000
 Dipole moment /Debye                            0.00000000     0.00000000     0.00000000
 
 Results for state 10.1 Triplet
 ==============================
 !MCSCF STATE 10.1 Triplet Energy             -24984.6474603204    
 Nuclear energy                                  0.00000000
 Kinetic energy                              43485.30231238
 One electron energy                        -34004.50836060
 Two electron energy                          9019.86090028
 Virial ratio                                    1.57455384
 
 !MCSCF STATE 10.1 Triplet Dipole moment         0.00000000     0.00000000     0.00000000
 Dipole moment /Debye                            0.00000000     0.00000000     0.00000000
 
 Results for state 11.1 Triplet
 ==============================
 !MCSCF STATE 11.1 Triplet Energy             -24984.6474603204    
 Nuclear energy                                  0.00000000
 Kinetic energy                              43485.30231238
 One electron energy                        -34004.50836059
 Two electron energy                          9019.86090027
 Virial ratio                                    1.57455384
 
 !MCSCF STATE 11.1 Triplet Dipole moment         0.00000000     0.00000000     0.00000000
 Dipole moment /Debye                            0.00000000     0.00000000     0.00000000
 
 Results for state 12.1 Triplet
 ==============================
 !MCSCF STATE 12.1 Triplet Energy             -24984.6474603204    
 Nuclear energy                                  0.00000000
 Kinetic energy                              43485.30231239
 One electron energy                        -34004.50836064
 Two electron energy                          9019.86090032
 Virial ratio                                    1.57455384
 
 !MCSCF STATE 12.1 Triplet Dipole moment         0.00000000     0.00000000     0.00000000
 Dipole moment /Debye                            0.00000000     0.00000000     0.00000000
 
 Results for state 13.1 Triplet
 ==============================
 !MCSCF STATE 13.1 Triplet Energy             -24984.6474603203    
 Nuclear energy                                  0.00000000
 Kinetic energy                              43485.30231239
 One electron energy                        -34004.50836065
 Two electron energy                          9019.86090033
 Virial ratio                                    1.57455384
 
 !MCSCF STATE 13.1 Triplet Dipole moment         0.00000000     0.00000000     0.00000000
 Dipole moment /Debye                            0.00000000     0.00000000     0.00000000
 
 Results for state 14.1 Triplet
 ==============================
 !MCSCF STATE 14.1 Triplet Energy             -24984.6474603203    
 Nuclear energy                                  0.00000000
 Kinetic energy                              43485.30231240
 One electron energy                        -34004.50836072
 Two electron energy                          9019.86090040
 Virial ratio                                    1.57455384
 
 !MCSCF STATE 14.1 Triplet Dipole moment         0.00000000     0.00000000     0.00000000
 Dipole moment /Debye                            0.00000000     0.00000000     0.00000000
 
 Results for state 15.1 Triplet
 ==============================
 !MCSCF STATE 15.1 Triplet Energy             -24984.6474603203    
 Nuclear energy                                  0.00000000
 Kinetic energy                              43485.30231240
 One electron energy                        -34004.50836075
 Two electron energy                          9019.86090043
 Virial ratio                                    1.57455384
 
 !MCSCF STATE 15.1 Triplet Dipole moment         0.00000000     0.00000000     0.00000000
 Dipole moment /Debye                            0.00000000     0.00000000     0.00000000
 
 Results for state 16.1 Triplet
 ==============================
 !MCSCF STATE 16.1 Triplet Energy             -24984.6474603203    
 Nuclear energy                                  0.00000000
 Kinetic energy                              43485.30231240
 One electron energy                        -34004.50836077
 Two electron energy                          9019.86090045
 Virial ratio                                    1.57455384
 
 !MCSCF STATE 16.1 Triplet Dipole moment         0.00000000     0.00000000     0.00000000
 Dipole moment /Debye                            0.00000000     0.00000000     0.00000000
 
 Results for state 17.1 Triplet
 ==============================
 !MCSCF STATE 17.1 Triplet Energy             -24984.6079572257    
 Nuclear energy                                  0.00000000
 Kinetic energy                              43484.61233130
 One electron energy                        -33990.28586014
 Two electron energy                          9005.67790291
 Virial ratio                                    1.57456205
 
 !MCSCF STATE 17.1 Triplet Dipole moment         0.00000000     0.00000000     0.00000000
 Dipole moment /Debye                            0.00000000     0.00000000     0.00000000
 
 Results for state 18.1 Triplet
 ==============================
 !MCSCF STATE 18.1 Triplet Energy             -24984.6079572252    
 Nuclear energy                                  0.00000000
 Kinetic energy                              43484.61233128
 One electron energy                        -33990.28585999
 Two electron energy                          9005.67790277
 Virial ratio                                    1.57456205
 
 !MCSCF STATE 18.1 Triplet Dipole moment         0.00000000     0.00000000     0.00000000
 Dipole moment /Debye                            0.00000000     0.00000000     0.00000000
 
 Results for state 19.1 Triplet
 ==============================
 !MCSCF STATE 19.1 Triplet Energy             -24984.6079572252    
 Nuclear energy                                  0.00000000
 Kinetic energy                              43484.61233128
 One electron energy                        -33990.28585995
 Two electron energy                          9005.67790272
 Virial ratio                                    1.57456205
 
 !MCSCF STATE 19.1 Triplet Dipole moment         0.00000000     0.00000000     0.00000000
 Dipole moment /Debye                            0.00000000     0.00000000     0.00000000
 
 Results for state 20.1 Triplet
 ==============================
 !MCSCF STATE 20.1 Triplet Energy             -24984.6079572251    
 Nuclear energy                                  0.00000000
 Kinetic energy                              43484.61233128
 One electron energy                        -33990.28585996
 Two electron energy                          9005.67790273
 Virial ratio                                    1.57456205
 
 !MCSCF STATE 20.1 Triplet Dipole moment         0.00000000     0.00000000     0.00000000
 Dipole moment /Debye                            0.00000000     0.00000000     0.00000000
 
 Results for state 21.1 Triplet
 ==============================
 !MCSCF STATE 21.1 Triplet Energy             -24984.6079572251    
 Nuclear energy                                  0.00000000
 Kinetic energy                              43484.61233128
 One electron energy                        -33990.28585994
 Two electron energy                          9005.67790272
 Virial ratio                                    1.57456205
 
 !MCSCF STATE 21.1 Triplet Dipole moment         0.00000000     0.00000000     0.00000000
 Dipole moment /Debye                            0.00000000     0.00000000     0.00000000
 
 Results for state 22.1 Triplet
 ==============================
 !MCSCF STATE 22.1 Triplet Energy             -24984.6060463931    
 Nuclear energy                                  0.00000000
 Kinetic energy                              43484.86208587
 One electron energy                        -33997.55111197
 Two electron energy                          9012.94506558
 Virial ratio                                    1.57455870
 
 !MCSCF STATE 22.1 Triplet Dipole moment         0.00000000     0.00000000     0.00000000
 Dipole moment /Debye                            0.00000000     0.00000000     0.00000000
 
 Results for state 23.1 Triplet
 ==============================
 !MCSCF STATE 23.1 Triplet Energy             -24984.6060463930    
 Nuclear energy                                  0.00000000
 Kinetic energy                              43484.86208587
 One electron energy                        -33997.55111193
 Two electron energy                          9012.94506554
 Virial ratio                                    1.57455870
 
 !MCSCF STATE 23.1 Triplet Dipole moment         0.00000000     0.00000000     0.00000000
 Dipole moment /Debye                            0.00000000     0.00000000     0.00000000
 
 Results for state 24.1 Triplet
 ==============================
 !MCSCF STATE 24.1 Triplet Energy             -24984.6060463928    
 Nuclear energy                                  0.00000000
 Kinetic energy                              43484.86208587
 One electron energy                        -33997.55111198
 Two electron energy                          9012.94506559
 Virial ratio                                    1.57455870
 
 !MCSCF STATE 24.1 Triplet Dipole moment         0.00000000     0.00000000     0.00000000
 Dipole moment /Debye                            0.00000000     0.00000000     0.00000000
 
 State-averaged charge density matrix saved on record 2140.2 (density set 1)
 
 No non-zero expectation values
 
 Expectation values for two-electron operators:
 
 ? Warning
 ? Transition properties are only calculated between states of the same symmetry
 ? The problem occurs in mu_properties_expec2

 !MCSCF expec      <1.1 Singlet|LXLX|1.1 Singlet>     0.000000000000
 !MCSCF expec      <2.1 Singlet|LXLX|2.1 Singlet>     3.663221898328
 !MCSCF expec      <3.1 Singlet|LXLX|3.1 Singlet>     3.999995938020
 !MCSCF expec      <4.1 Singlet|LXLX|4.1 Singlet>     1.000000012507
 !MCSCF expec      <5.1 Singlet|LXLX|5.1 Singlet>     0.336781809518
 !MCSCF expec      <6.1 Singlet|LXLX|6.1 Singlet>     0.999999927244
 !MCSCF expec      <7.1 Singlet|LXLX|7.1 Singlet>     0.000000000000
 !MCSCF expec      <1.1 Triplet|LXLX|1.1 Triplet>     0.999999541025
 !MCSCF expec      <2.1 Triplet|LXLX|2.1 Triplet>     0.917546388215
 !MCSCF expec      <3.1 Triplet|LXLX|3.1 Triplet>     3.999997140415
 !MCSCF expec      <4.1 Triplet|LXLX|4.1 Triplet>     1.000000213904
 !MCSCF expec      <5.1 Triplet|LXLX|5.1 Triplet>     3.082456735733
 !MCSCF expec      <6.1 Triplet|LXLX|6.1 Triplet>     0.000000000000
 !MCSCF expec      <7.1 Triplet|LXLX|7.1 Triplet>     0.999999237754
 !MCSCF expec      <8.1 Triplet|LXLX|8.1 Triplet>     0.000000770591
 !MCSCF expec      <9.1 Triplet|LXLX|9.1 Triplet>     0.999999991654
 !MCSCF expec    <10.1 Triplet|LXLX|10.1 Triplet>     1.957405476231
 !MCSCF expec    <11.1 Triplet|LXLX|11.1 Triplet>     3.999988972390
 !MCSCF expec    <12.1 Triplet|LXLX|12.1 Triplet>     3.354195462720
 !MCSCF expec    <13.1 Triplet|LXLX|13.1 Triplet>     5.897000481974
 !MCSCF expec    <14.1 Triplet|LXLX|14.1 Triplet>     0.645812105575
 !MCSCF expec    <15.1 Triplet|LXLX|15.1 Triplet>     8.042594241813
 !MCSCF expec    <16.1 Triplet|LXLX|16.1 Triplet>     4.103004706133
 !MCSCF expec    <17.1 Triplet|LXLX|17.1 Triplet>     1.000000021970
 !MCSCF expec    <18.1 Triplet|LXLX|18.1 Triplet>     3.999999782916
 !MCSCF expec    <19.1 Triplet|LXLX|19.1 Triplet>     0.853341289282
 !MCSCF expec    <20.1 Triplet|LXLX|20.1 Triplet>     3.146648726296
 !MCSCF expec    <21.1 Triplet|LXLX|21.1 Triplet>     0.999999986495
 !MCSCF expec    <22.1 Triplet|LXLX|22.1 Triplet>     0.999999999056
 !MCSCF expec    <23.1 Triplet|LXLX|23.1 Triplet>     0.999999999231
 !MCSCF expec    <24.1 Triplet|LXLX|24.1 Triplet>     0.000000001736
 
 !MCSCF expec      <1.1 Singlet|LYLY|1.1 Singlet>     0.000000000000
 !MCSCF expec      <2.1 Singlet|LYLY|2.1 Singlet>     2.130290184865
 !MCSCF expec      <3.1 Singlet|LYLY|3.1 Singlet>     1.000015222395
 !MCSCF expec      <4.1 Singlet|LYLY|4.1 Singlet>     3.999999935383
 !MCSCF expec      <5.1 Singlet|LYLY|5.1 Singlet>     1.869695182372
 !MCSCF expec      <6.1 Singlet|LYLY|6.1 Singlet>     1.000000208543
 !MCSCF expec      <7.1 Singlet|LYLY|7.1 Singlet>     0.000000000000
 !MCSCF expec      <1.1 Triplet|LYLY|1.1 Triplet>     1.000003413250
 !MCSCF expec      <2.1 Triplet|LYLY|2.1 Triplet>     1.084786377959
 !MCSCF expec      <3.1 Triplet|LYLY|3.1 Triplet>     1.000000282968
 !MCSCF expec      <4.1 Triplet|LYLY|4.1 Triplet>     3.999999450593
 !MCSCF expec      <5.1 Triplet|LYLY|5.1 Triplet>     2.915210470517
 !MCSCF expec      <6.1 Triplet|LYLY|6.1 Triplet>     0.000000000000
 !MCSCF expec      <7.1 Triplet|LYLY|7.1 Triplet>     0.000000811104
 !MCSCF expec      <8.1 Triplet|LYLY|8.1 Triplet>     0.999999237789
 !MCSCF expec      <9.1 Triplet|LYLY|9.1 Triplet>     0.999999951058
 !MCSCF expec    <10.1 Triplet|LYLY|10.1 Triplet>     3.637423973698
 !MCSCF expec    <11.1 Triplet|LYLY|11.1 Triplet>     3.999966553154
 !MCSCF expec    <12.1 Triplet|LYLY|12.1 Triplet>     1.472829237325
 !MCSCF expec    <13.1 Triplet|LYLY|13.1 Triplet>     6.102287473307
 !MCSCF expec    <14.1 Triplet|LYLY|14.1 Triplet>     8.527206455381
 !MCSCF expec    <15.1 Triplet|LYLY|15.1 Triplet>     0.362579259755
 !MCSCF expec    <16.1 Triplet|LYLY|16.1 Triplet>     3.897698721387
 !MCSCF expec    <17.1 Triplet|LYLY|17.1 Triplet>     0.999999999549
 !MCSCF expec    <18.1 Triplet|LYLY|18.1 Triplet>     1.000000193898
 !MCSCF expec    <19.1 Triplet|LYLY|19.1 Triplet>     1.154216938748
 !MCSCF expec    <20.1 Triplet|LYLY|20.1 Triplet>     2.845794166611
 !MCSCF expec    <21.1 Triplet|LYLY|21.1 Triplet>     3.999999974403
 !MCSCF expec    <22.1 Triplet|LYLY|22.1 Triplet>     0.999999980029
 !MCSCF expec    <23.1 Triplet|LYLY|23.1 Triplet>     0.000000020739
 !MCSCF expec    <24.1 Triplet|LYLY|24.1 Triplet>     0.999999999208
 
 !MCSCF expec      <1.1 Singlet|LZLZ|1.1 Singlet>     0.000000000000
 !MCSCF expec      <2.1 Singlet|LZLZ|2.1 Singlet>     0.206487916807
 !MCSCF expec      <3.1 Singlet|LZLZ|3.1 Singlet>     0.999988839585
 !MCSCF expec      <4.1 Singlet|LZLZ|4.1 Singlet>     1.000000052110
 !MCSCF expec      <5.1 Singlet|LZLZ|5.1 Singlet>     3.793523008110
 !MCSCF expec      <6.1 Singlet|LZLZ|6.1 Singlet>     3.999999864213
 !MCSCF expec      <7.1 Singlet|LZLZ|7.1 Singlet>     0.000000000000
 !MCSCF expec      <1.1 Triplet|LZLZ|1.1 Triplet>     3.999997045725
 !MCSCF expec      <2.1 Triplet|LZLZ|2.1 Triplet>     3.997667233826
 !MCSCF expec      <3.1 Triplet|LZLZ|3.1 Triplet>     1.000002576617
 !MCSCF expec      <4.1 Triplet|LZLZ|4.1 Triplet>     1.000000335502
 !MCSCF expec      <5.1 Triplet|LZLZ|5.1 Triplet>     0.002332793751
 !MCSCF expec      <6.1 Triplet|LZLZ|6.1 Triplet>     0.000000000000
 !MCSCF expec      <7.1 Triplet|LZLZ|7.1 Triplet>     0.999999951142
 !MCSCF expec      <8.1 Triplet|LZLZ|8.1 Triplet>     0.999999991619
 !MCSCF expec      <9.1 Triplet|LZLZ|9.1 Triplet>     0.000000057288
 !MCSCF expec    <10.1 Triplet|LZLZ|10.1 Triplet>     6.405170550071
 !MCSCF expec    <11.1 Triplet|LZLZ|11.1 Triplet>     4.000044474456
 !MCSCF expec    <12.1 Triplet|LZLZ|12.1 Triplet>     7.172975299955
 !MCSCF expec    <13.1 Triplet|LZLZ|13.1 Triplet>     0.000712044719
 !MCSCF expec    <14.1 Triplet|LZLZ|14.1 Triplet>     2.826981439044
 !MCSCF expec    <15.1 Triplet|LZLZ|15.1 Triplet>     3.594826498432
 !MCSCF expec    <16.1 Triplet|LZLZ|16.1 Triplet>     3.999296572480
 !MCSCF expec    <17.1 Triplet|LZLZ|17.1 Triplet>     3.999999978481
 !MCSCF expec    <18.1 Triplet|LZLZ|18.1 Triplet>     1.000000023186
 !MCSCF expec    <19.1 Triplet|LZLZ|19.1 Triplet>     3.992441771970
 !MCSCF expec    <20.1 Triplet|LZLZ|20.1 Triplet>     0.007557107093
 !MCSCF expec    <21.1 Triplet|LZLZ|21.1 Triplet>     1.000000039102
 !MCSCF expec    <22.1 Triplet|LZLZ|22.1 Triplet>     0.000000020915
 !MCSCF expec    <23.1 Triplet|LZLZ|23.1 Triplet>     0.999999980030
 !MCSCF expec    <24.1 Triplet|LZLZ|24.1 Triplet>     0.999999999057
 
 !MCSCF expec      <1.1 Singlet|L**2|1.1 Singlet>     0.000000000000
 !MCSCF expec      <2.1 Singlet|L**2|2.1 Singlet>     6.000000000000
 !MCSCF expec      <3.1 Singlet|L**2|3.1 Singlet>     6.000000000000
 !MCSCF expec      <4.1 Singlet|L**2|4.1 Singlet>     6.000000000000
 !MCSCF expec      <5.1 Singlet|L**2|5.1 Singlet>     6.000000000000
 !MCSCF expec      <6.1 Singlet|L**2|6.1 Singlet>     6.000000000000
 !MCSCF expec      <7.1 Singlet|L**2|7.1 Singlet>     0.000000000000
 !MCSCF expec      <1.1 Triplet|L**2|1.1 Triplet>     6.000000000000
 !MCSCF expec      <2.1 Triplet|L**2|2.1 Triplet>     6.000000000000
 !MCSCF expec      <3.1 Triplet|L**2|3.1 Triplet>     6.000000000000
 !MCSCF expec      <4.1 Triplet|L**2|4.1 Triplet>     6.000000000000
 !MCSCF expec      <5.1 Triplet|L**2|5.1 Triplet>     6.000000000000
 !MCSCF expec      <6.1 Triplet|L**2|6.1 Triplet>     0.000000000000
 !MCSCF expec      <7.1 Triplet|L**2|7.1 Triplet>     2.000000000000
 !MCSCF expec      <8.1 Triplet|L**2|8.1 Triplet>     2.000000000000
 !MCSCF expec      <9.1 Triplet|L**2|9.1 Triplet>     2.000000000000
 !MCSCF expec    <10.1 Triplet|L**2|10.1 Triplet>    12.000000000000
 !MCSCF expec    <11.1 Triplet|L**2|11.1 Triplet>    12.000000000000
 !MCSCF expec    <12.1 Triplet|L**2|12.1 Triplet>    12.000000000000
 !MCSCF expec    <13.1 Triplet|L**2|13.1 Triplet>    12.000000000000
 !MCSCF expec    <14.1 Triplet|L**2|14.1 Triplet>    12.000000000000
 !MCSCF expec    <15.1 Triplet|L**2|15.1 Triplet>    12.000000000000
 !MCSCF expec    <16.1 Triplet|L**2|16.1 Triplet>    12.000000000000
 !MCSCF expec    <17.1 Triplet|L**2|17.1 Triplet>     6.000000000000
 !MCSCF expec    <18.1 Triplet|L**2|18.1 Triplet>     6.000000000000
 !MCSCF expec    <19.1 Triplet|L**2|19.1 Triplet>     6.000000000000
 !MCSCF expec    <20.1 Triplet|L**2|20.1 Triplet>     6.000000000000
 !MCSCF expec    <21.1 Triplet|L**2|21.1 Triplet>     6.000000000000
 !MCSCF expec    <22.1 Triplet|L**2|22.1 Triplet>     2.000000000000
 !MCSCF expec    <23.1 Triplet|L**2|23.1 Triplet>     2.000000000000
 !MCSCF expec    <24.1 Triplet|L**2|24.1 Triplet>     2.000000000000
 
 EXTRA SYMMETRY OF MOS IN SYMMETRY 1:   1 1 1 6 3 5 2 4 1 6   2 3 5 4 1 6 3 5 2 4   1 1 3 4 2 6 5 1 3 2   5 6 4 1 6 3 2 5 4 1
                                        2 6 3 5 4 1 6 4 5 3   2 6 4 5 3 2 1
 EXTRA SYMMETRY OF MOS IN SYMMETRY 2:   3 2 1 2 3 1 2 3 1 6   5 7 910 8 4 2 3 1 2   3 1 1 3 2 2 1 3 2 1   3 5 6 810 7 9 4 2 1
                                        3 5 7 9 6 810 4 5 6  10 8 7 9 4 2 1 3 5 6  10 8 7 9 4 2 1 3
 
  NATURAL ORBITALS (STATE AVERAGED)
  =================================

  Orbital  Occupation    Energy    Cen Mu Typ  Coefficients
    1.1     2.00000 -3845.21789     1  1  s    1.00000
    2.1     2.00000  -712.76714     1  2  s    1.00000
    3.1     2.00000  -179.77689     1  3  s    1.00000
    4.1     2.00000  -118.11400     1  1  d1-  1.00000
    5.1     2.00000  -118.11400     1  1  d2-  1.00000
    6.1     2.00000  -118.11400     1  1  d2+  1.00000
    7.1     2.00000  -118.11400     1  1  d0   1.00000
    8.1     2.00000  -118.11400     1  1  d1+  1.00000
    9.1     2.00000   -45.72978     1  4  s    1.00004
   10.1     2.00000   -23.68505     1  2  d1-  1.00000
   11.1     2.00000   -23.68505     1  2  d0   1.00000
   12.1     2.00000   -23.68505     1  2  d2-  1.00000
   13.1     2.00000   -23.68505     1  2  d2+  1.00000
   14.1     2.00000   -23.68505     1  2  d1+  1.00000
   15.1     2.00000   -10.02444     1  5  s    0.99834
   16.1     2.00000    -3.00452     1  3  d1-  1.00110
   17.1     2.00000    -3.00452     1  3  d2-  1.00110
   18.1     2.00000    -3.00452     1  3  d2+  1.00110
   19.1     2.00000    -3.00452     1  3  d0   1.00110
   20.1     2.00000    -3.00452     1  3  d1+  1.00110
   21.1     2.00000    -1.63078     1  6  s    0.98543
   22.1     0.41770    -0.05521     1  7  s    1.10556
   23.1     0.22478     0.04217     1  4  d2-  1.00849
   24.1     0.22478     0.04217     1  4  d1+  1.00849
   25.1     0.22478     0.04217     1  4  d0   1.00849
   26.1     0.22478     0.04217     1  4  d1-  1.00849
   27.1     0.22478     0.04217     1  4  d2+  1.00849
   28.1     0.22444     0.01728     1  7  s    0.94447    1  9  s   -0.30637    1 12  s    1.64749
    1.2     2.00000  -604.14144     1  1  pz   1.00000
    2.2     2.00000  -604.14144     1  1  py   1.00000
    3.2     2.00000  -604.14144     1  1  px   1.00000
    4.2     2.00000  -148.72986     1  2  py   1.00000
    5.2     2.00000  -148.72986     1  2  pz   1.00000
    6.2     2.00000  -148.72986     1  2  px   1.00000
    7.2     2.00000   -35.36812     1  3  py   0.99999
    8.2     2.00000   -35.36812     1  3  pz   0.99999
    9.2     2.00000   -35.36812     1  3  px   0.99999
   10.2     2.00000   -11.21197     1  1  f0   1.00000
   11.2     2.00000   -11.21197     1  1  f1-  1.00000
   12.2     2.00000   -11.21197     1  1  f3+  1.00000
   13.2     2.00000   -11.21197     1  1  f3-  1.00000
   14.2     2.00000   -11.21197     1  1  f2+  1.00000
   15.2     2.00000   -11.21197     1  1  f2-  1.00000
   16.2     2.00000   -11.21197     1  1  f1+  1.00000
   17.2     2.00000    -6.81578     1  4  py   1.00026
   18.2     2.00000    -6.81578     1  4  pz   1.00026
   19.2     2.00000    -6.81578     1  4  px   1.00026
   20.2     2.00000    -0.81977     1  5  py   0.99478
   21.2     2.00000    -0.81977     1  5  pz   0.99478
   22.2     2.00000    -0.81977     1  5  px   0.99478
   23.2     0.07799     0.02977     1  6  px  -1.00512
   24.2     0.07799     0.02977     1  6  pz   1.00512
   25.2     0.07799     0.02977     1  6  py   1.00512
 
 Natural orbital dump (state averaged) at molpro section 2140.2 (Orbital set 2)
 
 Transform the CI vectors
 
 CI Coefficients of symmetry 1 (Singlet)
 =======================================
 
 2000000 000      0.96683025     -0.00000000      0.00000000      0.00000000     -0.00000000      0.00000000      0.01480574
 b00000a 000      0.00092365      0.00000000     -0.00000000     -0.00000000     -0.00000000      0.00000000     -0.67280443
 a00000b 000     -0.00092365     -0.00000000      0.00000000      0.00000000      0.00000000     -0.00000000      0.67280443
 b0a0000 000     -0.00000000      0.00000646     -0.00005194     -0.64601275     -0.00005711      0.00006663      0.00000000
 a0b0000 000      0.00000000     -0.00000646      0.00005194      0.64601275      0.00005711     -0.00006663     -0.00000000
 ba00000 000      0.00000000     -0.00004062     -0.00010506     -0.00006659     -0.00039488     -0.64601262     -0.00000000
 ab00000 000     -0.00000000      0.00004062      0.00010506      0.00006659      0.00039488      0.64601262      0.00000000
 b000a00 000     -0.00000000     -0.00255876     -0.64600767      0.00005193     -0.00010331      0.00010527     -0.00000000
 a000b00 000      0.00000000      0.00255876      0.64600767     -0.00005193      0.00010331     -0.00010527      0.00000000
 a0000b0 000      0.00000000      0.14677156     -0.00068202     -0.00005413      0.62911840     -0.00039366     -0.00000000
 b0000a0 000     -0.00000000     -0.14677156      0.00068202      0.00005413     -0.62911840      0.00039366      0.00000000
 b00a000 000     -0.00000000     -0.62911369      0.00246837     -0.00001947      0.14677310     -0.00005056     -0.00000000
 a00b000 000      0.00000000      0.62911369     -0.00246837      0.00001947     -0.14677310      0.00005056      0.00000000
 0000000 020     -0.13069498      0.26348610     -0.00103380      0.00000815     -0.06147167      0.00002118      0.09349750
 0000000 200     -0.13069498     -0.07850758      0.00026953     -0.00002371      0.25892320     -0.00015337      0.09349751
 0000000 ba0      0.00000000     -0.00000234      0.00001884      0.23431511      0.00002071     -0.00002417     -0.00000000
 0000000 ab0     -0.00000000      0.00000234     -0.00001884     -0.23431511     -0.00002071      0.00002417      0.00000000
 0000000 a0b      0.00000000     -0.00001473     -0.00003810     -0.00002415     -0.00014323     -0.23431506     -0.00000000
 0000000 b0a     -0.00000000      0.00001473      0.00003810      0.00002415      0.00014323      0.23431506      0.00000000
 0000000 0ab      0.00000000      0.00092809      0.23431327     -0.00001884      0.00003747     -0.00003818      0.00000000
 0000000 0ba     -0.00000000     -0.00092809     -0.23431327      0.00001884     -0.00003747      0.00003818     -0.00000000
 0000000 002     -0.13069498     -0.18497852      0.00076428      0.00001556     -0.19745153      0.00013220      0.09349751
 0000002 000     -0.01431991     -0.00000000      0.00000000      0.00000000      0.00000000     -0.00000000      0.14334494
 0a0b000 000      0.00000000     -0.00000777     -0.00002009     -0.00001273     -0.00007550     -0.12351203     -0.00000000
 0b0a000 000     -0.00000000      0.00000777      0.00002009      0.00001273      0.00007550      0.12351203      0.00000000
 000b0a0 000     -0.00000000      0.02806145     -0.00013040     -0.00001035      0.12028200     -0.00007526     -0.00000000
 000a0b0 000      0.00000000     -0.02806145      0.00013040      0.00001035     -0.12028200      0.00007526      0.00000000
 0002000 000     -0.05251469      0.12028111     -0.00047193      0.00000372     -0.02806175      0.00000967     -0.09764842
 0200000 000     -0.05251470     -0.12028110      0.00047193     -0.00000372      0.02806175     -0.00000967     -0.09764843
 0000020 000     -0.05251470     -0.12028110      0.00047193     -0.00000372      0.02806175     -0.00000967     -0.09764843
 0000200 000     -0.05251469      0.03583862     -0.00012304      0.00001082     -0.11819815      0.00007001     -0.09764842
 0b00a00 000      0.00000000      0.00000107     -0.00000860     -0.10696458     -0.00000946      0.00001103      0.00000000
 0a00b00 000     -0.00000000     -0.00000107      0.00000860      0.10696458      0.00000946     -0.00001103     -0.00000000
 00a00b0 000      0.00000000     -0.00000107      0.00000860      0.10696458      0.00000946     -0.00001103     -0.00000000
 00b00a0 000     -0.00000000      0.00000107     -0.00000860     -0.10696458     -0.00000946      0.00001103      0.00000000
 00a0b00 000     -0.00000000      0.00000673      0.00001739      0.00001103      0.00006538      0.10696456      0.00000000
 00b0a00 000      0.00000000     -0.00000673     -0.00001739     -0.00001103     -0.00006538     -0.10696456     -0.00000000
 0ba0000 000     -0.00000000     -0.00042367     -0.10696374      0.00000860     -0.00001710      0.00001743      0.00000000
 0ab0000 000      0.00000000      0.00042367      0.10696374     -0.00000860      0.00001710     -0.00001743     -0.00000000
 0000ab0 000     -0.00000000     -0.00042367     -0.10696374      0.00000860     -0.00001711      0.00001743      0.00000000
 0000ba0 000      0.00000000      0.00042367      0.10696374     -0.00000860      0.00001711     -0.00001743     -0.00000000
 0020000 000     -0.05251469      0.08444248     -0.00034889     -0.00000710      0.09013640     -0.00006035     -0.09764842
 00ab000 000     -0.00000000     -0.00000062      0.00000496      0.06175603      0.00000546     -0.00000637     -0.00000000
 00ba000 000      0.00000000      0.00000062     -0.00000496     -0.06175603     -0.00000546      0.00000637      0.00000000
 000ba00 000      0.00000000     -0.00024461     -0.06175554      0.00000496     -0.00000988      0.00001006      0.00000000
 000ab00 000     -0.00000000      0.00024461      0.06175554     -0.00000496      0.00000988     -0.00001006     -0.00000000
 
 Energy:     -24984.79148721 -24984.71051526 -24984.71051526 -24984.71051526 -24984.71051526 -24984.71051526 -24984.67116979
 
 
 CI Coefficients of symmetry 1 (Triplet)
 =======================================

 State:                1               2               3               4               5               6               7
 a00000a 000     -0.00000000      0.00000000     -0.00000000      0.00000000     -0.00000000      1.00000000     -0.00000000
 0a0000a 000     -0.00286934      0.00002170      0.00000272      0.00000076      0.00000017     -0.00000000     -0.00000000
 00a000a 000     -0.00000075      0.00000060     -0.00000067     -0.00286942      0.00000020      0.00000000     -0.00000000
 0000a0a 000     -0.00000272      0.00000100     -0.00286942      0.00000067      0.00000205      0.00000000     -0.00000000
 a0a0000 000      0.00026196     -0.00021017      0.00023229      0.99999580     -0.00007122     -0.00000000      0.00000000
 a000a00 000      0.00094684     -0.00034899      0.99999509     -0.00023266     -0.00071602      0.00000000      0.00000000
 000a0a0 000      0.00000000      0.00000000      0.00000000      0.00000000      0.00000000      0.00000000      0.00000000
 aa00000 000      0.99996681     -0.00756133     -0.00094955     -0.00026333     -0.00006058      0.00000000      0.00000000
 0a0a000 000     -0.00000000      0.00000000      0.00000000      0.00000000      0.00000000     -0.00000000     -0.00000000
 a00a000 000     -0.00012133     -0.02414668      0.00070752      0.00006599      0.99970405      0.00000000     -0.00000000
 a0000a0 000      0.00756099      0.99967563      0.00035906      0.00020976      0.02414665      0.00000000      0.00000000
 00000aa 000     -0.00002170     -0.00286850     -0.00000103     -0.00000060     -0.00006929     -0.00000000      0.00000000
 000a00a 000      0.00000035      0.00006929     -0.00000203     -0.00000019     -0.00286858      0.00000000     -0.00000000
 00a0a00 000      0.00000000     -0.00000000      0.00000000     -0.00000000     -0.00000000      0.00000000      0.00006914
 00a00a0 000      0.00000000      0.00000000      0.00000000      0.00000000     -0.00000000     -0.00000000     -0.31277860
 0000aa0 000     -0.00000000      0.00000000     -0.00000000      0.00000000     -0.00000000     -0.00000000      0.00027308
 0a00a00 000     -0.00000000     -0.00000000     -0.00000000      0.00000000     -0.00000000      0.00000000      0.31277857
 0aa0000 000     -0.00000000     -0.00000000      0.00000000     -0.00000000     -0.00000000     -0.00000000      0.00027308
 0000000 a0a      0.00000000     -0.00000000     -0.00000000     -0.00000000     -0.00000000      0.00000000      0.00015798
 0000000 0aa     -0.00000000      0.00000000     -0.00000000      0.00000000      0.00000000      0.00000000      0.00062401
 0000000 aa0     -0.00000000      0.00000000     -0.00000000     -0.00000000      0.00000000     -0.00000000      0.71473560
 0a000a0 000      0.00000000     -0.00000000     -0.00000000     -0.00000000     -0.00000000     -0.00000000     -0.00013827
 000aa00 000      0.00000000     -0.00000000      0.00000000     -0.00000000     -0.00000000     -0.00000000     -0.00047298
 00aa000 000     -0.00000000      0.00000000     -0.00000000     -0.00000000      0.00000000      0.00000000      0.54174840
 
 Energy:     -24984.72097059 -24984.72097059 -24984.72097059 -24984.72097059 -24984.72097059 -24984.67669856 -24984.65186664

 State:                8               9              10              11              12              13              14
 a00000a 000     -0.00000000     -0.00000000     -0.00000000     -0.00000000      0.00000000      0.00000000      0.00000000
 0a0000a 000      0.00000000     -0.00000000     -0.00000000      0.00000000      0.00000000      0.00000000      0.00000000
 00a000a 000      0.00000000      0.00000000     -0.00000000      0.00000000     -0.00000000     -0.00000000      0.00000000
 0000a0a 000     -0.00000000     -0.00000000      0.00000000      0.00000000      0.00000000     -0.00000000      0.00000000
 a0a0000 000     -0.00000000     -0.00000000      0.00000000     -0.00000000      0.00000000      0.00000000      0.00000000
 a000a00 000      0.00000000      0.00000000      0.00000000     -0.00000000     -0.00000000      0.00000000     -0.00000000
 000a0a0 000     -0.00000000     -0.00000000      0.00087835      0.99999295     -0.00360433     -0.00007143      0.00003617
 aa00000 000      0.00000000     -0.00000000      0.00000000     -0.00000000     -0.00000000     -0.00000000     -0.00000000
 0a0a000 000      0.00000000      0.00000000      0.00012527     -0.00057394     -0.00015854     -0.01325226     -0.00078628
 a00a000 000     -0.00000000     -0.00000000     -0.00000000     -0.00000000      0.00000000      0.00000000      0.00000000
 a0000a0 000     -0.00000000     -0.00000000     -0.00000000     -0.00000000      0.00000000      0.00000000     -0.00000000
 00000aa 000      0.00000000     -0.00000000      0.00000000      0.00000000     -0.00000000      0.00000000      0.00000000
 000a00a 000      0.00000000     -0.00000000     -0.00000000     -0.00000000      0.00000000     -0.00000000     -0.00000000
 00a0a00 000     -0.00002863      0.31277871      0.00018175      0.00006155      0.00128823      0.89434739      0.00071501
 00a00a0 000      0.00027307      0.00006916      0.89316416     -0.00078292     -0.00048560     -0.00017184      0.00049763
 0000aa0 000      0.31277860      0.00002857      0.00042979      0.00317638      0.88287937     -0.00138972      0.14321833
 0a00a00 000     -0.00027307     -0.00006916      0.26928620     -0.00029851     -0.00067457     -0.00019351      0.00032755
 0aa0000 000      0.31277859      0.00002857     -0.00067341     -0.00132472     -0.35939001     -0.00014460      0.81904585
 0000000 a0a     -0.00006543      0.71473587     -0.00000000     -0.00000000     -0.00000000     -0.00000001     -0.00000000
 0000000 0aa      0.71473561      0.00006529     -0.00000000     -0.00000000     -0.00000001      0.00000000      0.00000000
 0000000 aa0     -0.00062400     -0.00015804      0.00000001     -0.00000000     -0.00000000     -0.00000000      0.00000000
 0a000a0 000      0.00005727     -0.62555740      0.00009087      0.00003077      0.00064411      0.44717370      0.00035751
 000aa00 000     -0.54174841     -0.00004949     -0.00014065      0.00106906      0.30223673     -0.00088584      0.55556348
 00aa000 000     -0.00047297     -0.00011979      0.36019612     -0.00027967      0.00010911      0.00001251      0.00009819
 
 Energy:     -24984.65186664 -24984.65186664 -24984.64746032 -24984.64746032 -24984.64746032 -24984.64746032 -24984.64746032

 State:               15              16              17              18              19              20              21
 a00000a 000     -0.00000000     -0.00000000      0.00000000     -0.00000000      0.00000000     -0.00000000      0.00000000
 0a0000a 000     -0.00000000     -0.00000000      0.99999588     -0.00008163     -0.00009257     -0.00000993     -0.00002148
 00a000a 000      0.00000000     -0.00000000      0.00002148      0.00001577     -0.00011723      0.00004143      0.99999588
 0000a0a 000      0.00000000      0.00000000      0.00008164      0.99999585      0.00013929     -0.00021213     -0.00001574
 a0a0000 000     -0.00000000      0.00000000      0.00000006      0.00000005     -0.00000034      0.00000012      0.00286942
 a000a00 000     -0.00000000     -0.00000000      0.00000023      0.00286942      0.00000040     -0.00000061     -0.00000005
 000a0a0 000      0.00007032      0.00057233     -0.00000000      0.00000000     -0.00000000     -0.00000000     -0.00000000
 aa00000 000      0.00000000      0.00000000      0.00286942     -0.00000023     -0.00000027     -0.00000003     -0.00000006
 0a0a000 000      0.00087650      0.99991131      0.00000000     -0.00000000     -0.00000000     -0.00000000     -0.00000000
 a00a000 000      0.00000000      0.00000000      0.00000002      0.00000063     -0.00012473      0.00286671     -0.00000013
 a0000a0 000     -0.00000000     -0.00000000      0.00000027     -0.00000037      0.00286671      0.00012473      0.00000033
 00000aa 000      0.00000000      0.00000000      0.00009291     -0.00012994      0.99905065      0.04346860      0.00011531
 000a00a 000      0.00000000      0.00000000      0.00000592      0.00021798     -0.04346857      0.99905065     -0.00004649
 00a0a00 000      0.00015719      0.01185382      0.00000001     -0.00000000     -0.00000000     -0.00000000     -0.00000000
 00a00a0 000     -0.04750421     -0.00007267     -0.00000000     -0.00000000      0.00000000      0.00000000     -0.00000001
 0000aa0 000      0.00050858      0.00023551      0.00000000      0.00000000      0.00000000     -0.00000000      0.00000000
 0a00a00 000      0.85292652     -0.00078398      0.00000000      0.00000000     -0.00000000     -0.00000000      0.00000001
 0aa0000 000     -0.00038613      0.00058482      0.00000000      0.00000000      0.00000000     -0.00000000      0.00000000
 0000000 a0a     -0.00000000     -0.00000000     -0.00000002      0.00000000      0.00000000      0.00000000      0.00000000
 0000000 0aa     -0.00000000     -0.00000000     -0.00000000     -0.00000000     -0.00000000      0.00000000     -0.00000000
 0000000 aa0      0.00000001     -0.00000000     -0.00000000     -0.00000000      0.00000000      0.00000000     -0.00000002
 0a000a0 000      0.00007859      0.00592691     -0.00000002      0.00000000      0.00000000      0.00000000      0.00000000
 000aa00 000      0.00007070      0.00047361     -0.00000000     -0.00000000     -0.00000000      0.00000000     -0.00000000
 00aa000 000     -0.51986391      0.00041067      0.00000000      0.00000000     -0.00000000     -0.00000000      0.00000002
 
 Energy:     -24984.64746032 -24984.64746032 -24984.60795723 -24984.60795723 -24984.60795723 -24984.60795723 -24984.60795723

 State:               22              23              24
 a00000a 000      0.00000000      0.00000000      0.00000000
 0a0000a 000      0.00000003     -0.00000000      0.00000000
 00a000a 000      0.00000000      0.00000004      0.00000000
 0000a0a 000     -0.00000000      0.00000000      0.00000000
 a0a0000 000     -0.00000000     -0.00000000      0.00000000
 a000a00 000      0.00000000     -0.00000000     -0.00000000
 000a0a0 000     -0.00000000      0.00000000      0.00000000
 aa00000 000      0.00000000     -0.00000000      0.00000000
 0a0a000 000      0.00000000      0.00000000      0.00000000
 a00a000 000      0.00000000      0.00000000      0.00000000
 a0000a0 000      0.00000000     -0.00000000      0.00000000
 00000aa 000     -0.00000000      0.00000000      0.00000000
 000a00a 000      0.00000000     -0.00000000      0.00000000
 00a0a00 000     -0.31963960      0.00004517     -0.00000982
 00a00a0 000      0.00004517      0.31963960     -0.00000886
 0000aa0 000      0.00000982     -0.00000886     -0.31963961
 0a00a00 000     -0.00004517     -0.31963960      0.00000886
 0aa0000 000      0.00000982     -0.00000886     -0.31963961
 0000000 a0a      0.69939445     -0.00009884      0.00002149
 0000000 0aa     -0.00002149      0.00001939      0.69939446
 0000000 aa0      0.00009884      0.69939445     -0.00001939
 0a000a0 000      0.63927921     -0.00009034      0.00001964
 000aa00 000     -0.00001701      0.00001535      0.55363204
 00aa000 000     -0.00007824     -0.55363203      0.00001535
 
 Energy:     -24984.60604639 -24984.60604639 -24984.60604639
 


 **********************************************************************************************************************************
 DATASETS  * FILE   NREC   LENGTH (MB)   RECORD NAMES
              1      24      158.74       500      610      700      900      950      970     1000      129      960     1700   
                                          VAR    BASINP    GEOM    SYMINP    ZMAT    AOBASIS   BASIS     P2S    ABASIS    OPER   
                                         1101     1401     1411     1412     1650     1100     1400     1410     1200     1210   
                                          SR      EKINR    POTR     PVPR    MOLCAS      S      EKIN      POT      H0       H01  
                                         1080     1600     1380     1700(1)
                                         AOSYM     SMH     JKOP     OPER   

              2       5        0.94       700     1000      520     2100     2140   
                                         GEOM     BASIS   MCVARS     RHF     MCSCF   

 PROGRAMS   *        TOTAL     MULTI   RHF-SCF       INT
 CPU TIMES  *        22.51      7.57      0.41     14.36
 REAL TIME  *        29.20 SEC
 DISK USED  *       159.79 MB (local),        1.00 GB (total)
 SF USED    *       307.54 MB
 GA USED    *         0.00 MB       (max)       0.00 MB       (current)
 **********************************************************************************************************************************

 Energies and &lt;L**2&gt; values

          ENERGY     LL
    -24984.79149    0.0
    -24984.71052    6.0
    -24984.71052    6.0
    -24984.71052    6.0
    -24984.71052    6.0
    -24984.71052    6.0
    -24984.67117    0.0
    -24984.72097    6.0
    -24984.72097    6.0
    -24984.72097    6.0
    -24984.72097    6.0
    -24984.72097    6.0
    -24984.67670    0.0
    -24984.65187    2.0
    -24984.65187    2.0
    -24984.65187    2.0
    -24984.64746   12.0
    -24984.64746   12.0
    -24984.64746   12.0
    -24984.64746   12.0
    -24984.64746   12.0
    -24984.64746   12.0
    -24984.64746   12.0
    -24984.60796    6.0
    -24984.60796    6.0
    -24984.60796    6.0
    -24984.60796    6.0
    -24984.60796    6.0
    -24984.60605    2.0
    -24984.60605    2.0
    -24984.60605    2.0
                                                  


 PROGRAM * CI (Multireference internally contracted CI)     Authors: H.-J. Werner, P.J. Knowles, 1987


 Convergence thresholds:  THRVAR = 1.00D-08  THRDEN = 1.00D-06

 Number of optimized states: 7  Roots:    1   2   3   4   5   6   7
 Number of reference states: 7  Roots:    1   2   3   4   5   6   7

 Reference symmetry:                   1   Singlet 
 Number of electrons:                 88
 Maximum number of shells:             5
 Maximum number of spin couplings:    14

 Reference space:       34 conf       34 CSFs
 N elec internal:    29620 conf    75790 CSFs
 N-1 el internal:     9955 conf    31960 CSFs
 N-2 el internal:     1621 conf     5743 CSFs

 Number of electrons in valence space:                     20
 Maximum number of open shell orbitals in reference space:  2
 Maximum number of open shell orbitals in internal spaces:  8


 Number of core orbitals:          34 (  15  19 )
 Number of closed-shell orbitals:   9 (   6   3 )
 Number of active  orbitals:       10 (   7   3 )
 Number of external orbitals:      72 (  29  43 )

 Molecular orbitals read from record     2140.2  Type=MCSCF/NATURAL (state averaged)

 Integral transformation finished. Total CPU:   0.14 sec, npass=  1  Memory used:   1.80 MW


 Number of p-space configurations:  34

 Reference wavefunction optimized for reference space (refopt=1)

 State     Reference Energy 
     1    -24984.79148721
     2    -24984.71051526
     3    -24984.71051526
     4    -24984.71051526
     5    -24984.71051526
     6    -24984.71051526
     7    -24984.67116979

 Number of blocks in overlap matrix:   694   Smallest eigenvalue:  0.81D+00
 Number of N-2 electron functions:     748
 Number of N-1 electron functions:   31960

 Number of internal configurations:                38116
 Number of singly external configurations:       1148936
 Number of doubly external configurations:        976024
 Total number of contracted configurations:      2163076
 Total number of uncontracted configurations:    8644507

 Diagonal Coupling coefficients finished.               Storage:  20307871 words, CPU-Time:     16.72 seconds.
 Energy denominators for pairs finished in 1 passes.    Storage:   1151914 words, CPU-time:      0.10 seconds.

  ITER. STATE  ROOT     SQ.NORM     CORR.ENERGY   TOTAL ENERGY   ENERGY CHANGE       DEN1      VAR(S)    VAR(P)      TIME
    1     1     1     1.00000000     0.00000000-24984.79148721     0.00000000    -0.36402596  0.39D-01  0.61D-01    23.24
    1     2     2     1.00000000     0.00000000-24984.71051526     0.00000000    -0.36768489  0.44D-01  0.66D-01    23.24
    1     3     3     1.00000000     0.00000000-24984.71051526     0.00000000    -0.36788512  0.45D-01  0.66D-01    23.24
    1     4     4     1.00000000     0.00000000-24984.71051526    -0.00000000    -0.36781222  0.45D-01  0.66D-01    23.24
    1     5     5     1.00000000     0.00000000-24984.71051526     0.00000000    -0.36780168  0.44D-01  0.66D-01    23.24
    1     6     6     1.00000000     0.00000000-24984.71051526     0.00000000    -0.36776246  0.44D-01  0.66D-01    23.24
    1     7     7     1.00000000     0.00000000-24984.67116979     0.00000000    -0.35639938  0.41D-01  0.60D-01    23.24
    2     1     1     1.07082034    -0.31869097-24985.11017818    -0.31869097    -0.00680477  0.19D-02  0.79D-03   310.65
    2     2     2     1.07640436    -0.31622635-24985.02674162    -0.31622635    -0.00677890  0.20D-02  0.93D-03   310.65
    2     3     3     1.07648216    -0.31620554-24985.02672081    -0.31620554    -0.00680159  0.20D-02  0.93D-03   310.65
    2     4     4     1.07656507    -0.31620287-24985.02671813    -0.31620287    -0.00680955  0.20D-02  0.93D-03   310.65
    2     5     5     1.07661069    -0.31618928-24985.02670455    -0.31618928    -0.00682458  0.20D-02  0.93D-03   310.65
    2     6     6     1.07661427    -0.31617919-24985.02669445    -0.31617919    -0.00683414  0.20D-02  0.93D-03   310.65
    2     7     7     1.07196954    -0.31400671-24984.98517651    -0.31400671    -0.00621567  0.19D-02  0.74D-03   310.65
    3     1     1     1.07126477    -0.32544011-24985.11692732    -0.00674914    -0.00019332  0.46D-04  0.29D-04   597.32
    3     2     2     1.07464279    -0.32289151-24985.03340677    -0.00666516    -0.00017445  0.38D-04  0.32D-04   597.32
    3     3     3     1.07464879    -0.32289134-24985.03340660    -0.00668580    -0.00017471  0.38D-04  0.32D-04   597.32
    3     4     4     1.07466250    -0.32289033-24985.03340560    -0.00668746    -0.00017606  0.39D-04  0.32D-04   597.32
    3     5     5     1.07466377    -0.32288991-24985.03340517    -0.00670063    -0.00017640  0.39D-04  0.32D-04   597.32
    3     6     6     1.07466536    -0.32288972-24985.03340498    -0.00671054    -0.00017663  0.39D-04  0.32D-04   597.32
    3     7     7     1.07189023    -0.32021747-24984.99138727    -0.00621076    -0.00016839  0.42D-04  0.28D-04   597.32
    4     1     1     1.07227268    -0.32564085-24985.11712805    -0.00020074    -0.00001022  0.61D-05  0.95D-06   879.96
    4     2     2     1.07542464    -0.32307210-24985.03358737    -0.00018059    -0.00000829  0.61D-05  0.78D-06   879.96
    4     3     3     1.07542847    -0.32307208-24985.03358734    -0.00018073    -0.00000833  0.61D-05  0.79D-06   879.96
    4     4     4     1.07542228    -0.32307206-24985.03358733    -0.00018173    -0.00000830  0.61D-05  0.78D-06   879.96
    4     5     5     1.07542876    -0.32307204-24985.03358730    -0.00018213    -0.00000836  0.61D-05  0.79D-06   879.96
    4     6     6     1.07542911    -0.32307203-24985.03358729    -0.00018231    -0.00000837  0.61D-05  0.79D-06   879.96
    4     7     7     1.07276989    -0.32039259-24984.99156239    -0.00017512    -0.00000865  0.56D-05  0.97D-06   879.96
    5     1     1     1.07249647    -0.32565295-24985.11714016    -0.00001211    -0.00000062  0.23D-06  0.79D-07  1158.70
    5     2     2     1.07550316    -0.32308207-24985.03359733    -0.00000996    -0.00000061  0.29D-06  0.77D-07  1158.70
    5     3     3     1.07550284    -0.32308206-24985.03359733    -0.00000999    -0.00000061  0.29D-06  0.78D-07  1158.70
    5     4     4     1.07550364    -0.32308206-24985.03359732    -0.00001000    -0.00000062  0.30D-06  0.77D-07  1158.70
    5     5     5     1.07550365    -0.32308206-24985.03359732    -0.00001002    -0.00000062  0.30D-06  0.78D-07  1158.70
    5     6     6     1.07550363    -0.32308206-24985.03359732    -0.00001003    -0.00000062  0.30D-06  0.78D-07  1158.70
    5     7     7     1.07289904    -0.32040291-24984.99157271    -0.00001032    -0.00000060  0.28D-06  0.86D-07  1158.70
    6     1     1     1.07251741    -0.32565364-24985.11714085    -0.00000069    -0.00000003  0.97D-08  0.50D-08  1437.13
    6     2     2     1.07550187    -0.32308279-24985.03359805    -0.00000072    -0.00000005  0.21D-07  0.68D-08  1437.13
    6     3     3     1.07550184    -0.32308279-24985.03359805    -0.00000073    -0.00000005  0.21D-07  0.69D-08  1437.13
    6     4     4     1.07550196    -0.32308279-24985.03359805    -0.00000073    -0.00000005  0.21D-07  0.70D-08  1437.13
    6     5     5     1.07550183    -0.32308279-24985.03359805    -0.00000073    -0.00000005  0.21D-07  0.71D-08  1437.13
    6     6     6     1.07550181    -0.32308279-24985.03359805    -0.00000073    -0.00000005  0.21D-07  0.71D-08  1437.13
[...]
 61  1     6    1  |1 1>-         0.00%    0.00%    0.01%    0.00%    0.00%    0.00%    0.00%    0.00%
 62  1     7    1  |1 1>-         0.00%    0.00%    0.00%    0.00%    0.00%    0.00%    0.00%    0.00%
 63  1     8    1  |1 1>-         0.00%    0.00%    0.00%    0.00%    0.00%    0.00%    0.00%    0.00%
 64  1     9    1  |1 1>-         0.00%    0.00%    0.00%    0.00%    0.00%    0.00%    0.00%    0.00%
 65  1    10    1  |1 1>-         0.00%    0.00%    0.00%    0.00%    0.00%    0.00%    0.00%    0.00%
 66  1    11    1  |1 1>-         0.00%    0.00%    0.00%    0.00%    0.00%    0.00%    0.00%    0.00%
 67  1    12    1  |1 1>-         0.00%    0.00%    0.00%    0.00%    0.00%    0.00%    0.00%    0.00%
 68  1    13    1  |1 1>-         0.00%    0.00%    0.00%    0.00%    0.00%    0.00%    0.00%    0.00%
 69  1    14    1  |1 1>-         0.00%    0.45%    0.00%    0.00%    0.00%    0.00%    0.00%    0.00%
 70  1    15    1  |1 1>-         0.00%    0.00%    0.00%    0.00%    0.00%    0.00%    0.02%    0.06%
 71  1    16    1  |1 1>-         0.45%    0.00%    0.00%    0.00%    0.00%    0.00%    0.00%    0.00%
 72  1    17    1  |1 1>-         0.00%   49.51%    0.00%    0.04%    0.00%    0.00%    0.00%    0.00%
 73  1    18    1  |1 1>-        49.50%    0.00%    0.00%    0.00%    0.00%    0.04%    0.00%    0.00%
 74  1    19    1  |1 1>-         0.00%    0.00%    0.00%    0.00%    0.00%    0.00%    2.82%    8.44%
 75  1    20    1  |1 1>-         0.00%    0.02%    0.00%   29.99%    0.00%    0.00%    0.00%    0.00%
 76  1    21    1  |1 1>-         0.00%    0.00%    0.00%    0.00%    0.00%    0.00%   41.51%   13.77%
 77  1    22    1  |1 1>-         0.02%    0.00%    0.00%    0.00%    0.00%   29.98%    0.00%    0.00%
 78  1    23    1  |1 1>-         0.00%    0.00%    0.02%    0.00%   29.97%    0.00%    0.00%    0.00%
 79  1    24    1  |1 1>-         0.00%    0.00%    0.01%    0.00%    9.99%    0.00%    0.00%    0.00%

   Total
 Nr Sym  State Sym Spin / Nr.     65       66       67       68       69       70       71       72

  1  1     1    1  |0 0>          0.00%    0.00%    0.00%    0.00%    0.00%    0.00%    0.00%    0.00%
  2  1     2    1  |0 0>          0.00%    0.00%    0.00%    0.08%    0.00%    0.00%    0.00%    0.00%
  3  1     3    1  |0 0>          0.00%    0.00%    0.00%    0.00%    0.00%    0.00%    0.08%    0.00%
  4  1     4    1  |0 0>          0.00%    0.03%    0.00%    0.00%    0.00%    0.08%    0.00%    0.00%
  5  1     5    1  |0 0>          0.00%    0.00%    0.03%    0.00%    0.00%    0.00%    0.00%    0.08%
  6  1     6    1  |0 0>          0.03%    0.00%    0.00%    0.00%    0.08%    0.00%    0.00%    0.00%
  7  1     7    1  |0 0>          0.00%    0.00%    0.00%    0.00%    0.00%    0.00%    0.00%    0.00%
  8  1     1    1  |1 1>+         0.00%    0.00%    0.00%    0.00%    0.00%    0.00%    0.00%    0.00%
  9  1     2    1  |1 1>+         0.00%    0.00%    0.00%    0.00%    0.00%    0.00%    0.00%    0.00%
 10  1     3    1  |1 1>+         0.00%    0.00%    0.00%    0.00%    0.00%    0.00%    0.00%    0.00%
 11  1     4    1  |1 1>+         0.00%    0.00%    0.00%    0.00%    0.00%    0.00%    0.00%    0.00%
 12  1     5    1  |1 1>+         0.00%    0.00%    0.00%    0.00%    0.00%    0.00%    0.00%    0.00%
 13  1     6    1  |1 1>+         0.00%    0.00%    0.00%    0.00%    0.00%    0.00%    0.00%    0.00%
 14  1     7    1  |1 1>+         0.00%    0.00%    0.00%    0.00%    0.00%    0.00%    0.00%    0.00%
 15  1     8    1  |1 1>+         0.00%    0.00%    0.00%    0.00%    0.00%    0.00%    0.00%    0.00%
 16  1     9    1  |1 1>+         0.00%    0.00%    0.00%    0.00%    0.00%    0.00%    0.00%    0.00%
 17  1    10    1  |1 1>+         0.00%    0.00%    0.00%    0.00%    0.00%    0.00%    0.00%    0.00%
 18  1    11    1  |1 1>+         0.00%    0.00%    0.00%    0.00%    0.00%    0.00%    0.00%    0.00%
 19  1    12    1  |1 1>+         0.00%    0.00%    0.00%    0.00%    0.00%    0.00%    0.00%    0.00%
 20  1    13    1  |1 1>+         0.00%    0.00%    0.00%    0.00%    0.00%    0.00%    0.00%    0.00%
 21  1    14    1  |1 1>+         0.00%    0.06%    0.00%    0.00%    0.00%    0.37%    0.00%    0.00%
 22  1    15    1  |1 1>+         0.00%    0.00%    0.06%    0.00%    0.00%    0.00%    0.00%    0.37%
 23  1    16    1  |1 1>+         0.00%    0.00%    0.00%    0.12%    0.00%    0.00%    0.37%    0.00%
 24  1    17    1  |1 1>+         0.00%    8.49%    0.00%    0.00%    0.00%   41.02%    0.00%    0.00%
 25  1    18    1  |1 1>+         0.00%    0.00%    0.00%   13.64%    0.00%    0.00%   41.13%    0.00%
 26  1    19    1  |1 1>+         0.00%    0.00%    8.45%    0.00%    0.00%    0.00%    0.00%   41.07%
 27  1    20    1  |1 1>+         0.00%   13.82%    0.00%    0.00%    0.00%    2.86%    0.00%    0.00%
 28  1    21    1  |1 1>+         0.00%    0.00%   13.83%    0.00%    0.00%    0.00%    0.00%    2.84%
 29  1    22    1  |1 1>+         0.00%    0.00%    0.00%    8.56%    0.00%    0.00%    2.82%    0.00%
 30  1    23    1  |1 1>+        13.81%    0.00%    0.00%    0.00%    2.85%    0.00%    0.00%    0.00%
 31  1    24    1  |1 1>+        41.43%    0.00%    0.00%    0.00%    8.56%    0.00%    0.00%    0.00%
 32  1     1    1  |1 0>          0.00%    0.00%    0.00%    0.00%    0.00%    0.00%    0.00%    0.00%
 33  1     2    1  |1 0>          0.00%    0.00%    0.00%    0.00%    0.00%    0.00%    0.00%    0.00%
 34  1     3    1  |1 0>          0.00%    0.00%    0.00%    0.00%    0.00%    0.00%    0.00%    0.00%
 35  1     4    1  |1 0>          0.00%    0.00%    0.00%    0.00%    0.00%    0.00%    0.00%    0.00%
 36  1     5    1  |1 0>          0.00%    0.00%    0.00%    0.00%    0.00%    0.00%    0.00%    0.00%
 37  1     6    1  |1 0>          0.00%    0.00%    0.00%    0.00%    0.00%    0.00%    0.00%    0.00%
 38  1     7    1  |1 0>          0.00%    0.00%    0.00%    0.00%    0.00%    0.00%    0.00%    0.00%
 39  1     8    1  |1 0>          0.00%    0.00%    0.00%    0.00%    0.00%    0.00%    0.00%    0.00%
 40  1     9    1  |1 0>          0.00%    0.00%    0.00%    0.00%    0.00%    0.00%    0.00%    0.00%
 41  1    10    1  |1 0>          0.00%    0.00%    0.00%    0.00%    0.00%    0.00%    0.00%    0.00%
 42  1    11    1  |1 0>          0.00%    0.00%    0.00%    0.00%    0.00%    0.00%    0.00%    0.00%
 43  1    12    1  |1 0>          0.00%    0.00%    0.00%    0.00%    0.00%    0.00%    0.00%    0.00%
 44  1    13    1  |1 0>          0.00%    0.00%    0.00%    0.00%    0.00%    0.00%    0.00%    0.00%
 45  1    14    1  |1 0>          0.00%    0.00%    0.00%    0.49%    0.00%    0.00%    0.00%    0.00%
 46  1    15    1  |1 0>          0.06%    0.00%    0.00%    0.00%    0.37%    0.00%    0.00%    0.00%
 47  1    16    1  |1 0>          0.00%    0.06%    0.00%    0.00%    0.00%    0.37%    0.00%    0.00%
 48  1    17    1  |1 0>          0.00%    0.00%    0.00%   54.72%    0.00%    0.00%    0.00%    0.00%
 49  1    18    1  |1 0>          0.00%    8.50%    0.00%    0.00%    0.00%   41.03%    0.00%    0.00%
 50  1    19    1  |1 0>          8.50%    0.00%    0.00%    0.00%   41.03%    0.00%    0.00%    0.00%
 51  1    20    1  |1 0>          0.00%    0.00%    0.00%    0.00%    0.00%    0.00%   11.33%    0.00%
 52  1    21    1  |1 0>         13.82%    0.00%    0.00%    0.00%    2.86%    0.00%    0.00%    0.00%
 53  1    22    1  |1 0>          0.00%   13.82%    0.00%    0.00%    0.00%    2.86%    0.00%    0.00%
 54  1    23    1  |1 0>          0.00%    0.00%   55.29%    0.00%    0.00%    0.00%    0.00%   11.36%
 55  1    24    1  |1 0>          0.00%    0.00%    0.00%    0.00%    0.00%    0.00%    0.00%    0.00%
 56  1     1    1  |1 1>-         0.00%    0.00%    0.00%    0.00%    0.00%    0.00%    0.00%    0.00%
 57  1     2    1  |1 1>-         0.00%    0.00%    0.00%    0.00%    0.00%    0.00%    0.00%    0.00%
 58  1     3    1  |1 1>-         0.00%    0.00%    0.00%    0.00%    0.00%    0.00%    0.00%    0.00%
 59  1     4    1  |1 1>-         0.00%    0.00%    0.00%    0.00%    0.00%    0.00%    0.00%    0.00%
 60  1     5    1  |1 1>-         0.00%    0.00%    0.00%    0.00%    0.00%    0.00%    0.00%    0.00%
 61  1     6    1  |1 1>-         0.00%    0.00%    0.00%    0.00%    0.00%    0.00%    0.00%    0.00%
 62  1     7    1  |1 1>-         0.00%    0.00%    0.00%    0.00%    0.00%    0.00%    0.00%    0.00%
 63  1     8    1  |1 1>-         0.00%    0.00%    0.00%    0.00%    0.00%    0.00%    0.00%    0.00%
 64  1     9    1  |1 1>-         0.00%    0.00%    0.00%    0.00%    0.00%    0.00%    0.00%    0.00%
 65  1    10    1  |1 1>-         0.00%    0.00%    0.00%    0.00%    0.00%    0.00%    0.00%    0.00%
 66  1    11    1  |1 1>-         0.00%    0.00%    0.00%    0.00%    0.00%    0.00%    0.00%    0.00%
 67  1    12    1  |1 1>-         0.00%    0.00%    0.00%    0.00%    0.00%    0.00%    0.00%    0.00%
 68  1    13    1  |1 1>-         0.00%    0.00%    0.00%    0.00%    0.00%    0.00%    0.00%    0.00%
 69  1    14    1  |1 1>-         0.06%    0.00%    0.00%    0.00%    0.37%    0.00%    0.00%    0.00%
 70  1    15    1  |1 1>-         0.00%    0.00%    0.00%    0.12%    0.00%    0.00%    0.37%    0.00%
 71  1    16    1  |1 1>-         0.00%    0.00%    0.06%    0.00%    0.00%    0.00%    0.00%    0.37%
 72  1    17    1  |1 1>-         8.49%    0.00%    0.00%    0.00%   41.02%    0.00%    0.00%    0.00%
 73  1    18    1  |1 1>-         0.00%    0.00%    8.45%    0.00%    0.00%    0.00%    0.00%   41.07%
 74  1    19    1  |1 1>-         0.00%    0.00%    0.00%   13.72%    0.00%    0.00%   41.05%    0.00%
 75  1    20    1  |1 1>-        13.82%    0.00%    0.00%    0.00%    2.86%    0.00%    0.00%    0.00%
 76  1    21    1  |1 1>-         0.00%    0.00%    0.00%    8.54%    0.00%    0.00%    2.84%    0.00%
 77  1    22    1  |1 1>-         0.00%    0.00%   13.83%    0.00%    0.00%    0.00%    0.00%    2.84%
 78  1    23    1  |1 1>-         0.00%   13.81%    0.00%    0.00%    0.00%    2.85%    0.00%    0.00%
 79  1    24    1  |1 1>-         0.00%   41.42%    0.00%    0.00%    0.00%    8.56%    0.00%    0.00%

   Total
 Nr Sym  State Sym Spin / Nr.     73       74       75       76       77       78       79

  1  1     1    1  |0 0>          0.00%    0.00%    0.00%    0.00%    0.00%    0.00%    0.00%
  2  1     2    1  |0 0>          0.00%    0.00%    0.00%    0.00%    0.00%    0.00%    0.00%
  3  1     3    1  |0 0>          0.00%    0.00%    0.00%    0.00%    0.00%    0.00%    0.00%
  4  1     4    1  |0 0>          0.00%    0.00%    0.00%    0.00%    0.00%    0.00%    0.00%
  5  1     5    1  |0 0>          0.00%    0.00%    0.00%    0.00%    0.00%    0.00%    0.00%
  6  1     6    1  |0 0>          0.00%    0.00%    0.00%    0.00%    0.00%    0.00%    0.00%
  7  1     7    1  |0 0>          0.00%    0.00%    0.00%    0.00%    0.00%    0.00%    0.00%
  8  1     1    1  |1 1>+         0.00%    0.00%    0.00%    0.00%    0.00%    0.00%    0.00%
  9  1     2    1  |1 1>+         0.00%    0.00%    0.00%    0.00%    0.00%    0.00%    0.00%
 10  1     3    1  |1 1>+         0.00%    0.00%    0.00%    0.00%    0.00%    0.00%    0.00%
 11  1     4    1  |1 1>+         0.00%    0.00%    0.00%    0.00%    0.00%    0.00%    0.00%
 12  1     5    1  |1 1>+         0.00%    0.00%    0.00%    0.00%    0.00%    0.00%    0.00%
 13  1     6    1  |1 1>+         0.00%    0.00%    0.00%    0.00%    0.00%    0.00%    0.00%
 14  1     7    1  |1 1>+         0.00%    0.00%    0.00%    0.00%    0.00%    0.00%    0.00%
 15  1     8    1  |1 1>+         0.00%    0.00%    0.00%    0.00%    0.00%    0.00%    0.00%
 16  1     9    1  |1 1>+         0.00%    0.00%    0.00%    0.00%    0.00%    0.00%    0.00%
 17  1    10    1  |1 1>+         0.00%    0.00%    0.00%    0.00%    0.00%    0.00%    0.00%
 18  1    11    1  |1 1>+         0.00%    0.00%    0.00%    0.00%    0.00%    0.00%    0.00%
 19  1    12    1  |1 1>+         0.00%    0.00%    0.00%    0.00%    0.00%    0.00%    0.00%
 20  1    13    1  |1 1>+         0.00%    0.00%    0.00%    0.00%    0.00%    0.00%    0.00%
 21  1    14    1  |1 1>+         0.00%    0.00%    0.00%    0.00%    0.00%    0.00%    0.00%
 22  1    15    1  |1 1>+         0.00%    0.00%    0.00%    0.00%    0.00%    0.00%    0.00%
 23  1    16    1  |1 1>+         0.00%    0.00%    0.00%    0.00%    0.00%    0.00%    0.00%
 24  1    17    1  |1 1>+         0.00%    0.00%    0.00%    0.00%    0.00%    0.00%    0.00%
 25  1    18    1  |1 1>+         0.00%    0.00%    0.00%    0.00%    0.00%    0.00%    0.00%
 26  1    19    1  |1 1>+         0.00%    0.00%    0.00%    0.00%    0.00%    0.00%    0.00%
 27  1    20    1  |1 1>+         0.00%    0.00%   45.48%    0.00%    0.00%    7.83%    0.00%
 28  1    21    1  |1 1>+         0.00%    0.00%    0.00%   33.84%    0.00%    0.00%   19.48%
 29  1    22    1  |1 1>+        33.33%    0.00%    0.00%    0.00%    0.00%    0.00%    0.00%
 30  1    23    1  |1 1>+         0.00%   20.21%    0.00%    0.00%   33.14%    0.00%    0.00%
 31  1    24    1  |1 1>+         0.00%   14.86%    0.00%    0.00%   25.16%    0.00%    0.00%
 32  1     1    1  |1 0>          0.00%    0.00%    0.00%    0.00%    0.00%    0.00%    0.00%
 33  1     2    1  |1 0>          0.00%    0.00%    0.00%    0.00%    0.00%    0.00%    0.00%
 34  1     3    1  |1 0>          0.00%    0.00%    0.00%    0.00%    0.00%    0.00%    0.00%
 35  1     4    1  |1 0>          0.00%    0.00%    0.00%    0.00%    0.00%    0.00%    0.00%
 36  1     5    1  |1 0>          0.00%    0.00%    0.00%    0.00%    0.00%    0.00%    0.00%
 37  1     6    1  |1 0>          0.00%    0.00%    0.00%    0.00%    0.00%    0.00%    0.00%
 38  1     7    1  |1 0>          0.00%    0.00%    0.00%    0.00%    0.00%    0.00%    0.00%
 39  1     8    1  |1 0>          0.00%    0.00%    0.00%    0.00%    0.00%    0.00%    0.00%
 40  1     9    1  |1 0>          0.00%    0.00%    0.00%    0.00%    0.00%    0.00%    0.00%
 41  1    10    1  |1 0>          0.00%    0.00%    0.00%    0.00%    0.00%    0.00%    0.00%
 42  1    11    1  |1 0>          0.00%    0.00%    0.00%    0.00%    0.00%    0.00%    0.00%
 43  1    12    1  |1 0>          0.00%    0.00%    0.00%    0.00%    0.00%    0.00%    0.00%
 44  1    13    1  |1 0>          0.00%    0.00%    0.00%    0.00%    0.00%    0.00%    0.00%
 45  1    14    1  |1 0>          0.00%    0.00%    0.00%    0.00%    0.00%    0.00%    0.00%
 46  1    15    1  |1 0>          0.00%    0.00%    0.00%    0.00%    0.00%    0.00%    0.00%
 47  1    16    1  |1 0>          0.00%    0.00%    0.00%    0.00%    0.00%    0.00%    0.00%
 48  1    17    1  |1 0>          0.00%    0.00%    0.00%    0.00%    0.00%    0.00%    0.00%
 49  1    18    1  |1 0>          0.00%    0.00%    0.00%    0.00%    0.00%    0.00%    0.00%
 50  1    19    1  |1 0>          0.00%    0.00%    0.00%    0.00%    0.00%    0.00%    0.00%
 51  1    20    1  |1 0>         33.33%    0.00%    0.00%    0.00%    0.00%    0.00%    0.00%
 52  1    21    1  |1 0>          0.00%   19.79%    0.00%    0.00%   33.52%    0.00%    0.00%
 53  1    22    1  |1 0>          0.00%    0.00%   19.33%    0.00%    0.00%   33.99%    0.00%
 54  1    23    1  |1 0>          0.00%    0.00%    0.00%   33.35%    0.00%    0.00%    0.00%
 55  1    24    1  |1 0>          0.00%    0.00%    0.00%    0.01%    0.00%    0.00%   60.01%
 56  1     1    1  |1 1>-         0.00%    0.00%    0.00%    0.00%    0.00%    0.00%    0.00%
 57  1     2    1  |1 1>-         0.00%    0.00%    0.00%    0.00%    0.00%    0.00%    0.00%
 58  1     3    1  |1 1>-         0.00%    0.00%    0.00%    0.00%    0.00%    0.00%    0.00%
 59  1     4    1  |1 1>-         0.00%    0.00%    0.00%    0.00%    0.00%    0.00%    0.00%
 60  1     5    1  |1 1>-         0.00%    0.00%    0.00%    0.00%    0.00%    0.00%    0.00%
 61  1     6    1  |1 1>-         0.00%    0.00%    0.00%    0.00%    0.00%    0.00%    0.00%
 62  1     7    1  |1 1>-         0.00%    0.00%    0.00%    0.00%    0.00%    0.00%    0.00%
 63  1     8    1  |1 1>-         0.00%    0.00%    0.00%    0.00%    0.00%    0.00%    0.00%
 64  1     9    1  |1 1>-         0.00%    0.00%    0.00%    0.00%    0.00%    0.00%    0.00%
 65  1    10    1  |1 1>-         0.00%    0.00%    0.00%    0.00%    0.00%    0.00%    0.00%
 66  1    11    1  |1 1>-         0.00%    0.00%    0.00%    0.00%    0.00%    0.00%    0.00%
 67  1    12    1  |1 1>-         0.00%    0.00%    0.00%    0.00%    0.00%    0.00%    0.00%
 68  1    13    1  |1 1>-         0.00%    0.00%    0.00%    0.00%    0.00%    0.00%    0.00%
 69  1    14    1  |1 1>-         0.00%    0.00%    0.00%    0.00%    0.00%    0.00%    0.00%
 70  1    15    1  |1 1>-         0.00%    0.00%    0.00%    0.00%    0.00%    0.00%    0.00%
 71  1    16    1  |1 1>-         0.00%    0.00%    0.00%    0.00%    0.00%    0.00%    0.00%
 72  1    17    1  |1 1>-         0.00%    0.00%    0.00%    0.00%    0.00%    0.00%    0.00%
 73  1    18    1  |1 1>-         0.00%    0.00%    0.00%    0.00%    0.00%    0.00%    0.00%
 74  1    19    1  |1 1>-         0.00%    0.00%    0.00%    0.00%    0.00%    0.00%    0.00%
 75  1    20    1  |1 1>-         0.00%   45.14%    0.00%    0.00%    8.18%    0.00%    0.00%
 76  1    21    1  |1 1>-        33.33%    0.00%    0.00%    0.00%    0.00%    0.00%    0.00%
 77  1    22    1  |1 1>-         0.00%    0.00%    0.00%   32.81%    0.00%    0.00%   20.51%
 78  1    23    1  |1 1>-         0.00%    0.00%   20.68%    0.00%    0.00%   32.67%    0.00%
 79  1    24    1  |1 1>-         0.00%    0.00%   14.51%    0.00%    0.00%   25.51%    0.00%


 No matrix element <i|DMX|i> larger than 5E-7
 No matrix element <i|DMX|1> larger than 5E-7

 No matrix element <i|DMY|i> larger than 5E-7
 No matrix element <i|DMY|1> larger than 5E-7

 No matrix element <i|DMZ|i> larger than 5E-7
 No matrix element <i|DMZ|1> larger than 5E-7


 **********************************************************************************************************************************
 DATASETS  * FILE   NREC   LENGTH (MB)   RECORD NAMES
              1      24      158.83       500      610      700      900      950      970     1000      129      960     1700   
                                          VAR    BASINP    GEOM    SYMINP    ZMAT    AOBASIS   BASIS     P2S    ABASIS    OPER   
                                         1101     1401     1411     1412     1650     1100     1400     1410     1200     1210   
                                          SR      EKINR    POTR     PVPR    MOLCAS      S      EKIN      POT      H0       H01  
                                         1080     1600     1380     1700(1)
                                         AOSYM     SMH     JKOP     OPER   

              2       7      993.16       700     1000      520     2100     2140     5101     5103   
                                         GEOM     BASIS   MCVARS     RHF     MCSCF    MRCI     MRCI   

 PROGRAMS   *        TOTAL        CI     LSINT        CI        CI     MULTI   RHF-SCF       INT
 CPU TIMES  *     82643.76  60274.22    280.92  20274.67   1791.39      7.57      0.41     14.36
 REAL TIME  *     83215.98 SEC
 DISK USED  *         1.13 GB (local),        7.79 GB (total)
 SF USED    *         9.19 GB
 GA USED    *         0.00 MB       (max)       0.00 MB       (current)
 **********************************************************************************************************************************

 CI/aug-cc-pWCVTZ-X2C energy= -24984.949168137602

              CI              CI           MULTI         RHF-SCF
 -24984.92451928 -24984.99157344 -24984.64746032 -24984.45070732
 **********************************************************************************************************************************
 Molpro calculation terminated with 1 warning(s)
