
 Working directory              : /wrk/irikura/molpro.4ARHsGkIBv/
 Global scratch directory       : /wrk/irikura/molpro.4ARHsGkIBv/
 Wavefunction directory         : /home/irikura/wfu/
 Main file repository           : /wrk/irikura/molpro.4ARHsGkIBv/

 id        : nistki

 Nodes            nprocs
 pn125343.nist.gov    6
 GA implementation: MPI file
 GA implementation (serial work in mppx): MPI file

 Using customized tuning parameters: mindgm=1; mindgv=20; mindgc=4; mindgr=1; noblas=0; minvec=7
 default implementation of scratch files=sf  


 Variables initialized (1042), CPU time= 0.01 sec
 ***,Ra SO-CI
                                                                                 ! larger core [15 19]
 memory,8,G
 
 gprint,orbitals,civector;
 
 symmetry,xyz
 geometry={Ra};
 
 basis=aug-cc-pwCVQZ-X2C
 
 set,dkho=101
 
 {rhf;wf,sym=1,spin=0}
 
 NSING=7
 NTRIP=24
 
                                                                                 ! active space (2/10) as orbitals [7 3]
 {multi
     closed,21,22
     occ,28,25
     wf,sym=1,spin=0;state,NSING;
     wf,sym=1,spin=2;state,NTRIP;
     expec2,lxx,lyy,lzz;
 }
 table, energy, ll
 title, Energies and &lt;L**2&gt; values
 
 core,15,19
 {ci;wf,sym=1,spin=0;state,NSING; save,5101.2}
 hlsdiag = energd4
 {ci;wf,sym=1,spin=2;state,NTRIP; save,5103.2}
 hlsdiag(NSING+1) = energd4
 
 table,hlsdiag
 
 lsint
 {ci;hlsmat,ls,5101.2,5103.2;print,vls=0,hls=0}                                  !compute and diagonalize SO matrix
 Commands initialized (847), CPU time= 0.01 sec, 718 directives.
 Default parameters read. Elapsed time= 0.10 sec

 Checking input...
 Passed
1


                                         ***  PROGRAM SYSTEM MOLPRO  ***
                                       Copyright, TTI GmbH Stuttgart, 2015
                                    Version 2024.1 linked Wed Jan 31 05:42:09 2024


 **********************************************************************************************************************************
 LABEL *   Ra SO-CI                                                                                                                                                      
  (64 PROC) 64 bit mpp version                                                           DATE: 10-May-24          TIME: 10:37:48  
 **********************************************************************************************************************************

 SHA1:             675817fde4514a4a933b69e420913a90cee4ef91
 **********************************************************************************************************************************

 Memory per process:      8000 MW
 Total memory per node:  48000 MW

 GA preallocation disabled
 GA check disabled

 Variable memory set to 8000.0 MW


 ZSYMEL=XYZ

 SETTING BASIS          =    AUG-CC-PWCVQZ-X2C
 SETTING DKHO           =       101.00000000                                  


 Recomputing integrals since basis changed


 Using spherical harmonics

 Library entry RA     S aug-cc-pwCVQZ-X      selected for orbital group  1
 Library entry RA     P aug-cc-pwCVQZ-X      selected for orbital group  1
 Library entry RA     D aug-cc-pwCVQZ-X      selected for orbital group  1
 Library entry RA     F aug-cc-pwCVQZ-X      selected for orbital group  1
 Library entry RA     G aug-cc-pwCVQZ-X      selected for orbital group  1


 PROGRAM * SEWARD (Integral evaluation for generally contracted gaussian basis sets)     Author: Roland Lindh, 1990

 Geometry written to block  1 of record 700

 Orientation using atomic masses  
 Molecule type: Atom
 User-specified symmetry elements: XYZ
 Symmetry elements: XYZ
 Rotational constants:       0.0000000      0.0000000      0.0000000 GHz  (calculated with average atomic masses)

 Point group  Ci  



 ATOMIC COORDINATES

 NR  ATOM    CHARGE       X              Y              Z

   1  RA     88.00    0.000000000    0.000000000    0.000000000

 NUCLEAR CHARGE:                   88
 NUMBER OF PRIMITIVE AOS:         568
 NUMBER OF SYMMETRY AOS:          462
 NUMBER OF CONTRACTIONS:          184   (   96Ag  +   88Au  )
 NUMBER OF INNER CORE ORBITALS:    39   (   20Ag  +   19Au  )
 NUMBER OF OUTER CORE ORBITALS:     4   (    1Ag  +    3Au  )
 NUMBER OF VALENCE ORBITALS:        1   (    1Ag  +    0Au  )


 NUCLEAR REPULSION ENERGY    0.00000000

 One-electron integrals computed with SEWARD

 eXact-2-Component (X2C) method activated

 Computing Douglas-Kroll / X2C integrals

 AO integral compression algorithm  1   Integral accuracy      1.0D-11

     139.723 MB (compressed) written to integral file ( 12.3%)

     Node minimum: 16.777 MB, node maximum: 28.049 MB


 NUMBER OF SORTED TWO-ELECTRON INTEGRALS:   12193260.     BUFFER LENGTH:  32768
 NUMBER OF SEGMENTS:   1  SEGMENT LENGTH:   12193260      RECORD LENGTH: 524288

 Memory used in sort:      12.75 MW

 SORT1 READ   142077448. AND WROTE     2282850. INTEGRALS IN      7 RECORDS. CPU TIME:     0.55 SEC, REAL TIME:     0.60 SEC
 SORT2 READ    14096359. AND WROTE    73209670. INTEGRALS IN    384 RECORDS. CPU TIME:     0.18 SEC, REAL TIME:     0.20 SEC

 Node minimum:    12191832.  Node maximum:    12208288. integrals

 OPERATOR DM      FOR CENTER  0  COORDINATES:    0.000000    0.000000    0.000000

 EXTRA SYMMETRY OF AOS IN SYMMETRY 1:   1 1 1 1 1 1 1 1 1 1   1 1 1 1 2 3 4 5 6 2   3 4 5 6 2 3 4 5 6 2   3 4 5 6 2 3 4 5 6 2
                                        3 4 5 6 2 3 4 5 6 2   3 4 5 6 2 3 4 5 6 2   3 4 5 6 2 3 4 5 6 7   8 9101112131415 7 8
                                        9101112131415 7 8 9  101112131415
 EXTRA SYMMETRY OF AOS IN SYMMETRY 2:   1 2 3 1 2 3 1 2 3 1   2 3 1 2 3 1 2 3 1 2   3 1 2 3 1 2 3 1 2 3   1 2 3 1 2 3 1 2 3 4
                                        5 6 7 8 910 4 5 6 7   8 910 4 5 6 7 8 910   4 5 6 7 8 910 4 5 6   7 8 910 4 5 6 7 8 9
                                       10 4 5 6 7 8 910

 Eigenvalues of metric

         1 0.988E-05 0.177E-04 0.169E-03 0.169E-03 0.169E-03 0.169E-03 0.169E-03 0.803E-03
         2 0.347E-04 0.347E-04 0.347E-04 0.111E-03 0.111E-03 0.111E-03 0.369E-02 0.369E-02


 **********************************************************************************************************************************
 DATASETS  * FILE   NREC   LENGTH (MB)   RECORD NAMES
              1      22       31.22       500      610      700      900      950      970     1000      129      960     1700   
                                          VAR    BASINP    GEOM    SYMINP    ZMAT    AOBASIS   BASIS     P2S    ABASIS    OPER   
                                         1101     1401     1411     1412     1650     1100     1400     1410     1200     1210   
                                          SR      EKINR    POTR     PVPR    MOLCAS      S      EKIN      POT      H0       H01  
                                         1080     1600   
                                         AOSYM     SMH  

 PROGRAMS   *        TOTAL       INT
 CPU TIMES  *        44.26     44.08
 REAL TIME  *        47.99 SEC
 DISK USED  *        31.65 MB (local),      469.51 MB (total)
 GA USED    *         0.00 MB       (max)       0.00 MB       (current)
 **********************************************************************************************************************************


 Program * Restricted Hartree-Fock

 Orbital guess generated from atomic densities.

 Initial occupancy:  21  23

 NELEC=   88   SYM=1   MS2= 0   THRE=1.0D-08   THRD=3.2D-06   THRG=3.2D-06  HFMA2=F  DIIS_START=2   DIIS_MAX=10   DIIS_INCORE=F

 Level shifts:    0.00 (CLOSED)    0.00 (OPEN)    0.30 (GAP_MIN)

 ITER           ETOT              DE          GRAD        DDIFF     DIIS  NEXP   TIME(IT)  TIME(TOT)  DIAG
   1   -24984.27705582  -24984.27705582     0.00D+00     0.25D+01     0     0       0.05      0.12    start
   2   -24984.36715081      -0.09009499     0.49D-02     0.98D+00     1     0       0.07      0.19    diag
   3   -24984.37768688      -0.01053607     0.26D-02     0.28D+00     2     0       0.06      0.25    diag
   4   -24984.38410473      -0.00641785     0.74D-03     0.30D+00     3     0       0.07      0.32    diag
   5   -24984.38961517      -0.00551045     0.44D-03     0.20D+00     4     0       0.06      0.38    diag
   6   -24984.38701273       0.00260245     0.44D-03     0.60D-01     5     0       0.06      0.44    diag
   7   -24984.38487871       0.00213401     0.41D-03     0.42D-01     6     0       0.06      0.50    diag
   8   -24984.38933506      -0.00445635     0.36D-03     0.16D+00     7     0       0.06      0.56    fixocc
   9   -24984.38149624       0.00783882     0.37D-03     0.17D+00     8     0       0.07      0.63    diag
  10   -24984.37893599       0.00256025     0.34D-03     0.35D+00     9     0       0.06      0.69    diag/orth
  11   -24984.38121344      -0.00227745     0.24D-03     0.29D+00     9     0       0.06      0.75    diag
  12   -24984.38171846      -0.00050502     0.16D-03     0.99D-01     9     0       0.06      0.81    diag
  13   -24984.38176766      -0.00004920     0.54D-04     0.61D-01     9     0       0.06      0.87    diag
  14   -24984.38182450      -0.00005684     0.38D-04     0.66D-02     9     0       0.06      0.93    diag
  15   -24984.38175823       0.00006627     0.39D-04     0.16D-02     9     0       0.07      1.00    diag
  16   -24984.38157446       0.00018376     0.35D-04     0.33D-02     9     0       0.06      1.06    diag
  17   -24984.38155626       0.00001820     0.14D-04     0.32D-02     9     0       0.06      1.12    diag
  18   -24984.38155744      -0.00000118     0.79D-05     0.23D-02     9     0       0.06      1.18    diag
  19   -24984.38155919      -0.00000175     0.73D-05     0.53D-03     9     0       0.06      1.24    diag
  20   -24984.38155805       0.00000114     0.80D-05     0.82D-03     9     0       0.07      1.31    diag/orth
  21   -24984.38156067      -0.00000262     0.66D-05     0.72D-03     9     0       0.06      1.37    diag
  22   -24984.38156203      -0.00000136     0.39D-05     0.22D-02     9     0       0.06      1.43    diag
  23   -24984.38156223      -0.00000020     0.28D-05     0.17D-03     9     0       0.06      1.49    diag
  24   -24984.38156195       0.00000028     0.32D-05     0.76D-03     9     0       0.06      1.55    diag
  25   -24984.38156199      -0.00000004     0.22D-05     0.10D-02     9     0       0.06      1.61    diag
  26   -24984.38156201      -0.00000002     0.14D-05     0.66D-03     9     0       0.06      1.67    diag
  27   -24984.38156203      -0.00000002     0.13D-05     0.17D-03     9     0       0.07      1.74    diag
  28   -24984.38156199       0.00000005     0.13D-05     0.58D-04     9     0       0.06      1.80    diag
  29   -24984.38156193       0.00000006     0.12D-05     0.32D-03     9     0       0.06      1.86    diag
  30   -24984.38156189       0.00000004     0.11D-05     0.43D-03     9     0       0.06      1.92    diag/orth
  31   -24984.38156190      -0.00000001     0.10D-05     0.31D-03     9     0       0.06      1.98    diag
  32   -24984.38156188       0.00000002     0.10D-05     0.25D-04     9     0       0.06      2.04    diag
  33   -24984.38156187       0.00000001     0.10D-05     0.81D-04     9     0       0.06      2.10    diag
  34   -24984.38156186       0.00000001     0.10D-05     0.56D-04     9     0       0.06      2.16    diag
  35   -24984.38156182       0.00000005     0.94D-06     0.22D-03     9     0       0.07      2.23    diag
  36   -24984.38156179       0.00000003     0.75D-06     0.47D-03     9     0       0.06      2.29    diag
  37   -24984.38156179      -0.00000000     0.49D-06     0.15D-03     9     0       0.06      2.35    diag
  38   -24984.38156179       0.00000000     0.47D-06     0.32D-04     9     0       0.06      2.41    diag
  39   -24984.38156179       0.00000000     0.47D-06     0.45D-04     9     0       0.06      2.47    diag
  40   -24984.38156179      -0.00000000     0.47D-06     0.19D-04     9     0       0.07      2.54    diag/orth
  41   -24984.38156178       0.00000001     0.47D-06     0.82D-04     9     0       0.06      2.60    diag
  42   -24984.38156178       0.00000000     0.46D-06     0.18D-04     9     0       0.06      2.66    diag
  43   -24984.38156178       0.00000000     0.47D-06     0.71D-04     9     0       0.07      2.73    diag
  44   -24984.38156178       0.00000000     0.46D-06     0.49D-04     9     0       0.06      2.79    diag
  45   -24984.38156178       0.00000000     0.46D-06     0.51D-04     9     0       0.06      2.85    diag
  46   -24984.38156178       0.00000000     0.44D-06     0.20D-04     9     0       0.06      2.91    diag
  47   -24984.38156178      -0.00000000     0.43D-06     0.21D-04     9     0       0.06      2.97    diag
  48   -24984.38156178       0.00000000     0.42D-06     0.63D-04     9     0       0.07      3.04    diag
  49   -24984.38156177       0.00000000     0.40D-06     0.66D-04     9     0       0.06      3.10    diag
  50   -24984.38156178      -0.00000000     0.39D-06     0.38D-04     9     0       0.06      3.16    diag/orth
  51   -24984.38156178      -0.00000000     0.39D-06     0.70D-05     9     0       0.06      3.22    diag
  52   -24984.38156178      -0.00000000     0.38D-06     0.62D-04     9     0       0.06      3.28    diag
  53   -24984.38156178      -0.00000000     0.38D-06     0.24D-05     9     0       0.07      3.35    diag
  54   -24984.38156178      -0.00000000     0.38D-06     0.35D-04     0     0       0.06      3.41    diag

 Final occupancy:  21  23

 !RHF STATE 1.1 Energy               -24984.3815617819    
  RHF One-electron energy            -33972.9211871287    
  RHF Two-electron energy            8988.539625346817
  RHF Kinetic energy                  43484.5099602734    
  RHF Nuclear energy                    0.000000000000
  RHF Virial quotient                  -0.574558195197

 !RHF STATE 1.1 Dipole moment           0.00000000     0.00000000     0.00000000
 Dipole moment /Debye                   0.00000000     0.00000000     0.00000000

 ELECTRON ORBITALS
 =================

  Orbital  Occupation    Energy    Cen Mu Typ  Coefficients
    1.1     2.00000 -3845.51221     1  1  s    1.00000
    2.1     2.00000  -713.06211     1  2  s    0.99997
    3.1     2.00000  -180.07168     1  3  s    1.00000
    4.1     2.00000  -118.40890     1  1  d0   0.86603    1  1  d2-  0.38796    1  1  d2+ -0.31541
    5.1     2.00000  -118.40890     1  1  d1+  0.90300    1  1  d1- -0.42963
    6.1     2.00000  -118.40879     1  1  d1+  0.42963    1  1  d1-  0.90300
    7.1     2.00000  -118.40879     1  1  d2-  0.63086    1  1  d2+  0.77590
    8.1     2.00000  -118.40876     1  1  d0  -0.49999    1  1  d2-  0.67195    1  1  d2+ -0.54635
    9.1     2.00000   -46.02420     1  4  s    0.99899
   10.1     2.00000   -23.97946     1  2  d1+  0.90299    1  2  d1- -0.42962
   11.1     2.00000   -23.97946     1  2  d0   0.86601    1  2  d2-  0.38794    1  2  d2+ -0.31541
   12.1     2.00000   -23.97921     1  2  d1+  0.42962    1  2  d1-  0.90299
   13.1     2.00000   -23.97921     1  2  d2-  0.63081    1  2  d2+  0.77591
   14.1     2.00000   -23.97913     1  2  d0  -0.49998    1  2  d2-  0.67196    1  2  d2+ -0.54630
   15.1     2.00000   -10.31799     1  5  s    0.99916
   16.1     2.00000    -3.29754     1  3  d1+  0.90324    1  3  d1- -0.42974
   17.1     2.00000    -3.29754     1  3  d0   0.86624    1  3  d2-  0.38806    1  3  d2+ -0.31552
   18.1     2.00000    -3.29698     1  3  d2-  0.63102    1  3  d2+  0.77616
   19.1     2.00000    -3.29698     1  3  d1+  0.42975    1  3  d1-  0.90328
   20.1     2.00000    -3.29681     1  3  d0  -0.50016    1  3  d2-  0.67217    1  3  d2+ -0.54646
   21.1     2.00000    -1.92243     1  6  s    0.95425
    1.2     2.00000  -604.43649     1  1  px   0.90299    1  1  py  -0.42961
    2.2     2.00000  -604.43649     1  1  pz   0.99998
    3.2     2.00000  -604.43647     1  1  px   0.42962    1  1  py   0.90301
    4.2     2.00000  -149.02481     1  2  pz   1.00000
    5.2     2.00000  -149.02481     1  2  px   0.90300    1  2  py  -0.42963
    6.2     2.00000  -149.02470     1  2  px   0.42963    1  2  py   0.90300
    7.2     2.00000   -35.66274     1  3  pz   1.00009
    8.2     2.00000   -35.66274     1  3  px   0.90308    1  3  py  -0.42967
    9.2     2.00000   -35.66249     1  3  px   0.42967    1  3  py   0.90310
   10.2     2.00000   -11.50650     1  1  f0   0.79057    1  1  f2-  0.47514    1  1  f2+ -0.38629
   11.2     2.00000   -11.50650     1  1  f1+  0.87432    1  1  f1- -0.41599
   12.2     2.00000   -11.50629     1  1  f1+  0.33966    1  1  f1-  0.71388    1  1  f3+ -0.59501
   13.2     2.00000   -11.50629     1  1  f2-  0.63083    1  1  f2+  0.77590
   14.2     2.00000   -11.50616     1  1  f0  -0.61236    1  1  f2-  0.61340    1  1  f2+ -0.49873
   15.2     2.00000   -11.50616     1  1  f3-  0.94081
   16.2     2.00000   -11.50612     1  1  f1+  0.26308    1  1  f1-  0.55296    1  1  f3+  0.76817
   17.2     2.00000    -7.10929     1  4  px   0.89930    1  4  py  -0.42785
   18.2     2.00000    -7.10929     1  4  pz   0.99589
   19.2     2.00000    -7.10883     1  4  px   0.42735    1  4  py   0.89825
   20.2     2.00000    -1.10382     1  5  pz   0.97794
   21.2     2.00000    -1.10382     1  5  px   0.88308    1  5  py  -0.42016
   22.2     2.00000    -1.10267     1  5  px   0.42157    1  5  py   0.88603
   23.2     2.00000    -0.03057     1  5  py   0.49686    1  6  px   0.89491    1  6  py   1.88062    1  7  px  -0.26738
                                    1  7  py  -0.56177    1  8  px  -0.36352    1  8  py  -0.76393    1  9  px  -1.06803
                                    1  9  py  -2.24425    1 13  px   0.97248    1 13  py   2.04317


 HOMO     23.2    -0.030568 =      -0.8318eV
 LUMO     22.1    -0.220017 =      -5.9870eV
 LUMO-HOMO        -0.189449 =      -5.1552eV

 Orbitals saved in record  2100.2


 **********************************************************************************************************************************
 DATASETS  * FILE   NREC   LENGTH (MB)   RECORD NAMES
              1      22       31.22       500      610      700      900      950      970     1000      129      960     1700   
                                          VAR    BASINP    GEOM    SYMINP    ZMAT    AOBASIS   BASIS     P2S    ABASIS    OPER   
                                         1101     1401     1411     1412     1650     1100     1400     1410     1200     1210   
                                          SR      EKINR    POTR     PVPR    MOLCAS      S      EKIN      POT      H0       H01  
                                         1080     1600   
                                         AOSYM     SMH  

              2       4        0.69       700     1000      520     2100   
                                         GEOM     BASIS   MCVARS     RHF  

 PROGRAMS   *        TOTAL   RHF-SCF       INT
 CPU TIMES  *        47.68      3.42     44.08
 REAL TIME  *        51.56 SEC
 DISK USED  *        33.22 MB (local),      478.93 MB (total)
 GA USED    *         0.00 MB       (max)       0.00 MB       (current)
 **********************************************************************************************************************************
 SETTING NSING          =         7.00000000                                  
 SETTING NTRIP          =        24.00000000                                  

 PROGRAM * MULTI (Direct Multiconfiguration SCF)       Authors: P.J. Knowles, H.-J. Werner (1984)
                                                                D.A. Kreplin, P.J. Knowles, H.-J. Werner (2019)

 Number of closed-shell orbitals:  43 (   21   22)
 Number of active  orbitals:       10 (    7    3)
 Number of external orbitals:     131 (   68   63)

 State symmetry 1

 Number of active electrons:   2    Spin symmetry=Singlet   Space symmetry=1
 Number of states:             7
 Number of CSFs:              34   (58 determinants, 100 intermediate states)

 State symmetry 2

 Number of active electrons:   2    Spin symmetry=Triplet   Space symmetry=1
 Number of states:            24
 Number of CSFs:              24   (24 determinants, 45 intermediate states)

 Molecular orbitals read from record     2100.2  Type=RHF/CANONICAL  
 *** IN SYMMETRY 1 ORBITAL  3 SYMMETRY CONTAMINATION OF 0.115D-04 HAS BEEN REMOVED
 *** IN SYMMETRY 1 ORBITAL  4 SYMMETRY CONTAMINATION OF 0.448D+00 HAS BEEN REMOVED
 *** IN SYMMETRY 1 ORBITAL  5 SYMMETRY CONTAMINATION OF 0.322D+00 HAS BEEN REMOVED
 *** IN SYMMETRY 1 ORBITAL  6 SYMMETRY CONTAMINATION OF 0.323D+00 HAS BEEN REMOVED
 *** IN SYMMETRY 1 ORBITAL  7 SYMMETRY CONTAMINATION OF 0.449D+00 HAS BEEN REMOVED
 *** IN SYMMETRY 1 ORBITAL  8 SYMMETRY CONTAMINATION OF 0.609D+00 HAS BEEN REMOVED
 *** IN SYMMETRY 1 ORBITAL  9 SYMMETRY CONTAMINATION OF 0.982D-04 HAS BEEN REMOVED
 *** IN SYMMETRY 1 ORBITAL 10 SYMMETRY CONTAMINATION OF 0.323D+00 HAS BEEN REMOVED
 *** IN SYMMETRY 1 ORBITAL 11 SYMMETRY CONTAMINATION OF 0.448D+00 HAS BEEN REMOVED
 *** IN SYMMETRY 1 ORBITAL 12 SYMMETRY CONTAMINATION OF 0.323D+00 HAS BEEN REMOVED
 *** IN SYMMETRY 1 ORBITAL 13 SYMMETRY CONTAMINATION OF 0.449D+00 HAS BEEN REMOVED
 *** IN SYMMETRY 1 ORBITAL 14 SYMMETRY CONTAMINATION OF 0.609D+00 HAS BEEN REMOVED
 *** IN SYMMETRY 1 ORBITAL 15 SYMMETRY CONTAMINATION OF 0.399D-03 HAS BEEN REMOVED
 *** IN SYMMETRY 1 ORBITAL 16 SYMMETRY CONTAMINATION OF 0.323D+00 HAS BEEN REMOVED
 *** IN SYMMETRY 1 ORBITAL 17 SYMMETRY CONTAMINATION OF 0.448D+00 HAS BEEN REMOVED
 *** IN SYMMETRY 1 ORBITAL 18 SYMMETRY CONTAMINATION OF 0.450D+00 HAS BEEN REMOVED
 *** IN SYMMETRY 1 ORBITAL 19 SYMMETRY CONTAMINATION OF 0.324D+00 HAS BEEN REMOVED
 *** IN SYMMETRY 1 ORBITAL 20 SYMMETRY CONTAMINATION OF 0.610D+00 HAS BEEN REMOVED
 *** IN SYMMETRY 1 ORBITAL 21 SYMMETRY CONTAMINATION OF 0.126D-01 HAS BEEN REMOVED
 *** IN SYMMETRY 1 ORBITAL 22 SYMMETRY CONTAMINATION OF 0.353D-01 HAS BEEN REMOVED
 *** IN SYMMETRY 1 ORBITAL 23 SYMMETRY CONTAMINATION OF 0.451D+00 HAS BEEN REMOVED
 *** IN SYMMETRY 1 ORBITAL 24 SYMMETRY CONTAMINATION OF 0.326D+00 HAS BEEN REMOVED
 *** IN SYMMETRY 1 ORBITAL 25 SYMMETRY CONTAMINATION OF 0.452D+00 HAS BEEN REMOVED
 *** IN SYMMETRY 1 ORBITAL 26 SYMMETRY CONTAMINATION OF 0.328D+00 HAS BEEN REMOVED
 *** IN SYMMETRY 1 ORBITAL 27 SYMMETRY CONTAMINATION OF 0.636D+00 HAS BEEN REMOVED
 *** IN SYMMETRY 1 ORBITAL 28 SYMMETRY CONTAMINATION OF 0.128D+00 HAS BEEN REMOVED

 EXTRA SYMMETRY OF MOS IN SYMMETRY 1:   1 1 1 2 4 6 5 3 1 4   2 6 5 3 1 4 2 5 6 3   1 1 2 4 5 6 3 1 2 4   5 6 3 1 2 4 6 5 1 1
                                        7 9141215131011 8 2   4 5 6 3 1 7 9141215  131110 8 2 4 6 5 3 1   7 9141215131110 8 4
                                        2 6 5 3 4 2 5 6 3 1   4 2 6 5 3 3
 *** IN SYMMETRY 2 ORBITAL  1 SYMMETRY CONTAMINATION OF 0.326D+00 HAS BEEN REMOVED
 *** IN SYMMETRY 2 ORBITAL  2 SYMMETRY CONTAMINATION OF 0.917D-02 HAS BEEN REMOVED
 *** IN SYMMETRY 2 ORBITAL  3 SYMMETRY CONTAMINATION OF 0.322D+00 HAS BEEN REMOVED
 *** IN SYMMETRY 2 ORBITAL  4 SYMMETRY CONTAMINATION OF 0.139D-03 HAS BEEN REMOVED
 *** IN SYMMETRY 2 ORBITAL  5 SYMMETRY CONTAMINATION OF 0.322D+00 HAS BEEN REMOVED
 *** IN SYMMETRY 2 ORBITAL  6 SYMMETRY CONTAMINATION OF 0.322D+00 HAS BEEN REMOVED
 *** IN SYMMETRY 2 ORBITAL  7 SYMMETRY CONTAMINATION OF 0.172D-03 HAS BEEN REMOVED
 *** IN SYMMETRY 2 ORBITAL  8 SYMMETRY CONTAMINATION OF 0.322D+00 HAS BEEN REMOVED
 *** IN SYMMETRY 2 ORBITAL  9 SYMMETRY CONTAMINATION OF 0.322D+00 HAS BEEN REMOVED
 *** IN SYMMETRY 2 ORBITAL 10 SYMMETRY CONTAMINATION OF 0.522D+00 HAS BEEN REMOVED
 *** IN SYMMETRY 2 ORBITAL 11 SYMMETRY CONTAMINATION OF 0.451D+00 HAS BEEN REMOVED
 *** IN SYMMETRY 2 ORBITAL 12 SYMMETRY CONTAMINATION OF 0.602D+00 HAS BEEN REMOVED
 *** IN SYMMETRY 2 ORBITAL 13 SYMMETRY CONTAMINATION OF 0.449D+00 HAS BEEN REMOVED
 *** IN SYMMETRY 2 ORBITAL 14 SYMMETRY CONTAMINATION OF 0.644D+00 HAS BEEN REMOVED
 *** IN SYMMETRY 2 ORBITAL 15 SYMMETRY CONTAMINATION OF 0.374D+00 HAS BEEN REMOVED
 *** IN SYMMETRY 2 ORBITAL 16 SYMMETRY CONTAMINATION OF 0.566D+00 HAS BEEN REMOVED
 *** IN SYMMETRY 2 ORBITAL 17 SYMMETRY CONTAMINATION OF 0.323D+00 HAS BEEN REMOVED
 *** IN SYMMETRY 2 ORBITAL 18 SYMMETRY CONTAMINATION OF 0.166D-02 HAS BEEN REMOVED
 *** IN SYMMETRY 2 ORBITAL 19 SYMMETRY CONTAMINATION OF 0.323D+00 HAS BEEN REMOVED
 *** IN SYMMETRY 2 ORBITAL 20 SYMMETRY CONTAMINATION OF 0.434D-02 HAS BEEN REMOVED
 *** IN SYMMETRY 2 ORBITAL 21 SYMMETRY CONTAMINATION OF 0.324D+00 HAS BEEN REMOVED
 *** IN SYMMETRY 2 ORBITAL 22 SYMMETRY CONTAMINATION OF 0.324D+00 HAS BEEN REMOVED
 *** IN SYMMETRY 2 ORBITAL 23 SYMMETRY CONTAMINATION OF 0.329D+00 HAS BEEN REMOVED
 *** IN SYMMETRY 2 ORBITAL 24 SYMMETRY CONTAMINATION OF 0.337D+00 HAS BEEN REMOVED
 *** IN SYMMETRY 2 ORBITAL 25 SYMMETRY CONTAMINATION OF 0.329D-01 HAS BEEN REMOVED
 EXTRA SYMMETRY OF MOS IN SYMMETRY 2:   1 3 2 3 1 2 3 1 2 6   4 510 8 9 7 1 3 2 3   1 2 2 1 3 2 1 3 2 4   610 5 9 8 7 1 3 1 3
                                        2 4 6 510 9 8 7 1 3   2 4 6 510 9 8 7 1 3   2 4 610 5 8 9 7 1 3   2 6 410 5 8 9 7 4 6
                                       10 5 8 9 7 3 1 2

 Wavefunction dump at record             2140.2

 Convergence thresholds  0.10E-04 (gradient)  0.10E-05 (energy)

 Weight factors for state symmetry  1:    0.03226   0.03226   0.03226   0.03226   0.03226   0.03226   0.03226
 Weight factors for state symmetry  2:    0.03226   0.03226   0.03226   0.03226   0.03226   0.03226   0.03226   0.03226
                                          0.03226   0.03226   0.03226   0.03226   0.03226   0.03226   0.03226   0.03226
                                          0.03226   0.03226   0.03226   0.03226   0.03226   0.03226   0.03226   0.03226
 
 Number of orbital rotations:  3692  ( 213 closed/active, 2814 closed/virtual, 0 active/active, 665 active/virtual )
 Total number of variables:    4674
 
 Second-order MCSCF: L-BFGS accelerated
 
 ITER  MIC  NCI  NEG     ENERGY(VAR)    ENERGY(PROJ) ENERGY CHANGE       GRAD(0)  GRAD(ORB)   GRAD(CI)      STEP      TIME
   1    8   14    2 -24984.64638626  -24984.66567546   -0.01928920    0.12094075 0.00062921 0.00000000  0.11E+01      5.78
   2    9   12    0 -24984.66636761  -24984.66661750   -0.00024989    0.00531402 0.00000132 0.00000000  0.15E+00     12.07
   3   12   14    0 -24984.66661996  -24984.66662003   -0.00000007    0.00006262 0.00000000 0.00000000  0.26E-02     18.47
   4    3    4    0 -24984.66662003  -24984.66662003    0.00000000    0.00000002 0.00000000 0.00000000  0.10E-05     22.67

 CONVERGENCE REACHED!  Final gradient:    0.00000000 ( 0.10E-08)
                       Final energy: -24984.66662003
 
 Results for state 1.1 Singlet
 =============================
 !MCSCF STATE 1.1 Singlet Energy              -24984.7921954724    
 Nuclear energy                                  0.00000000
 Kinetic energy                              43485.26192157
 One electron energy                        -33998.73335877
 Two electron energy                          9013.94116330
 Virial ratio                                    1.57455770
 
 !MCSCF STATE 1.1 Singlet Dipole moment          0.00000000     0.00000000     0.00000000
 Dipole moment /Debye                            0.00000000     0.00000000     0.00000000
 
 Results for state 2.1 Singlet
 =============================
 !MCSCF STATE 2.1 Singlet Energy              -24984.7112278691    
 Nuclear energy                                  0.00000000
 Kinetic energy                              43485.00735230
 One electron energy                        -34000.34574569
 Two electron energy                          9015.63451782
 Virial ratio                                    1.57455920
 
 !MCSCF STATE 2.1 Singlet Dipole moment          0.00000000     0.00000000     0.00000000
 Dipole moment /Debye                            0.00000000     0.00000000     0.00000000
 
 Results for state 3.1 Singlet
 =============================
 !MCSCF STATE 3.1 Singlet Energy              -24984.7112278690    
 Nuclear energy                                  0.00000000
 Kinetic energy                              43485.00735232
 One electron energy                        -34000.34574583
 Two electron energy                          9015.63451796
 Virial ratio                                    1.57455920
 
 !MCSCF STATE 3.1 Singlet Dipole moment          0.00000000     0.00000000     0.00000000
 Dipole moment /Debye                            0.00000000     0.00000000     0.00000000
 
 Results for state 4.1 Singlet
 =============================
 !MCSCF STATE 4.1 Singlet Energy              -24984.7112278688    
 Nuclear energy                                  0.00000000
 Kinetic energy                              43485.00735233
 One electron energy                        -34000.34574599
 Two electron energy                          9015.63451812
 Virial ratio                                    1.57455920
 
 !MCSCF STATE 4.1 Singlet Dipole moment          0.00000000     0.00000000     0.00000000
 Dipole moment /Debye                            0.00000000     0.00000000     0.00000000
 
 Results for state 5.1 Singlet
 =============================
 !MCSCF STATE 5.1 Singlet Energy              -24984.7112278687    
 Nuclear energy                                  0.00000000
 Kinetic energy                              43485.00735231
 One electron energy                        -34000.34574573
 Two electron energy                          9015.63451786
 Virial ratio                                    1.57455920
 
 !MCSCF STATE 5.1 Singlet Dipole moment          0.00000000     0.00000000     0.00000000
 Dipole moment /Debye                            0.00000000     0.00000000     0.00000000
 
 Results for state 6.1 Singlet
 =============================
 !MCSCF STATE 6.1 Singlet Energy              -24984.7112278687    
 Nuclear energy                                  0.00000000
 Kinetic energy                              43485.00735232
 One electron energy                        -34000.34574584
 Two electron energy                          9015.63451797
 Virial ratio                                    1.57455920
 
 !MCSCF STATE 6.1 Singlet Dipole moment          0.00000000     0.00000000     0.00000000
 Dipole moment /Debye                            0.00000000     0.00000000     0.00000000
 
 Results for state 7.1 Singlet
 =============================
 !MCSCF STATE 7.1 Singlet Energy              -24984.6719668571    
 Nuclear energy                                  0.00000000
 Kinetic energy                              43484.70170246
 One electron energy                        -33989.85717594
 Two electron energy                          9005.18520908
 Virial ratio                                    1.57456234
 
 !MCSCF STATE 7.1 Singlet Dipole moment          0.00000000     0.00000000     0.00000000
 Dipole moment /Debye                            0.00000000     0.00000000     0.00000000
 
 Results for state 1.1 Triplet
 =============================
 !MCSCF STATE 1.1 Triplet Energy              -24984.7216850750    
 Nuclear energy                                  0.00000000
 Kinetic energy                              43485.17944737
 One electron energy                        -34001.84594497
 Two electron energy                          9017.12425990
 Virial ratio                                    1.57455717
 
 !MCSCF STATE 1.1 Triplet Dipole moment          0.00000000     0.00000000     0.00000000
 Dipole moment /Debye                            0.00000000     0.00000000     0.00000000
 
 Results for state 2.1 Triplet
 =============================
 !MCSCF STATE 2.1 Triplet Energy              -24984.7216850749    
 Nuclear energy                                  0.00000000
 Kinetic energy                              43485.17944739
 One electron energy                        -34001.84594515
 Two electron energy                          9017.12426008
 Virial ratio                                    1.57455717
 
 !MCSCF STATE 2.1 Triplet Dipole moment          0.00000000     0.00000000     0.00000000
 Dipole moment /Debye                            0.00000000     0.00000000     0.00000000
 
 Results for state 3.1 Triplet
 =============================
 !MCSCF STATE 3.1 Triplet Energy              -24984.7216850749    
 Nuclear energy                                  0.00000000
 Kinetic energy                              43485.17944741
 One electron energy                        -34001.84594530
 Two electron energy                          9017.12426023
 Virial ratio                                    1.57455717
 
 !MCSCF STATE 3.1 Triplet Dipole moment          0.00000000     0.00000000     0.00000000
 Dipole moment /Debye                            0.00000000     0.00000000     0.00000000
 
 Results for state 4.1 Triplet
 =============================
 !MCSCF STATE 4.1 Triplet Energy              -24984.7216850748    
 Nuclear energy                                  0.00000000
 Kinetic energy                              43485.17944738
 One electron energy                        -34001.84594503
 Two electron energy                          9017.12425995
 Virial ratio                                    1.57455717
 
 !MCSCF STATE 4.1 Triplet Dipole moment          0.00000000     0.00000000     0.00000000
 Dipole moment /Debye                            0.00000000     0.00000000     0.00000000
 
 Results for state 5.1 Triplet
 =============================
 !MCSCF STATE 5.1 Triplet Energy              -24984.7216850748    
 Nuclear energy                                  0.00000000
 Kinetic energy                              43485.17944739
 One electron energy                        -34001.84594516
 Two electron energy                          9017.12426008
 Virial ratio                                    1.57455717
 
 !MCSCF STATE 5.1 Triplet Dipole moment          0.00000000     0.00000000     0.00000000
 Dipole moment /Debye                            0.00000000     0.00000000     0.00000000
 
 Results for state 6.1 Triplet
 =============================
 !MCSCF STATE 6.1 Triplet Energy              -24984.6774277196    
 Nuclear energy                                  0.00000000
 Kinetic energy                              43484.48353743
 One electron energy                        -33987.55468130
 Two electron energy                          9002.87725358
 Virial ratio                                    1.57456535
 
 !MCSCF STATE 6.1 Triplet Dipole moment          0.00000000     0.00000000     0.00000000
 Dipole moment /Debye                            0.00000000     0.00000000     0.00000000
 
 Results for state 7.1 Triplet
 =============================
 !MCSCF STATE 7.1 Triplet Energy              -24984.6525804383    
 Nuclear energy                                  0.00000000
 Kinetic energy                              43484.56313589
 One electron energy                        -33997.25114298
 Two electron energy                          9012.59856254
 Virial ratio                                    1.57456373
 
 !MCSCF STATE 7.1 Triplet Dipole moment          0.00000000     0.00000000     0.00000000
 Dipole moment /Debye                            0.00000000     0.00000000     0.00000000
 
 Results for state 8.1 Triplet
 =============================
 !MCSCF STATE 8.1 Triplet Energy              -24984.6525804377    
 Nuclear energy                                  0.00000000
 Kinetic energy                              43484.56313590
 One electron energy                        -33997.25114311
 Two electron energy                          9012.59856268
 Virial ratio                                    1.57456373
 
 !MCSCF STATE 8.1 Triplet Dipole moment          0.00000000     0.00000000     0.00000000
 Dipole moment /Debye                            0.00000000     0.00000000     0.00000000
 
 Results for state 9.1 Triplet
 =============================
 !MCSCF STATE 9.1 Triplet Energy              -24984.6525804375    
 Nuclear energy                                  0.00000000
 Kinetic energy                              43484.56313590
 One electron energy                        -33997.25114311
 Two electron energy                          9012.59856267
 Virial ratio                                    1.57456373
 
 !MCSCF STATE 9.1 Triplet Dipole moment          0.00000000     0.00000000     0.00000000
 Dipole moment /Debye                            0.00000000     0.00000000     0.00000000
 
 Results for state 10.1 Triplet
 ==============================
 !MCSCF STATE 10.1 Triplet Energy             -24984.6481780567    
 Nuclear energy                                  0.00000000
 Kinetic energy                              43485.02282383
 One electron energy                        -34004.51666193
 Two electron energy                          9019.86848387
 Virial ratio                                    1.57455755
 
 !MCSCF STATE 10.1 Triplet Dipole moment         0.00000000     0.00000000     0.00000000
 Dipole moment /Debye                            0.00000000     0.00000000     0.00000000
 
 Results for state 11.1 Triplet
 ==============================
 !MCSCF STATE 11.1 Triplet Energy             -24984.6481780566    
 Nuclear energy                                  0.00000000
 Kinetic energy                              43485.02282384
 One electron energy                        -34004.51666203
 Two electron energy                          9019.86848397
 Virial ratio                                    1.57455755
 
 !MCSCF STATE 11.1 Triplet Dipole moment         0.00000000     0.00000000     0.00000000
 Dipole moment /Debye                            0.00000000     0.00000000     0.00000000
 
 Results for state 12.1 Triplet
 ==============================
 !MCSCF STATE 12.1 Triplet Energy             -24984.6481780566    
 Nuclear energy                                  0.00000000
 Kinetic energy                              43485.02282384
 One electron energy                        -34004.51666203
 Two electron energy                          9019.86848397
 Virial ratio                                    1.57455755
 
 !MCSCF STATE 12.1 Triplet Dipole moment         0.00000000     0.00000000     0.00000000
 Dipole moment /Debye                            0.00000000     0.00000000     0.00000000
 
 Results for state 13.1 Triplet
 ==============================
 !MCSCF STATE 13.1 Triplet Energy             -24984.6481780565    
 Nuclear energy                                  0.00000000
 Kinetic energy                              43485.02282387
 One electron energy                        -34004.51666229
 Two electron energy                          9019.86848424
 Virial ratio                                    1.57455755
 
 !MCSCF STATE 13.1 Triplet Dipole moment         0.00000000     0.00000000     0.00000000
 Dipole moment /Debye                            0.00000000     0.00000000     0.00000000
 
 Results for state 14.1 Triplet
 ==============================
 !MCSCF STATE 14.1 Triplet Energy             -24984.6481780564    
 Nuclear energy                                  0.00000000
 Kinetic energy                              43485.02282387
 One electron energy                        -34004.51666236
 Two electron energy                          9019.86848430
 Virial ratio                                    1.57455755
 
 !MCSCF STATE 14.1 Triplet Dipole moment         0.00000000     0.00000000     0.00000000
 Dipole moment /Debye                            0.00000000     0.00000000     0.00000000
 
 Results for state 15.1 Triplet
 ==============================
 !MCSCF STATE 15.1 Triplet Energy             -24984.6481780564    
 Nuclear energy                                  0.00000000
 Kinetic energy                              43485.02282387
 One electron energy                        -34004.51666230
 Two electron energy                          9019.86848424
 Virial ratio                                    1.57455755
 
 !MCSCF STATE 15.1 Triplet Dipole moment         0.00000000     0.00000000     0.00000000
 Dipole moment /Debye                            0.00000000     0.00000000     0.00000000
 
 Results for state 16.1 Triplet
 ==============================
 !MCSCF STATE 16.1 Triplet Energy             -24984.6481780564    
 Nuclear energy                                  0.00000000
 Kinetic energy                              43485.02282387
 One electron energy                        -34004.51666236
 Two electron energy                          9019.86848430
 Virial ratio                                    1.57455755
 
 !MCSCF STATE 16.1 Triplet Dipole moment         0.00000000     0.00000000     0.00000000
 Dipole moment /Debye                            0.00000000     0.00000000     0.00000000
 
 Results for state 17.1 Triplet
 ==============================
 !MCSCF STATE 17.1 Triplet Energy             -24984.6087647582    
 Nuclear energy                                  0.00000000
 Kinetic energy                              43484.32691392
 One electron energy                        -33990.22539856
 Two electron energy                          9005.61663380
 Virial ratio                                    1.57456584
 
 !MCSCF STATE 17.1 Triplet Dipole moment         0.00000000     0.00000000     0.00000000
 Dipole moment /Debye                            0.00000000     0.00000000     0.00000000
 
 Results for state 18.1 Triplet
 ==============================
 !MCSCF STATE 18.1 Triplet Energy             -24984.6087647578    
 Nuclear energy                                  0.00000000
 Kinetic energy                              43484.32691390
 One electron energy                        -33990.22539840
 Two electron energy                          9005.61663364
 Virial ratio                                    1.57456584
 
 !MCSCF STATE 18.1 Triplet Dipole moment         0.00000000     0.00000000     0.00000000
 Dipole moment /Debye                            0.00000000     0.00000000     0.00000000
 
 Results for state 19.1 Triplet
 ==============================
 !MCSCF STATE 19.1 Triplet Energy             -24984.6087647576    
 Nuclear energy                                  0.00000000
 Kinetic energy                              43484.32691390
 One electron energy                        -33990.22539840
 Two electron energy                          9005.61663365
 Virial ratio                                    1.57456584
 
 !MCSCF STATE 19.1 Triplet Dipole moment         0.00000000     0.00000000     0.00000000
 Dipole moment /Debye                            0.00000000     0.00000000     0.00000000
 
 Results for state 20.1 Triplet
 ==============================
 !MCSCF STATE 20.1 Triplet Energy             -24984.6087647576    
 Nuclear energy                                  0.00000000
 Kinetic energy                              43484.32691390
 One electron energy                        -33990.22539834
 Two electron energy                          9005.61663359
 Virial ratio                                    1.57456584
 
 !MCSCF STATE 20.1 Triplet Dipole moment         0.00000000     0.00000000     0.00000000
 Dipole moment /Debye                            0.00000000     0.00000000     0.00000000
 
 Results for state 21.1 Triplet
 ==============================
 !MCSCF STATE 21.1 Triplet Energy             -24984.6087647569    
 Nuclear energy                                  0.00000000
 Kinetic energy                              43484.32691388
 One electron energy                        -33990.22539811
 Two electron energy                          9005.61663335
 Virial ratio                                    1.57456584
 
 !MCSCF STATE 21.1 Triplet Dipole moment         0.00000000     0.00000000     0.00000000
 Dipole moment /Debye                            0.00000000     0.00000000     0.00000000
 
 Results for state 22.1 Triplet
 ==============================
 !MCSCF STATE 22.1 Triplet Energy             -24984.6067515649    
 Nuclear energy                                  0.00000000
 Kinetic energy                              43484.58249727
 One electron energy                        -33997.55715596
 Two electron energy                          9012.95040439
 Virial ratio                                    1.57456242
 
 !MCSCF STATE 22.1 Triplet Dipole moment         0.00000000     0.00000000     0.00000000
 Dipole moment /Debye                            0.00000000     0.00000000     0.00000000
 
 Results for state 23.1 Triplet
 ==============================
 !MCSCF STATE 23.1 Triplet Energy             -24984.6067515648    
 Nuclear energy                                  0.00000000
 Kinetic energy                              43484.58249726
 One electron energy                        -33997.55715566
 Two electron energy                          9012.95040410
 Virial ratio                                    1.57456242
 
 !MCSCF STATE 23.1 Triplet Dipole moment         0.00000000     0.00000000     0.00000000
 Dipole moment /Debye                            0.00000000     0.00000000     0.00000000
 
 Results for state 24.1 Triplet
 ==============================
 !MCSCF STATE 24.1 Triplet Energy             -24984.6067515647    
 Nuclear energy                                  0.00000000
 Kinetic energy                              43484.58249726
 One electron energy                        -33997.55715570
 Two electron energy                          9012.95040413
 Virial ratio                                    1.57456242
 
 !MCSCF STATE 24.1 Triplet Dipole moment         0.00000000     0.00000000     0.00000000
 Dipole moment /Debye                            0.00000000     0.00000000     0.00000000
 
 State-averaged charge density matrix saved on record 2140.2 (density set 1)
 
 No non-zero expectation values
 
 Expectation values for two-electron operators:
 
 ? Warning
 ? Transition properties are only calculated between states of the same symmetry
 ? The problem occurs in mu_properties_expec2

 !MCSCF expec      <1.1 Singlet|LXLX|1.1 Singlet>    -0.000000000000
 !MCSCF expec      <2.1 Singlet|LXLX|2.1 Singlet>     0.150151140390
 !MCSCF expec      <3.1 Singlet|LXLX|3.1 Singlet>     1.000000018056
 !MCSCF expec      <4.1 Singlet|LXLX|4.1 Singlet>     1.000002839447
 !MCSCF expec      <5.1 Singlet|LXLX|5.1 Singlet>     3.849845894711
 !MCSCF expec      <6.1 Singlet|LXLX|6.1 Singlet>     3.999999675369
 !MCSCF expec      <7.1 Singlet|LXLX|7.1 Singlet>    -0.000000000000
 !MCSCF expec      <1.1 Triplet|LXLX|1.1 Triplet>     3.444261415769
 !MCSCF expec      <2.1 Triplet|LXLX|2.1 Triplet>     3.999996618726
 !MCSCF expec      <3.1 Triplet|LXLX|3.1 Triplet>     1.000003203465
 !MCSCF expec      <4.1 Triplet|LXLX|4.1 Triplet>     0.555740540687
 !MCSCF expec      <5.1 Triplet|LXLX|5.1 Triplet>     0.999998244943
 !MCSCF expec      <6.1 Triplet|LXLX|6.1 Triplet>    -0.000000000000
 !MCSCF expec      <7.1 Triplet|LXLX|7.1 Triplet>     0.999999970052
 !MCSCF expec      <8.1 Triplet|LXLX|8.1 Triplet>     0.999999995760
 !MCSCF expec      <9.1 Triplet|LXLX|9.1 Triplet>     0.000000034201
 !MCSCF expec    <10.1 Triplet|LXLX|10.1 Triplet>     4.000000037529
 !MCSCF expec    <11.1 Triplet|LXLX|11.1 Triplet>     3.743110071663
 !MCSCF expec    <12.1 Triplet|LXLX|12.1 Triplet>     3.187835228077
 !MCSCF expec    <13.1 Triplet|LXLX|13.1 Triplet>     8.910715626779
 !MCSCF expec    <14.1 Triplet|LXLX|14.1 Triplet>     6.812158151976
 !MCSCF expec    <15.1 Triplet|LXLX|15.1 Triplet>     1.089284019664
 !MCSCF expec    <16.1 Triplet|LXLX|16.1 Triplet>     0.256890225783
 !MCSCF expec    <17.1 Triplet|LXLX|17.1 Triplet>     1.000000013526
 !MCSCF expec    <18.1 Triplet|LXLX|18.1 Triplet>     3.999999977327
 !MCSCF expec    <19.1 Triplet|LXLX|19.1 Triplet>     1.000000007315
 !MCSCF expec    <20.1 Triplet|LXLX|20.1 Triplet>     3.415902951251
 !MCSCF expec    <21.1 Triplet|LXLX|21.1 Triplet>     0.584097051139
 !MCSCF expec    <22.1 Triplet|LXLX|22.1 Triplet>     0.999999431822
 !MCSCF expec    <23.1 Triplet|LXLX|23.1 Triplet>     0.000000583459
 !MCSCF expec    <24.1 Triplet|LXLX|24.1 Triplet>     0.999999984596
 
 !MCSCF expec      <1.1 Singlet|LYLY|1.1 Singlet>    -0.000000000000
 !MCSCF expec      <2.1 Singlet|LYLY|2.1 Singlet>     3.583365293040
 !MCSCF expec      <3.1 Singlet|LYLY|3.1 Singlet>     3.999999970581
 !MCSCF expec      <4.1 Singlet|LYLY|4.1 Singlet>     0.999999471313
 !MCSCF expec      <5.1 Singlet|LYLY|5.1 Singlet>     0.416634596934
 !MCSCF expec      <6.1 Singlet|LYLY|6.1 Singlet>     0.999999976665
 !MCSCF expec      <7.1 Singlet|LYLY|7.1 Singlet>    -0.000000000000
 !MCSCF expec      <1.1 Triplet|LYLY|1.1 Triplet>     0.079711795686
 !MCSCF expec      <2.1 Triplet|LYLY|2.1 Triplet>     0.999999829636
 !MCSCF expec      <3.1 Triplet|LYLY|3.1 Triplet>     1.000000131097
 !MCSCF expec      <4.1 Triplet|LYLY|4.1 Triplet>     3.920288646948
 !MCSCF expec      <5.1 Triplet|LYLY|5.1 Triplet>     3.999999612352
 !MCSCF expec      <6.1 Triplet|LYLY|6.1 Triplet>    -0.000000000000
 !MCSCF expec      <7.1 Triplet|LYLY|7.1 Triplet>     0.000000030326
 !MCSCF expec      <8.1 Triplet|LYLY|8.1 Triplet>     0.999999999623
 !MCSCF expec      <9.1 Triplet|LYLY|9.1 Triplet>     0.999999970052
 !MCSCF expec    <10.1 Triplet|LYLY|10.1 Triplet>     3.999999906592
 !MCSCF expec    <11.1 Triplet|LYLY|11.1 Triplet>     2.229531266004
 !MCSCF expec    <12.1 Triplet|LYLY|12.1 Triplet>     3.952882433986
 !MCSCF expec    <13.1 Triplet|LYLY|13.1 Triplet>     1.171259200480
 !MCSCF expec    <14.1 Triplet|LYLY|14.1 Triplet>     0.047118796973
 !MCSCF expec    <15.1 Triplet|LYLY|15.1 Triplet>     8.828738182682
 !MCSCF expec    <16.1 Triplet|LYLY|16.1 Triplet>     7.770467264935
 !MCSCF expec    <17.1 Triplet|LYLY|17.1 Triplet>     1.000000001765
 !MCSCF expec    <18.1 Triplet|LYLY|18.1 Triplet>     1.000000016815
 !MCSCF expec    <19.1 Triplet|LYLY|19.1 Triplet>     3.999999994268
 !MCSCF expec    <20.1 Triplet|LYLY|20.1 Triplet>     2.515328580270
 !MCSCF expec    <21.1 Triplet|LYLY|21.1 Triplet>     1.484671406109
 !MCSCF expec    <22.1 Triplet|LYLY|22.1 Triplet>     0.000000570742
 !MCSCF expec    <23.1 Triplet|LYLY|23.1 Triplet>     0.999999431954
 !MCSCF expec    <24.1 Triplet|LYLY|24.1 Triplet>     0.999999997428
 
 !MCSCF expec      <1.1 Singlet|LZLZ|1.1 Singlet>    -0.000000000000
 !MCSCF expec      <2.1 Singlet|LZLZ|2.1 Singlet>     2.266483566569
 !MCSCF expec      <3.1 Singlet|LZLZ|3.1 Singlet>     1.000000011363
 !MCSCF expec      <4.1 Singlet|LZLZ|4.1 Singlet>     3.999997689240
 !MCSCF expec      <5.1 Singlet|LZLZ|5.1 Singlet>     1.733519508355
 !MCSCF expec      <6.1 Singlet|LZLZ|6.1 Singlet>     1.000000347966
 !MCSCF expec      <7.1 Singlet|LZLZ|7.1 Singlet>    -0.000000000000
 !MCSCF expec      <1.1 Triplet|LZLZ|1.1 Triplet>     2.476026788545
 !MCSCF expec      <2.1 Triplet|LZLZ|2.1 Triplet>     1.000003551638
 !MCSCF expec      <3.1 Triplet|LZLZ|3.1 Triplet>     3.999996665438
 !MCSCF expec      <4.1 Triplet|LZLZ|4.1 Triplet>     1.523970812364
 !MCSCF expec      <5.1 Triplet|LZLZ|5.1 Triplet>     1.000002142704
 !MCSCF expec      <6.1 Triplet|LZLZ|6.1 Triplet>    -0.000000000000
 !MCSCF expec      <7.1 Triplet|LZLZ|7.1 Triplet>     0.999999999621
 !MCSCF expec      <8.1 Triplet|LZLZ|8.1 Triplet>     0.000000004616
 !MCSCF expec      <9.1 Triplet|LZLZ|9.1 Triplet>     0.999999995747
 !MCSCF expec    <10.1 Triplet|LZLZ|10.1 Triplet>     4.000000055880
 !MCSCF expec    <11.1 Triplet|LZLZ|11.1 Triplet>     6.027358662333
 !MCSCF expec    <12.1 Triplet|LZLZ|12.1 Triplet>     4.859282337937
 !MCSCF expec    <13.1 Triplet|LZLZ|13.1 Triplet>     1.918025172740
 !MCSCF expec    <14.1 Triplet|LZLZ|14.1 Triplet>     5.140723051050
 !MCSCF expec    <15.1 Triplet|LZLZ|15.1 Triplet>     2.081977797654
 !MCSCF expec    <16.1 Triplet|LZLZ|16.1 Triplet>     3.972642509281
 !MCSCF expec    <17.1 Triplet|LZLZ|17.1 Triplet>     3.999999984709
 !MCSCF expec    <18.1 Triplet|LZLZ|18.1 Triplet>     1.000000005858
 !MCSCF expec    <19.1 Triplet|LZLZ|19.1 Triplet>     0.999999998416
 !MCSCF expec    <20.1 Triplet|LZLZ|20.1 Triplet>     0.068768468479
 !MCSCF expec    <21.1 Triplet|LZLZ|21.1 Triplet>     3.931231542752
 !MCSCF expec    <22.1 Triplet|LZLZ|22.1 Triplet>     0.999999997436
 !MCSCF expec    <23.1 Triplet|LZLZ|23.1 Triplet>     0.999999984587
 !MCSCF expec    <24.1 Triplet|LZLZ|24.1 Triplet>     0.000000017976
 
 !MCSCF expec      <1.1 Singlet|L**2|1.1 Singlet>    -0.000000000000
 !MCSCF expec      <2.1 Singlet|L**2|2.1 Singlet>     6.000000000000
 !MCSCF expec      <3.1 Singlet|L**2|3.1 Singlet>     6.000000000000
 !MCSCF expec      <4.1 Singlet|L**2|4.1 Singlet>     6.000000000000
 !MCSCF expec      <5.1 Singlet|L**2|5.1 Singlet>     6.000000000000
 !MCSCF expec      <6.1 Singlet|L**2|6.1 Singlet>     6.000000000000
 !MCSCF expec      <7.1 Singlet|L**2|7.1 Singlet>    -0.000000000000
 !MCSCF expec      <1.1 Triplet|L**2|1.1 Triplet>     6.000000000000
 !MCSCF expec      <2.1 Triplet|L**2|2.1 Triplet>     6.000000000000
 !MCSCF expec      <3.1 Triplet|L**2|3.1 Triplet>     6.000000000000
 !MCSCF expec      <4.1 Triplet|L**2|4.1 Triplet>     6.000000000000
 !MCSCF expec      <5.1 Triplet|L**2|5.1 Triplet>     6.000000000000
 !MCSCF expec      <6.1 Triplet|L**2|6.1 Triplet>    -0.000000000000
 !MCSCF expec      <7.1 Triplet|L**2|7.1 Triplet>     2.000000000000
 !MCSCF expec      <8.1 Triplet|L**2|8.1 Triplet>     2.000000000000
 !MCSCF expec      <9.1 Triplet|L**2|9.1 Triplet>     2.000000000000
 !MCSCF expec    <10.1 Triplet|L**2|10.1 Triplet>    12.000000000000
 !MCSCF expec    <11.1 Triplet|L**2|11.1 Triplet>    12.000000000000
 !MCSCF expec    <12.1 Triplet|L**2|12.1 Triplet>    12.000000000000
 !MCSCF expec    <13.1 Triplet|L**2|13.1 Triplet>    12.000000000000
 !MCSCF expec    <14.1 Triplet|L**2|14.1 Triplet>    12.000000000000
 !MCSCF expec    <15.1 Triplet|L**2|15.1 Triplet>    12.000000000000
 !MCSCF expec    <16.1 Triplet|L**2|16.1 Triplet>    12.000000000000
 !MCSCF expec    <17.1 Triplet|L**2|17.1 Triplet>     6.000000000000
 !MCSCF expec    <18.1 Triplet|L**2|18.1 Triplet>     6.000000000000
 !MCSCF expec    <19.1 Triplet|L**2|19.1 Triplet>     6.000000000000
 !MCSCF expec    <20.1 Triplet|L**2|20.1 Triplet>     6.000000000000
 !MCSCF expec    <21.1 Triplet|L**2|21.1 Triplet>     6.000000000000
 !MCSCF expec    <22.1 Triplet|L**2|22.1 Triplet>     2.000000000000
 !MCSCF expec    <23.1 Triplet|L**2|23.1 Triplet>     2.000000000000
 !MCSCF expec    <24.1 Triplet|L**2|24.1 Triplet>     2.000000000000
 
 EXTRA SYMMETRY OF MOS IN SYMMETRY 1:   1 1 1 2 4 6 3 5 1 4   2 6 3 5 1 2 4 6 3 5   1 1 3 5 2 6 4 1 2 3   5 6 4 1 3 2 6 4 5 1
                                       12 811 91514 71310 3   2 4 6 5 1 711101312   91514 8 4 6 2 3 5 1  12 8 71110131415 9 6
                                        4 2 3 5 6 4 2 5 3 1   4 6 3 5 2 1
 EXTRA SYMMETRY OF MOS IN SYMMETRY 2:   3 1 2 3 1 2 3 1 2 6   4 810 5 9 7 1 3 2 3   1 2 1 2 3 3 1 2 1 3   210 8 6 5 4 9 7 1 2
                                        3 9 7 810 5 4 6 1 2   3 6 5 4 9 710 8 1 2   3 5 4 9 710 6 8 1 2   3 5 4 6 9 710 8 5 4
                                        6 9 710 8 1 2 3
 
  NATURAL ORBITALS (STATE AVERAGED)
  =================================

  Orbital  Occupation    Energy    Cen Mu Typ  Coefficients
    1.1     2.00000 -3845.21813     1  1  s    1.00000
    2.1     2.00000  -712.76722     1  2  s    0.99997
    3.1     2.00000  -179.77697     1  3  s    1.00000
    4.1     2.00000  -118.11408     1  1  d0   1.00000
    5.1     2.00000  -118.11408     1  1  d1+  1.00000
    6.1     2.00000  -118.11408     1  1  d1-  1.00000
    7.1     2.00000  -118.11408     1  1  d2-  1.00000
    8.1     2.00000  -118.11408     1  1  d2+  1.00000
    9.1     2.00000   -45.72988     1  4  s    0.99897
   10.1     2.00000   -23.68516     1  2  d1+  0.99997
   11.1     2.00000   -23.68516     1  2  d0   0.99997
   12.1     2.00000   -23.68516     1  2  d1-  0.99997
   13.1     2.00000   -23.68516     1  2  d2-  0.99997
   14.1     2.00000   -23.68516     1  2  d2+  0.99997
   15.1     2.00000   -10.02455     1  5  s    0.99865
   16.1     2.00000    -3.00464     1  3  d0   1.00080
   17.1     2.00000    -3.00464     1  3  d1+  1.00080
   18.1     2.00000    -3.00464     1  3  d1-  1.00080
   19.1     2.00000    -3.00464     1  3  d2-  1.00080
   20.1     2.00000    -3.00464     1  3  d2+  1.00080
   21.1     2.00000    -1.63091     1  6  s    1.06363
   22.1     0.41774    -0.05532     1  6  s   -0.37405    1  7  s    0.57296    1  8  s   -0.30997
   23.1     0.22477     0.04206     1  4  d2-  1.02350
   24.1     0.22477     0.04206     1  4  d2+  1.02350
   25.1     0.22477     0.04206     1  4  d0   1.02350
   26.1     0.22477     0.04206     1  4  d1-  1.02350
   27.1     0.22477     0.04206     1  4  d1+  1.02350
   28.1     0.22447     0.01666     1  6  s   -0.54392    1  8  s   -0.70861    1  9  s   -0.45041    1 13  s   -0.28224
                                    1 14  s    1.46950
    1.2     2.00000  -604.14156     1  1  pz   1.00000
    2.2     2.00000  -604.14156     1  1  px   1.00000
    3.2     2.00000  -604.14156     1  1  py   1.00000
    4.2     2.00000  -148.72995     1  2  pz   1.00000
    5.2     2.00000  -148.72995     1  2  px   1.00000
    6.2     2.00000  -148.72995     1  2  py   1.00000
    7.2     2.00000   -35.36823     1  3  pz   1.00007
    8.2     2.00000   -35.36823     1  3  px   1.00007
    9.2     2.00000   -35.36823     1  3  py   1.00007
   10.2     2.00000   -11.21208     1  1  f0   1.00000
   11.2     2.00000   -11.21208     1  1  f1+  1.00000
   12.2     2.00000   -11.21208     1  1  f2-  1.00000
   13.2     2.00000   -11.21208     1  1  f2+  1.00000
   14.2     2.00000   -11.21208     1  1  f1-  1.00000
   15.2     2.00000   -11.21208     1  1  f3-  1.00000
   16.2     2.00000   -11.21208     1  1  f3+  1.00000
   17.2     2.00000    -6.81590     1  4  px   0.99937
   18.2     2.00000    -6.81590     1  4  pz   0.99937
   19.2     2.00000    -6.81590     1  4  py   0.99937
   20.2     2.00000    -0.81990     1  5  pz   0.99091
   21.2     2.00000    -0.81990     1  5  px   0.99091
   22.2     2.00000    -0.81990     1  5  py   0.99091
   23.2     0.07798     0.02967     1  6  px   1.20605
   24.2     0.07798     0.02967     1  6  py  -1.20605
   25.2     0.07798     0.02967     1  6  pz   1.20605
 
 Natural orbital dump (state averaged) at molpro section 2140.2 (Orbital set 2)
 
 Transform the CI vectors
 
 CI Coefficients of symmetry 1 (Singlet)
 =======================================
 
 2000000 000      0.96682411     -0.00000000     -0.00000000     -0.00000000      0.00000000      0.00000000      0.01466006
 b00000a 000      0.00093196     -0.00000000     -0.00000000     -0.00000000      0.00000000      0.00000000     -0.67336312
 a00000b 000     -0.00093196      0.00000000      0.00000000      0.00000000     -0.00000000     -0.00000000      0.67336312
 b0000a0 000     -0.00000000      0.00009249     -0.64600891     -0.00000440     -0.00001733      0.00006190     -0.00000000
 a0000b0 000      0.00000000     -0.00009249      0.64600891      0.00000440      0.00001733     -0.00006190      0.00000000
 a000b00 000      0.00000000      0.00000717      0.00006191      0.00019948     -0.00020596      0.64600885     -0.00000000
 b000a00 000     -0.00000000     -0.00000717     -0.00006191     -0.00019948      0.00020596     -0.64600885      0.00000000
 ba00000 000      0.00000000     -0.00000158      0.00000443     -0.64600860     -0.00061196      0.00019929      0.00000000
 ab00000 000     -0.00000000      0.00000158     -0.00000443      0.64600860      0.00061196     -0.00019929     -0.00000000
 a0b0000 000     -0.00000000      0.48627820      0.00005822     -0.00040401      0.42527738      0.00013031      0.00000000
 b0a0000 000      0.00000000     -0.48627820     -0.00005822      0.00040401     -0.42527738     -0.00013031     -0.00000000
 b00a000 000      0.00000000      0.42527758      0.00007391      0.00045955     -0.48627796     -0.00015990     -0.00000000
 a00b000 000     -0.00000000     -0.42527758     -0.00007391     -0.00045955      0.48627796      0.00015990      0.00000000
 0000000 200     -0.13071393      0.26542482      0.00003660     -0.00005030      0.05241840      0.00001378      0.09263774
 0000000 020     -0.13071392     -0.08731672     -0.00000564      0.00024276     -0.25607371     -0.00008075      0.09263774
 0000000 a0b      0.00000000     -0.00003354      0.23430433      0.00000160      0.00000629     -0.00002245     -0.00000000
 0000000 b0a     -0.00000000      0.00003354     -0.23430433     -0.00000160     -0.00000629      0.00002245      0.00000000
 0000000 0ab     -0.00000000     -0.00000260     -0.00002245     -0.00007235      0.00007470     -0.23430430      0.00000000
 0000000 0ba      0.00000000      0.00000260      0.00002245      0.00007235     -0.00007470      0.23430430     -0.00000000
 0000000 ba0     -0.00000000      0.00000057     -0.00000161      0.23430421      0.00022195     -0.00007228      0.00000000
 0000000 ab0      0.00000000     -0.00000057      0.00000161     -0.23430421     -0.00022195      0.00007228     -0.00000000
 0000000 002     -0.13071393     -0.17810810     -0.00003096     -0.00019246      0.20365532      0.00006697      0.09263774
 0000002 000     -0.01412524      0.00000000      0.00000000      0.00000000     -0.00000000     -0.00000000      0.14261713
 0b0a000 000      0.00000000      0.00000030     -0.00000085      0.12355882      0.00011705     -0.00003812     -0.00000000
 0a0b000 000     -0.00000000     -0.00000030      0.00000085     -0.12355882     -0.00011705      0.00003812      0.00000000
 0000200 000     -0.05251951     -0.12121764     -0.00001671      0.00002297     -0.02393912     -0.00000629     -0.09681364
 0000020 000     -0.05251951      0.03987693      0.00000258     -0.00011087      0.11694706      0.00003688     -0.09681364
 00a00b0 000      0.00000000     -0.00001532      0.10700513      0.00000073      0.00000287     -0.00001025      0.00000000
 00b00a0 000     -0.00000000      0.00001532     -0.10700513     -0.00000073     -0.00000287      0.00001025     -0.00000000
 0b00a00 000      0.00000000      0.00001532     -0.10700513     -0.00000073     -0.00000287      0.00001025      0.00000000
 0a00b00 000     -0.00000000     -0.00001532      0.10700513      0.00000073      0.00000287     -0.00001025     -0.00000000
 0a000b0 000      0.00000000      0.00000119      0.00001025      0.00003304     -0.00003412      0.10700512      0.00000000
 0b000a0 000     -0.00000000     -0.00000119     -0.00001025     -0.00003304      0.00003412     -0.10700512     -0.00000000
 00b0a00 000      0.00000000      0.00000119      0.00001025      0.00003304     -0.00003412      0.10700512     -0.00000000
 00a0b00 000     -0.00000000     -0.00000119     -0.00001025     -0.00003304      0.00003412     -0.10700512      0.00000000
 0000ba0 000     -0.00000000     -0.00000026      0.00000073     -0.10700508     -0.00010136      0.00003301      0.00000000
 0000ab0 000      0.00000000      0.00000026     -0.00000073      0.10700508      0.00010136     -0.00003301     -0.00000000
 0200000 000     -0.05251951      0.08134071      0.00001414      0.00008790     -0.09300795     -0.00003058     -0.09681364
 0002000 000     -0.05251951     -0.08134071     -0.00001414     -0.00008790      0.09300794      0.00003058     -0.09681364
 0020000 000     -0.05251951      0.08134071      0.00001414      0.00008790     -0.09300795     -0.00003058     -0.09681364
 00ba000 000      0.00000000      0.09300799      0.00001114     -0.00007727      0.08134067      0.00002492      0.00000000
 00ab000 000     -0.00000000     -0.09300799     -0.00001114      0.00007727     -0.08134067     -0.00002492     -0.00000000
 000a0b0 000     -0.00000000     -0.00000884      0.06177944      0.00000042      0.00000166     -0.00000592      0.00000000
 000b0a0 000      0.00000000      0.00000884     -0.06177944     -0.00000042     -0.00000166      0.00000592     -0.00000000
 000ab00 000      0.00000000      0.00000069      0.00000592      0.00001908     -0.00001970      0.06177944      0.00000000
 000ba00 000     -0.00000000     -0.00000069     -0.00000592     -0.00001908      0.00001970     -0.06177944     -0.00000000
 
 Energy:     -24984.79219547 -24984.71122787 -24984.71122787 -24984.71122787 -24984.71122787 -24984.71122787 -24984.67196686
 
 
 CI Coefficients of symmetry 1 (Triplet)
 =======================================

 State:                1               2               3               4               5               6               7
 a00000a 000     -0.00000000      0.00000000     -0.00000000     -0.00000000      0.00000000      1.00000000     -0.00000000
 00aa000 000      0.00000000      0.00000000      0.00000000      0.00000000     -0.00000000     -0.00000000      0.00000000
 00000aa 000      0.00000014     -0.00000011      0.00000007     -0.00000522     -0.00282893      0.00000000      0.00000000
 0a0000a 000      0.00000021     -0.00000291     -0.00282893      0.00000057     -0.00000007     -0.00000000     -0.00000000
 0000a0a 000      0.00000117     -0.00282893      0.00000291     -0.00000020      0.00000011      0.00000000      0.00000000
 aa00000 000     -0.00007360      0.00102991      0.99999545     -0.00020077      0.00002452     -0.00000000     -0.00000000
 a000a00 000     -0.00041252      0.99999538     -0.00102992      0.00007244     -0.00003734     -0.00000000     -0.00000000
 a0000a0 000     -0.00004831      0.00003717     -0.00002419      0.00184679      0.99999429      0.00000000      0.00000000
 00a000a 000     -0.00222572     -0.00000104      0.00000019      0.00174615     -0.00000333      0.00000000      0.00000000
 000a00a 000     -0.00174615     -0.00000056     -0.00000057     -0.00222571      0.00000403     -0.00000000     -0.00000000
 00a0a00 000     -0.00000000      0.00000000     -0.00000000      0.00000000     -0.00000000      0.00000000      0.00005413
 0a00a00 000      0.00000000     -0.00000000     -0.00000000     -0.00000000     -0.00000000     -0.00000000     -0.31280787
 00a00a0 000     -0.00000000      0.00000000     -0.00000000      0.00000000      0.00000000     -0.00000000     -0.31280789
 0a000a0 000      0.00000000     -0.00000000      0.00000000     -0.00000000     -0.00000000     -0.00000000     -0.00005413
 a0a0000 000      0.78676661      0.00036925     -0.00006643     -0.61724288      0.00117792     -0.00000000     -0.00000000
 a00a000 000      0.61724397      0.00019779      0.00020323      0.78676538     -0.00142318      0.00000000      0.00000000
 0a0a000 000     -0.00000000      0.00000000      0.00000000     -0.00000000      0.00000000     -0.00000000      0.00000000
 0000000 a0a      0.00000000     -0.00000000      0.00000000     -0.00000000     -0.00000000     -0.00000000      0.71467205
 0000000 aa0     -0.00000000      0.00000000      0.00000000     -0.00000000      0.00000000     -0.00000000      0.00001391
 0000000 0aa      0.00000000     -0.00000000      0.00000000     -0.00000000      0.00000000      0.00000000     -0.00012368
 0000aa0 000     -0.00000000      0.00000000      0.00000000     -0.00000000      0.00000000      0.00000000     -0.00000609
 0aa0000 000      0.00000000     -0.00000000     -0.00000000      0.00000000     -0.00000000      0.00000000     -0.00001217
 000a0a0 000     -0.00000000     -0.00000000      0.00000000     -0.00000000     -0.00000000      0.00000000      0.54179913
 000aa00 000      0.00000000     -0.00000000      0.00000000     -0.00000000      0.00000000      0.00000000      0.00009376
 
 Energy:     -24984.72168507 -24984.72168507 -24984.72168507 -24984.72168507 -24984.72168507 -24984.67742772 -24984.65258044

 State:                8               9              10              11              12              13              14
 a00000a 000      0.00000000      0.00000000      0.00000000      0.00000000     -0.00000000      0.00000000     -0.00000000
 00aa000 000      0.00000000      0.00000000      0.99999996      0.00021668     -0.00012048      0.00009018     -0.00002637
 00000aa 000      0.00000000      0.00000000      0.00000000      0.00000000      0.00000000     -0.00000000      0.00000000
 0a0000a 000      0.00000000     -0.00000000      0.00000000     -0.00000000     -0.00000000     -0.00000000      0.00000000
 0000a0a 000     -0.00000000     -0.00000000      0.00000000     -0.00000000      0.00000000     -0.00000000     -0.00000000
 aa00000 000     -0.00000000      0.00000000      0.00000000     -0.00000000      0.00000000      0.00000000      0.00000000
 a000a00 000      0.00000000      0.00000000      0.00000000     -0.00000000      0.00000000     -0.00000000     -0.00000000
 a0000a0 000      0.00000000      0.00000000     -0.00000000     -0.00000000     -0.00000000      0.00000000      0.00000000
 00a000a 000      0.00000000     -0.00000000     -0.00000000     -0.00000000      0.00000000     -0.00000000      0.00000000
 000a00a 000     -0.00000000     -0.00000000     -0.00000000     -0.00000000      0.00000000     -0.00000000      0.00000000
 00a0a00 000     -0.00002037     -0.31280792     -0.00019389      0.89442149     -0.00030242      0.00014199      0.00010436
 0a00a00 000      0.00000608     -0.00005413      0.00001178     -0.00013734     -0.09707447     -0.00015851      0.88914358
 00a00a0 000      0.00000608     -0.00005413      0.00010321      0.00031454      0.88517825     -0.00010440     -0.12829395
 0a000a0 000      0.00002037      0.31280785     -0.00003896      0.22666702     -0.00010884     -0.00014593      0.00026011
 a0a0000 000     -0.00000000     -0.00000000     -0.00000000     -0.00000000      0.00000000     -0.00000000      0.00000000
 a00a000 000     -0.00000000     -0.00000000     -0.00000000     -0.00000000      0.00000000     -0.00000000      0.00000000
 0a0a000 000     -0.00000001      0.00000000     -0.00008504      0.00002141      0.00006709      0.69246390     -0.00016787
 0000000 a0a     -0.00001390      0.00012368      0.00000000      0.00000000      0.00000001     -0.00000000      0.00000000
 0000000 aa0      0.71467205     -0.00004653     -0.00000000     -0.00000000      0.00000000      0.00000001      0.00000000
 0000000 0aa      0.00004653      0.71467203     -0.00000000      0.00000003     -0.00000000     -0.00000000      0.00000000
 0000aa0 000     -0.31280787      0.00002037      0.00003872      0.00021426     -0.00012360     -0.64528668     -0.00038496
 0aa0000 000     -0.62561577      0.00004073     -0.00001936     -0.00010713      0.00006180      0.32264333      0.00019248
 000a0a0 000     -0.00001054      0.00009376      0.00006639      0.00010231      0.45501194     -0.00015179      0.43927674
 000aa00 000     -0.00003528     -0.54179914      0.00008945     -0.38552825      0.00011176     -0.00016623      0.00008992
 
 Energy:     -24984.65258044 -24984.65258044 -24984.64817806 -24984.64817806 -24984.64817806 -24984.64817806 -24984.64817806

 State:               15              16              17              18              19              20              21
 a00000a 000      0.00000000     -0.00000000      0.00000000     -0.00000000      0.00000000      0.00000000     -0.00000000
 00aa000 000      0.00003132     -0.00001174     -0.00000000     -0.00000000     -0.00000000      0.00000000      0.00000000
 00000aa 000      0.00000000     -0.00000000     -0.00000544      0.00004169      0.99999600     -0.00004663      0.00002201
 0a0000a 000     -0.00000000      0.00000000      0.99999600     -0.00006723      0.00000544     -0.00001849      0.00001474
 0000a0a 000      0.00000000      0.00000000      0.00006723      0.99999599     -0.00004169      0.00009442      0.00000527
 aa00000 000     -0.00000000      0.00000000      0.00282893     -0.00000019      0.00000002     -0.00000005      0.00000004
 a000a00 000      0.00000000      0.00000000      0.00000019      0.00282893     -0.00000012      0.00000027      0.00000001
 a0000a0 000      0.00000000     -0.00000000     -0.00000002      0.00000012      0.00282893     -0.00000013      0.00000006
 00a000a 000     -0.00000000      0.00000000     -0.00001219     -0.00001760     -0.00001571      0.13111818      0.99136271
 000a00a 000     -0.00000000      0.00000000      0.00002026     -0.00009292      0.00004912      0.99136270     -0.13111818
 00a0a00 000     -0.00016295     -0.00316202      0.00000000     -0.00000000      0.00000000      0.00000000      0.00000000
 0a00a00 000      0.00036806     -0.00024363      0.00000000     -0.00000000     -0.00000002      0.00000000     -0.00000000
 00a00a0 000     -0.00001195      0.00006751      0.00000000     -0.00000000     -0.00000002      0.00000000     -0.00000000
 0a000a0 000      0.00017454      0.86522942      0.00000000      0.00000000     -0.00000000     -0.00000000     -0.00000000
 a0a0000 000     -0.00000000      0.00000000     -0.00000003     -0.00000005     -0.00000004      0.00037093      0.00280451
 a00a000 000     -0.00000000      0.00000000      0.00000006     -0.00000026      0.00000014      0.00280451     -0.00037093
 0a0a000 000      0.72145250     -0.00003429      0.00000000     -0.00000000      0.00000000      0.00000000     -0.00000000
 0000000 a0a      0.00000000     -0.00000000      0.00000000     -0.00000000     -0.00000005      0.00000000     -0.00000000
 0000000 aa0      0.00000000      0.00000000      0.00000005     -0.00000000     -0.00000000     -0.00000000     -0.00000000
 0000000 0aa     -0.00000000      0.00000002     -0.00000000     -0.00000000      0.00000000      0.00000000      0.00000000
 0000aa0 000      0.61935839     -0.00028980      0.00000002     -0.00000000     -0.00000000     -0.00000000     -0.00000000
 0aa0000 000     -0.30967919      0.00014490      0.00000005     -0.00000000     -0.00000000     -0.00000000     -0.00000000
 000a0a0 000      0.00020560     -0.00010169     -0.00000000      0.00000000      0.00000004     -0.00000000      0.00000000
 000aa00 000      0.00019485      0.50136601     -0.00000000     -0.00000001      0.00000000      0.00000000      0.00000000
 
 Energy:     -24984.64817806 -24984.64817806 -24984.60876476 -24984.60876476 -24984.60876476 -24984.60876476 -24984.60876476

 State:               22              23              24
 a00000a 000      0.00000000     -0.00000000     -0.00000000
 00aa000 000      0.00000000      0.00000000      0.00000000
 00000aa 000      0.00000007      0.00000000      0.00000000
 0a0000a 000     -0.00000000     -0.00000000     -0.00000007
 0000a0a 000     -0.00000000      0.00000000     -0.00000000
 aa00000 000      0.00000000      0.00000000      0.00000000
 a000a00 000     -0.00000000      0.00000000     -0.00000000
 a0000a0 000     -0.00000000     -0.00000000      0.00000000
 00a000a 000      0.00000000     -0.00000000      0.00000000
 000a00a 000     -0.00000000     -0.00000000     -0.00000000
 00a0a00 000     -0.00024092      0.31961096     -0.00003967
 0a00a00 000      0.31961097      0.00024091     -0.00001621
 00a00a0 000      0.31961097      0.00024091     -0.00001621
 0a000a0 000      0.00024092     -0.31961096      0.00003967
 a0a0000 000      0.00000000      0.00000000      0.00000000
 a00a000 000     -0.00000000      0.00000000     -0.00000000
 0a0a000 000      0.00000000      0.00000000     -0.00000000
 0000000 a0a      0.69945949      0.00052723     -0.00003548
 0000000 aa0      0.00003542      0.00008684      0.69945969
 0000000 0aa     -0.00052724      0.69945949     -0.00008681
 0000aa0 000      0.00001618      0.00003968      0.31961105
 0aa0000 000      0.00003237      0.00007936      0.63922211
 000a0a0 000     -0.55358244     -0.00041727      0.00002808
 000aa00 000     -0.00041728      0.55358243     -0.00006871
 
 Energy:     -24984.60675156 -24984.60675156 -24984.60675156
 


 **********************************************************************************************************************************
 DATASETS  * FILE   NREC   LENGTH (MB)   RECORD NAMES
              1      24      309.64       500      610      700      900      950      970     1000      129      960     1700   
                                          VAR    BASINP    GEOM    SYMINP    ZMAT    AOBASIS   BASIS     P2S    ABASIS    OPER   
                                         1101     1401     1411     1412     1650     1100     1400     1410     1200     1210   
                                          SR      EKINR    POTR     PVPR    MOLCAS      S      EKIN      POT      H0       H01  
                                         1080     1600     1380     1700(1)
                                         AOSYM     SMH     JKOP     OPER   

              2       5        1.45       700     1000      520     2100     2140   
                                         GEOM     BASIS   MCVARS     RHF     MCSCF   

 PROGRAMS   *        TOTAL     MULTI   RHF-SCF       INT
 CPU TIMES  *        67.39     19.71      3.42     44.08
 REAL TIME  *        78.34 SEC
 DISK USED  *       311.22 MB (local),        2.10 GB (total)
 SF USED    *       666.84 MB
 GA USED    *         0.00 MB       (max)       0.00 MB       (current)
 **********************************************************************************************************************************

 Energies and &lt;L**2&gt; values

          ENERGY     LL
    -24984.79220   -0.0
    -24984.71123    6.0
    -24984.71123    6.0
    -24984.71123    6.0
    -24984.71123    6.0
    -24984.71123    6.0
    -24984.67197   -0.0
    -24984.72169    6.0
    -24984.72169    6.0
    -24984.72169    6.0
    -24984.72169    6.0
    -24984.72169    6.0
    -24984.67743   -0.0
    -24984.65258    2.0
    -24984.65258    2.0
    -24984.65258    2.0
    -24984.64818   12.0
    -24984.64818   12.0
    -24984.64818   12.0
    -24984.64818   12.0
    -24984.64818   12.0
    -24984.64818   12.0
    -24984.64818   12.0
    -24984.60876    6.0
    -24984.60876    6.0
    -24984.60876    6.0
    -24984.60876    6.0
    -24984.60876    6.0
    -24984.60675    2.0
    -24984.60675    2.0
    -24984.60675    2.0
                                                  


 PROGRAM * CI (Multireference internally contracted CI)     Authors: H.-J. Werner, P.J. Knowles, 1987


 Convergence thresholds:  THRVAR = 1.00D-08  THRDEN = 1.00D-06

 Number of optimized states: 7  Roots:    1   2   3   4   5   6   7
 Number of reference states: 7  Roots:    1   2   3   4   5   6   7

 Reference symmetry:                   1   Singlet 
 Number of electrons:                 88
 Maximum number of shells:             5
 Maximum number of spin couplings:    14

 Reference space:       34 conf       34 CSFs
 N elec internal:    29620 conf    75790 CSFs
 N-1 el internal:     9955 conf    31960 CSFs
 N-2 el internal:     1621 conf     5743 CSFs

 Number of electrons in valence space:                     20
 Maximum number of open shell orbitals in reference space:  2
 Maximum number of open shell orbitals in internal spaces:  8


 Number of core orbitals:          34 (  15  19 )
 Number of closed-shell orbitals:   9 (   6   3 )
 Number of active  orbitals:       10 (   7   3 )
 Number of external orbitals:     131 (  68  63 )

 Molecular orbitals read from record     2140.2  Type=MCSCF/NATURAL (state averaged)

 Integral transformation finished. Total CPU:   0.49 sec, npass=  1  Memory used:   3.67 MW


 Number of p-space configurations:  34

 Reference wavefunction optimized for reference space (refopt=1)

 State     Reference Energy 
     1    -24984.79219547
     2    -24984.71122787
     3    -24984.71122787
     4    -24984.71122787
     5    -24984.71122787
     6    -24984.71122787
     7    -24984.67196686

 Number of blocks in overlap matrix:   694   Smallest eigenvalue:  0.72D+00
 Number of N-2 electron functions:     748
[...]
 58  1     3    1  |1 1>-         0.00%    0.00%    0.00%    0.00%    0.00%    0.00%    0.00%    0.00%
 59  1     4    1  |1 1>-         0.00%    0.00%    0.00%    0.00%    0.00%    0.00%    0.00%    0.00%
 60  1     5    1  |1 1>-         0.00%    0.00%    0.00%    0.00%    0.00%    0.00%    0.00%    0.00%
 61  1     6    1  |1 1>-         0.00%    0.00%    0.01%    0.00%    0.00%    0.00%    0.00%    0.00%
 62  1     7    1  |1 1>-         0.00%    0.00%    0.00%    0.00%    0.00%    0.00%    0.00%    0.00%
 63  1     8    1  |1 1>-         0.00%    0.00%    0.00%    0.00%    0.00%    0.00%    0.00%    0.00%
 64  1     9    1  |1 1>-         0.00%    0.00%    0.00%    0.00%    0.00%    0.00%    0.00%    0.00%
 65  1    10    1  |1 1>-         0.00%    0.00%    0.00%    0.00%    0.00%    0.00%    0.00%    0.00%
 66  1    11    1  |1 1>-         0.00%    0.00%    0.00%    0.00%    0.00%    0.00%    0.00%    0.00%
 67  1    12    1  |1 1>-         0.00%    0.00%    0.00%    0.00%    0.00%    0.00%    0.00%    0.00%
 68  1    13    1  |1 1>-         0.00%    0.00%    0.00%    0.00%    0.00%    0.00%    0.00%    0.00%
 69  1    14    1  |1 1>-         0.00%    0.38%    0.00%    0.00%    0.00%    0.00%    0.00%    0.00%
 70  1    15    1  |1 1>-         0.38%    0.00%    0.00%    0.00%    0.00%    0.00%    0.00%    0.00%
 71  1    16    1  |1 1>-         0.00%    0.00%    0.00%    0.00%    0.00%    0.00%    0.00%    0.01%
 72  1    17    1  |1 1>-         0.00%   49.61%    0.00%    0.02%    0.00%    0.00%    0.00%    0.00%
 73  1    18    1  |1 1>-        49.60%    0.00%    0.00%    0.00%    0.00%    0.02%    0.00%    0.00%
 74  1    19    1  |1 1>-         0.00%    0.00%    0.00%    0.00%    0.00%    0.00%    0.25%    1.38%
 75  1    20    1  |1 1>-         0.00%    0.01%    0.00%   30.00%    0.00%    0.00%    0.00%    0.00%
 76  1    21    1  |1 1>-         0.00%    0.00%    0.00%    0.00%    0.00%    0.00%   55.01%   10.00%
 77  1    22    1  |1 1>-         0.01%    0.00%    0.00%    0.00%    0.00%   29.99%    0.00%    0.00%
 78  1    23    1  |1 1>-         0.00%    0.00%    0.01%    0.00%   29.85%    0.00%    0.00%    0.00%
 79  1    24    1  |1 1>-         0.00%    0.00%    0.00%    0.00%   10.12%    0.00%    0.00%    0.00%

   Total
 Nr Sym  State Sym Spin / Nr.     65       66       67       68       69       70       71       72

  1  1     1    1  |0 0>          0.00%    0.00%    0.00%    0.00%    0.00%    0.00%    0.00%    0.00%
  2  1     2    1  |0 0>          0.00%    0.00%    0.01%    0.00%    0.00%    0.00%    0.10%    0.00%
  3  1     3    1  |0 0>          0.01%    0.00%    0.00%    0.00%    0.10%    0.00%    0.00%    0.00%
  4  1     4    1  |0 0>          0.00%    0.01%    0.00%    0.00%    0.00%    0.10%    0.00%    0.00%
  5  1     5    1  |0 0>          0.00%    0.00%    0.00%    0.10%    0.00%    0.00%    0.00%    0.00%
  6  1     6    1  |0 0>          0.00%    0.00%    0.00%    0.00%    0.00%    0.00%    0.00%    0.10%
  7  1     7    1  |0 0>          0.00%    0.00%    0.00%    0.00%    0.00%    0.00%    0.00%    0.00%
  8  1     1    1  |1 1>+         0.00%    0.00%    0.00%    0.00%    0.00%    0.00%    0.00%    0.00%
  9  1     2    1  |1 1>+         0.00%    0.00%    0.00%    0.00%    0.00%    0.00%    0.00%    0.00%
 10  1     3    1  |1 1>+         0.00%    0.00%    0.00%    0.00%    0.00%    0.00%    0.00%    0.00%
 11  1     4    1  |1 1>+         0.00%    0.00%    0.00%    0.00%    0.00%    0.00%    0.00%    0.00%
 12  1     5    1  |1 1>+         0.00%    0.00%    0.00%    0.00%    0.00%    0.00%    0.00%    0.00%
 13  1     6    1  |1 1>+         0.00%    0.00%    0.00%    0.00%    0.00%    0.00%    0.00%    0.00%
 14  1     7    1  |1 1>+         0.00%    0.00%    0.00%    0.00%    0.00%    0.00%    0.00%    0.00%
 15  1     8    1  |1 1>+         0.00%    0.00%    0.00%    0.00%    0.00%    0.00%    0.00%    0.00%
 16  1     9    1  |1 1>+         0.00%    0.00%    0.00%    0.00%    0.00%    0.00%    0.00%    0.00%
 17  1    10    1  |1 1>+         0.00%    0.00%    0.00%    0.00%    0.00%    0.00%    0.00%    0.00%
 18  1    11    1  |1 1>+         0.00%    0.00%    0.00%    0.00%    0.00%    0.00%    0.00%    0.00%
 19  1    12    1  |1 1>+         0.00%    0.00%    0.00%    0.00%    0.00%    0.00%    0.00%    0.00%
 20  1    13    1  |1 1>+         0.00%    0.00%    0.00%    0.00%    0.00%    0.00%    0.00%    0.00%
 21  1    14    1  |1 1>+         0.00%    0.00%    0.00%    0.00%    0.00%    0.33%    0.00%    0.00%
 22  1    15    1  |1 1>+         0.00%    0.00%    0.00%    0.11%    0.00%    0.00%    0.00%    0.33%
 23  1    16    1  |1 1>+         0.00%    0.00%    0.00%    0.00%    0.00%    0.00%    0.33%    0.00%
 24  1    17    1  |1 1>+         0.00%    1.23%    0.00%    0.00%    0.00%   48.37%    0.00%    0.00%
 25  1    18    1  |1 1>+         0.00%    0.00%    0.00%   16.05%    0.00%    0.00%    0.00%   48.46%
 26  1    19    1  |1 1>+         0.00%    0.00%    1.23%    0.00%    0.00%    0.00%   48.38%    0.00%
 27  1    20    1  |1 1>+         0.00%   16.26%    0.00%    0.00%    0.00%    0.41%    0.00%    0.00%
 28  1    21    1  |1 1>+         0.00%    0.00%   16.26%    0.00%    0.00%    0.00%    0.41%    0.00%
 29  1    22    1  |1 1>+         0.00%    0.00%    0.00%    1.24%    0.00%    0.00%    0.00%    0.41%
 30  1    23    1  |1 1>+        16.04%    0.00%    0.00%    0.00%    0.41%    0.00%    0.00%    0.00%
 31  1    24    1  |1 1>+        48.96%    0.00%    0.00%    0.00%    1.24%    0.00%    0.00%    0.00%
 32  1     1    1  |1 0>          0.00%    0.00%    0.00%    0.00%    0.00%    0.00%    0.00%    0.00%
 33  1     2    1  |1 0>          0.00%    0.00%    0.00%    0.00%    0.00%    0.00%    0.00%    0.00%
 34  1     3    1  |1 0>          0.00%    0.00%    0.00%    0.00%    0.00%    0.00%    0.00%    0.00%
 35  1     4    1  |1 0>          0.00%    0.00%    0.00%    0.00%    0.00%    0.00%    0.00%    0.00%
 36  1     5    1  |1 0>          0.00%    0.00%    0.00%    0.00%    0.00%    0.00%    0.00%    0.00%
 37  1     6    1  |1 0>          0.00%    0.00%    0.00%    0.00%    0.00%    0.00%    0.00%    0.00%
 38  1     7    1  |1 0>          0.00%    0.00%    0.00%    0.00%    0.00%    0.00%    0.00%    0.00%
 39  1     8    1  |1 0>          0.00%    0.00%    0.00%    0.00%    0.00%    0.00%    0.00%    0.00%
 40  1     9    1  |1 0>          0.00%    0.00%    0.00%    0.00%    0.00%    0.00%    0.00%    0.00%
 41  1    10    1  |1 0>          0.00%    0.00%    0.00%    0.00%    0.00%    0.00%    0.00%    0.00%
 42  1    11    1  |1 0>          0.00%    0.00%    0.00%    0.00%    0.00%    0.00%    0.00%    0.00%
 43  1    12    1  |1 0>          0.00%    0.00%    0.00%    0.00%    0.00%    0.00%    0.00%    0.00%
 44  1    13    1  |1 0>          0.00%    0.00%    0.00%    0.00%    0.00%    0.00%    0.00%    0.00%
 45  1    14    1  |1 0>          0.00%    0.00%    0.00%    0.44%    0.00%    0.00%    0.00%    0.00%
 46  1    15    1  |1 0>          0.00%    0.00%    0.00%    0.00%    0.00%    0.33%    0.00%    0.00%
 47  1    16    1  |1 0>          0.00%    0.00%    0.00%    0.00%    0.33%    0.00%    0.00%    0.00%
 48  1    17    1  |1 0>          0.00%    0.00%    0.00%   64.50%    0.00%    0.00%    0.00%    0.00%
 49  1    18    1  |1 0>          0.00%    1.23%    0.00%    0.00%    0.00%   48.38%    0.00%    0.00%
 50  1    19    1  |1 0>          1.23%    0.00%    0.00%    0.00%   48.38%    0.00%    0.00%    0.00%
 51  1    20    1  |1 0>          0.00%    0.00%    0.00%    0.00%    0.00%    0.00%    0.00%    1.64%
 52  1    21    1  |1 0>         16.26%    0.00%    0.00%    0.00%    0.41%    0.00%    0.00%    0.00%
 53  1    22    1  |1 0>          0.00%   16.26%    0.00%    0.00%    0.00%    0.41%    0.00%    0.00%
 54  1    23    1  |1 0>          0.00%    0.00%   65.01%    0.00%    0.00%    0.00%    1.65%    0.00%
 55  1    24    1  |1 0>          0.00%    0.00%    0.00%    0.00%    0.00%    0.00%    0.00%    0.00%
 56  1     1    1  |1 1>-         0.00%    0.00%    0.00%    0.00%    0.00%    0.00%    0.00%    0.00%
 57  1     2    1  |1 1>-         0.00%    0.00%    0.00%    0.00%    0.00%    0.00%    0.00%    0.00%
 58  1     3    1  |1 1>-         0.00%    0.00%    0.00%    0.00%    0.00%    0.00%    0.00%    0.00%
 59  1     4    1  |1 1>-         0.00%    0.00%    0.00%    0.00%    0.00%    0.00%    0.00%    0.00%
 60  1     5    1  |1 1>-         0.00%    0.00%    0.00%    0.00%    0.00%    0.00%    0.00%    0.00%
 61  1     6    1  |1 1>-         0.00%    0.00%    0.00%    0.00%    0.00%    0.00%    0.00%    0.00%
 62  1     7    1  |1 1>-         0.00%    0.00%    0.00%    0.00%    0.00%    0.00%    0.00%    0.00%
 63  1     8    1  |1 1>-         0.00%    0.00%    0.00%    0.00%    0.00%    0.00%    0.00%    0.00%
 64  1     9    1  |1 1>-         0.00%    0.00%    0.00%    0.00%    0.00%    0.00%    0.00%    0.00%
 65  1    10    1  |1 1>-         0.00%    0.00%    0.00%    0.00%    0.00%    0.00%    0.00%    0.00%
 66  1    11    1  |1 1>-         0.00%    0.00%    0.00%    0.00%    0.00%    0.00%    0.00%    0.00%
 67  1    12    1  |1 1>-         0.00%    0.00%    0.00%    0.00%    0.00%    0.00%    0.00%    0.00%
 68  1    13    1  |1 1>-         0.00%    0.00%    0.00%    0.00%    0.00%    0.00%    0.00%    0.00%
 69  1    14    1  |1 1>-         0.00%    0.00%    0.00%    0.00%    0.33%    0.00%    0.00%    0.00%
 70  1    15    1  |1 1>-         0.00%    0.00%    0.00%    0.00%    0.00%    0.00%    0.33%    0.00%
 71  1    16    1  |1 1>-         0.00%    0.00%    0.00%    0.11%    0.00%    0.00%    0.00%    0.33%
 72  1    17    1  |1 1>-         1.23%    0.00%    0.00%    0.00%   48.37%    0.00%    0.00%    0.00%
 73  1    18    1  |1 1>-         0.00%    0.00%    1.23%    0.00%    0.00%    0.00%   48.38%    0.00%
 74  1    19    1  |1 1>-         0.00%    0.00%    0.00%   16.21%    0.00%    0.00%    0.00%   48.30%
 75  1    20    1  |1 1>-        16.26%    0.00%    0.00%    0.00%    0.41%    0.00%    0.00%    0.00%
 76  1    21    1  |1 1>-         0.00%    0.00%    0.00%    1.24%    0.00%    0.00%    0.00%    0.41%
 77  1    22    1  |1 1>-         0.00%    0.00%   16.26%    0.00%    0.00%    0.00%    0.41%    0.00%
 78  1    23    1  |1 1>-         0.00%   16.46%    0.00%    0.00%    0.00%    0.42%    0.00%    0.00%
 79  1    24    1  |1 1>-         0.00%   48.54%    0.00%    0.00%    0.00%    1.23%    0.00%    0.00%

   Total
 Nr Sym  State Sym Spin / Nr.     73       74       75       76       77       78       79

  1  1     1    1  |0 0>          0.00%    0.00%    0.00%    0.00%    0.00%    0.00%    0.00%
  2  1     2    1  |0 0>          0.00%    0.00%    0.00%    0.00%    0.00%    0.00%    0.00%
  3  1     3    1  |0 0>          0.00%    0.00%    0.00%    0.00%    0.00%    0.00%    0.00%
  4  1     4    1  |0 0>          0.00%    0.00%    0.00%    0.00%    0.00%    0.00%    0.00%
  5  1     5    1  |0 0>          0.00%    0.00%    0.00%    0.00%    0.00%    0.00%    0.00%
  6  1     6    1  |0 0>          0.00%    0.00%    0.00%    0.00%    0.00%    0.00%    0.00%
  7  1     7    1  |0 0>          0.00%    0.00%    0.00%    0.00%    0.00%    0.00%    0.00%
  8  1     1    1  |1 1>+         0.00%    0.00%    0.00%    0.00%    0.00%    0.00%    0.00%
  9  1     2    1  |1 1>+         0.00%    0.00%    0.00%    0.00%    0.00%    0.00%    0.00%
 10  1     3    1  |1 1>+         0.00%    0.00%    0.00%    0.00%    0.00%    0.00%    0.00%
 11  1     4    1  |1 1>+         0.00%    0.00%    0.00%    0.00%    0.00%    0.00%    0.00%
 12  1     5    1  |1 1>+         0.00%    0.00%    0.00%    0.00%    0.00%    0.00%    0.00%
 13  1     6    1  |1 1>+         0.00%    0.00%    0.00%    0.00%    0.00%    0.00%    0.00%
 14  1     7    1  |1 1>+         0.00%    0.00%    0.00%    0.00%    0.00%    0.00%    0.00%
 15  1     8    1  |1 1>+         0.00%    0.00%    0.00%    0.00%    0.00%    0.00%    0.00%
 16  1     9    1  |1 1>+         0.00%    0.00%    0.00%    0.00%    0.00%    0.00%    0.00%
 17  1    10    1  |1 1>+         0.00%    0.00%    0.00%    0.00%    0.00%    0.00%    0.00%
 18  1    11    1  |1 1>+         0.00%    0.00%    0.00%    0.00%    0.00%    0.00%    0.00%
 19  1    12    1  |1 1>+         0.00%    0.00%    0.00%    0.00%    0.00%    0.00%    0.00%
 20  1    13    1  |1 1>+         0.00%    0.00%    0.00%    0.00%    0.00%    0.00%    0.00%
 21  1    14    1  |1 1>+         0.00%    0.00%    0.00%    0.00%    0.00%    0.00%    0.00%
 22  1    15    1  |1 1>+         0.00%    0.00%    0.00%    0.00%    0.00%    0.00%    0.00%
 23  1    16    1  |1 1>+         0.00%    0.00%    0.00%    0.00%    0.00%    0.00%    0.00%
 24  1    17    1  |1 1>+         0.00%    0.00%    0.00%    0.00%    0.00%    0.00%    0.00%
 25  1    18    1  |1 1>+         0.00%    0.00%    0.00%    0.00%    0.00%    0.00%    0.00%
 26  1    19    1  |1 1>+         0.00%    0.00%    0.00%    0.00%    0.00%    0.00%    0.00%
 27  1    20    1  |1 1>+         0.00%    0.00%   43.25%    0.00%    0.00%   10.07%    0.00%
 28  1    21    1  |1 1>+         0.00%    0.00%    0.00%   35.25%    0.00%    0.00%   18.07%
 29  1    22    1  |1 1>+        33.33%    0.00%    0.00%    0.00%    0.00%    0.00%    0.00%
 30  1    23    1  |1 1>+         0.00%   15.76%    0.00%    0.00%   37.68%    0.00%    0.00%
 31  1    24    1  |1 1>+         0.00%   18.36%    0.00%    0.00%   21.57%    0.00%    0.00%
 32  1     1    1  |1 0>          0.00%    0.00%    0.00%    0.00%    0.00%    0.00%    0.00%
 33  1     2    1  |1 0>          0.00%    0.00%    0.00%    0.00%    0.00%    0.00%    0.00%
 34  1     3    1  |1 0>          0.00%    0.00%    0.00%    0.00%    0.00%    0.00%    0.00%
 35  1     4    1  |1 0>          0.00%    0.00%    0.00%    0.00%    0.00%    0.00%    0.00%
 36  1     5    1  |1 0>          0.00%    0.00%    0.00%    0.00%    0.00%    0.00%    0.00%
 37  1     6    1  |1 0>          0.00%    0.00%    0.00%    0.00%    0.00%    0.00%    0.00%
 38  1     7    1  |1 0>          0.00%    0.00%    0.00%    0.00%    0.00%    0.00%    0.00%
 39  1     8    1  |1 0>          0.00%    0.00%    0.00%    0.00%    0.00%    0.00%    0.00%
 40  1     9    1  |1 0>          0.00%    0.00%    0.00%    0.00%    0.00%    0.00%    0.00%
 41  1    10    1  |1 0>          0.00%    0.00%    0.00%    0.00%    0.00%    0.00%    0.00%
 42  1    11    1  |1 0>          0.00%    0.00%    0.00%    0.00%    0.00%    0.00%    0.00%
 43  1    12    1  |1 0>          0.00%    0.00%    0.00%    0.00%    0.00%    0.00%    0.00%
 44  1    13    1  |1 0>          0.00%    0.00%    0.00%    0.00%    0.00%    0.00%    0.00%
 45  1    14    1  |1 0>          0.00%    0.00%    0.00%    0.00%    0.00%    0.00%    0.00%
 46  1    15    1  |1 0>          0.00%    0.00%    0.00%    0.00%    0.00%    0.00%    0.00%
 47  1    16    1  |1 0>          0.00%    0.00%    0.00%    0.00%    0.00%    0.00%    0.00%
 48  1    17    1  |1 0>          0.00%    0.00%    0.00%    0.00%    0.00%    0.00%    0.00%
 49  1    18    1  |1 0>          0.00%    0.00%    0.00%    0.00%    0.00%    0.00%    0.00%
 50  1    19    1  |1 0>          0.00%    0.00%    0.00%    0.00%    0.00%    0.00%    0.00%
 51  1    20    1  |1 0>         33.33%    0.00%    0.00%    0.00%    0.00%    0.00%    0.00%
 52  1    21    1  |1 0>          0.00%   24.30%    0.00%    0.00%   29.02%    0.00%    0.00%
 53  1    22    1  |1 0>          0.00%    0.00%   22.25%    0.00%    0.00%   31.08%    0.00%
 54  1    23    1  |1 0>          0.00%    0.00%    0.00%   33.31%    0.00%    0.00%    0.04%
 55  1    24    1  |1 0>          0.00%    0.00%    0.00%    0.07%    0.00%    0.00%   59.94%
 56  1     1    1  |1 1>-         0.00%    0.00%    0.00%    0.00%    0.00%    0.00%    0.00%
 57  1     2    1  |1 1>-         0.00%    0.00%    0.00%    0.00%    0.00%    0.00%    0.00%
 58  1     3    1  |1 1>-         0.00%    0.00%    0.00%    0.00%    0.00%    0.00%    0.00%
 59  1     4    1  |1 1>-         0.00%    0.00%    0.00%    0.00%    0.00%    0.00%    0.00%
 60  1     5    1  |1 1>-         0.00%    0.00%    0.00%    0.00%    0.00%    0.00%    0.00%
 61  1     6    1  |1 1>-         0.00%    0.00%    0.00%    0.00%    0.00%    0.00%    0.00%
 62  1     7    1  |1 1>-         0.00%    0.00%    0.00%    0.00%    0.00%    0.00%    0.00%
 63  1     8    1  |1 1>-         0.00%    0.00%    0.00%    0.00%    0.00%    0.00%    0.00%
 64  1     9    1  |1 1>-         0.00%    0.00%    0.00%    0.00%    0.00%    0.00%    0.00%
 65  1    10    1  |1 1>-         0.00%    0.00%    0.00%    0.00%    0.00%    0.00%    0.00%
 66  1    11    1  |1 1>-         0.00%    0.00%    0.00%    0.00%    0.00%    0.00%    0.00%
 67  1    12    1  |1 1>-         0.00%    0.00%    0.00%    0.00%    0.00%    0.00%    0.00%
 68  1    13    1  |1 1>-         0.00%    0.00%    0.00%    0.00%    0.00%    0.00%    0.00%
 69  1    14    1  |1 1>-         0.00%    0.00%    0.00%    0.00%    0.00%    0.00%    0.00%
 70  1    15    1  |1 1>-         0.00%    0.00%    0.00%    0.00%    0.00%    0.00%    0.00%
 71  1    16    1  |1 1>-         0.00%    0.00%    0.00%    0.00%    0.00%    0.00%    0.00%
 72  1    17    1  |1 1>-         0.00%    0.00%    0.00%    0.00%    0.00%    0.00%    0.00%
 73  1    18    1  |1 1>-         0.00%    0.00%    0.00%    0.00%    0.00%    0.00%    0.00%
 74  1    19    1  |1 1>-         0.00%    0.00%    0.00%    0.00%    0.00%    0.00%    0.00%
 75  1    20    1  |1 1>-         0.00%   41.59%    0.00%    0.00%   11.73%    0.00%    0.00%
 76  1    21    1  |1 1>-        33.33%    0.00%    0.00%    0.00%    0.00%    0.00%    0.00%
 77  1    22    1  |1 1>-         0.00%    0.00%    0.00%   31.36%    0.00%    0.00%   21.96%
 78  1    23    1  |1 1>-         0.00%    0.00%   17.94%    0.00%    0.00%   35.32%    0.00%
 79  1    24    1  |1 1>-         0.00%    0.00%   16.57%    0.00%    0.00%   23.53%    0.00%



 **********************************************************************************************************************************
 DATASETS  * FILE   NREC   LENGTH (MB)   RECORD NAMES
              1      24     1646.34       500      610      700      900      950      970     1000      129      960     1700   
                                          VAR    BASINP    GEOM    SYMINP    ZMAT    AOBASIS   BASIS     P2S    ABASIS    OPER   
                                         1101     1401     1411     1412     1650     1100     1400     1410     1200     1210   
                                          SR      EKINR    POTR     PVPR    MOLCAS      S      EKIN      POT      H0       H01  
                                         1080     1600     1380     1700(1)
                                         AOSYM     SMH     JKOP     OPER   

              2       7     2600.36       700     1000      520     2100     2140     5101     5103   
                                         GEOM     BASIS   MCVARS     RHF     MCSCF    MRCI     MRCI   

 PROGRAMS   *        TOTAL        CI     LSINT        CI        CI     MULTI   RHF-SCF       INT
 CPU TIMES  *    111653.60  79190.62    655.79  28468.98   3270.78     19.71      3.42     44.08
 REAL TIME  *    112712.82 SEC
 DISK USED  *         2.84 GB (local),       21.69 GB (total)
 SF USED    *        23.28 GB
 GA USED    *         0.00 MB       (max)       0.00 MB       (current)
 **********************************************************************************************************************************

 CI/aug-cc-pWCVQZ-X2C energy= -24985.165498139329

              CI              CI           MULTI         RHF-SCF
 -24985.12148598 -24985.18695917 -24984.64817806 -24984.38156178
 **********************************************************************************************************************************
 Molpro calculation terminated with 1 warning(s)
