
 Working directory              : /wrk/irikura/molpro.sYPHWnGMJu/
 Global scratch directory       : /wrk/irikura/molpro.sYPHWnGMJu/
 Wavefunction directory         : /home/irikura/wfu/
 Main file repository           : /wrk/irikura/molpro.sYPHWnGMJu/

 id        : nistki

 Nodes            nprocs
 pn125343.nist.gov    6
 GA implementation: MPI file
 GA implementation (serial work in mppx): MPI file

 Using customized tuning parameters: mindgm=1; mindgv=20; mindgc=4; mindgr=1; noblas=0; minvec=7
 default implementation of scratch files=sf  


 Variables initialized (1042), CPU time= 0.01 sec
 ***,Ra SO-CI
                                                                                 ! larger core [15 19]
 memory,8,G
 
 gprint,orbitals,civector;
 
 symmetry,xyz
 geometry={Ra};
 
 basis=aug-cc-pwCVTZ-X2C
 
 set,dkho=101
 
 {rhf;wf,sym=1,spin=0}
 
 NSING=7
 NTRIP=16
 
 w(1) = 99
 do i=2,NSING
     w(i) = 1
 enddo
 
                                                                                 ! active space (2/10) as orbitals [7 3]
 {multi
     closed,21,22
     occ,28,25
     wf,sym=1,spin=0;state,NSING;
        weight,w
     wf,sym=1,spin=2;state,NTRIP;
        weight,all,1
     expec2,lxx,lyy,lzz;
 }
 table, energy, ll
 title, Energies and &lt;L**2&gt; values
 
 core,15,19
 {ci;wf,sym=1,spin=0;state,NSING; save,5101.2}
 hlsdiag = energd4
 {ci;wf,sym=1,spin=2;state,NTRIP; save,5103.2}
 hlsdiag(NSING+1) = energd4
 
 table,hlsdiag
 
 lsint
 {ci;hlsmat,ls,5101.2,5103.2;print,vls=0,hls=0}                                  !compute and diagonalize SO matrix
 Commands initialized (847), CPU time= 0.01 sec, 718 directives.
 Default parameters read. Elapsed time= 0.10 sec

 Checking input...
 Passed
1


                                         ***  PROGRAM SYSTEM MOLPRO  ***
                                       Copyright, TTI GmbH Stuttgart, 2015
                                    Version 2024.1 linked Wed Jan 31 05:42:09 2024


 **********************************************************************************************************************************
 LABEL *   Ra SO-CI                                                                                                                                                      
  (64 PROC) 64 bit mpp version                                                           DATE: 06-May-24          TIME: 12:33:05  
 **********************************************************************************************************************************

 SHA1:             675817fde4514a4a933b69e420913a90cee4ef91
 **********************************************************************************************************************************

 Memory per process:      8000 MW
 Total memory per node:  48000 MW

 GA preallocation disabled
 GA check disabled

 Variable memory set to 8000.0 MW


 ZSYMEL=XYZ

 SETTING BASIS          =    AUG-CC-PWCVTZ-X2C
 SETTING DKHO           =       101.00000000                                  


 Recomputing integrals since basis changed


 Using spherical harmonics

 Library entry RA     S aug-cc-pwCVTZ-X      selected for orbital group  1
 Library entry RA     P aug-cc-pwCVTZ-X      selected for orbital group  1
 Library entry RA     D aug-cc-pwCVTZ-X      selected for orbital group  1
 Library entry RA     F aug-cc-pwCVTZ-X      selected for orbital group  1


 PROGRAM * SEWARD (Integral evaluation for generally contracted gaussian basis sets)     Author: Roland Lindh, 1990

 Geometry written to block  1 of record 700

 Orientation using atomic masses  
 Molecule type: Atom
 User-specified symmetry elements: XYZ
 Symmetry elements: XYZ
 Rotational constants:       0.0000000      0.0000000      0.0000000 GHz  (calculated with average atomic masses)

 Point group  Ci  



 ATOMIC COORDINATES

 NR  ATOM    CHARGE       X              Y              Z

   1  RA     88.00    0.000000000    0.000000000    0.000000000

 NUCLEAR CHARGE:                   88
 NUMBER OF PRIMITIVE AOS:         430
 NUMBER OF SYMMETRY AOS:          359
 NUMBER OF CONTRACTIONS:          125   (   57Ag  +   68Au  )
 NUMBER OF INNER CORE ORBITALS:    39   (   20Ag  +   19Au  )
 NUMBER OF OUTER CORE ORBITALS:     4   (    1Ag  +    3Au  )
 NUMBER OF VALENCE ORBITALS:        1   (    1Ag  +    0Au  )


 NUCLEAR REPULSION ENERGY    0.00000000

 One-electron integrals computed with SEWARD

 eXact-2-Component (X2C) method activated

 Computing Douglas-Kroll / X2C integrals

 AO integral compression algorithm  1   Integral accuracy      1.0D-11

     37.224 MB (compressed) written to integral file ( 12.9%)

     Node minimum: 4.194 MB, node maximum: 10.224 MB


 NUMBER OF SORTED TWO-ELECTRON INTEGRALS:    2626485.     BUFFER LENGTH:  32768
 NUMBER OF SEGMENTS:   1  SEGMENT LENGTH:    2626485      RECORD LENGTH: 524288

 Memory used in sort:       3.18 MW

 SORT1 READ    36081304. AND WROTE      538463. INTEGRALS IN      2 RECORDS. CPU TIME:     0.16 SEC, REAL TIME:     0.18 SEC
 SORT2 READ     3260452. AND WROTE    15753876. INTEGRALS IN    234 RECORDS. CPU TIME:     0.06 SEC, REAL TIME:     0.07 SEC

 Node minimum:     2624806.  Node maximum:     2626485. integrals

 OPERATOR DM      FOR CENTER  0  COORDINATES:    0.000000    0.000000    0.000000

 EXTRA SYMMETRY OF AOS IN SYMMETRY 1:   1 1 1 1 1 1 1 1 1 1   1 1 2 3 4 5 6 2 3 4   5 6 2 3 4 5 6 2 3 4   5 6 2 3 4 5 6 2 3 4
                                        5 6 2 3 4 5 6 2 3 4   5 6 2 3 4 5 6
 EXTRA SYMMETRY OF AOS IN SYMMETRY 2:   1 2 3 1 2 3 1 2 3 1   2 3 1 2 3 1 2 3 1 2   3 1 2 3 1 2 3 1 2 3   1 2 3 4 5 6 7 8 910
                                        4 5 6 7 8 910 4 5 6   7 8 910 4 5 6 7 8 9  10 4 5 6 7 8 910

 Eigenvalues of metric

         1 0.525E-03 0.161E-02 0.161E-02 0.161E-02 0.161E-02 0.161E-02 0.163E-02 0.203E-01
         2 0.243E-02 0.243E-02 0.243E-02 0.514E-02 0.514E-02 0.514E-02 0.700E-01 0.700E-01


 **********************************************************************************************************************************
 DATASETS  * FILE   NREC   LENGTH (MB)   RECORD NAMES
              1      22       30.10       500      610      700      900      950      970     1000      129      960     1700   
                                          VAR    BASINP    GEOM    SYMINP    ZMAT    AOBASIS   BASIS     P2S    ABASIS    OPER   
                                         1101     1401     1411     1412     1650     1100     1400     1410     1200     1210   
                                          SR      EKINR    POTR     PVPR    MOLCAS      S      EKIN      POT      H0       H01  
                                         1080     1600   
                                         AOSYM     SMH  

 PROGRAMS   *        TOTAL       INT
 CPU TIMES  *        14.47     14.29
 REAL TIME  *        17.54 SEC
 DISK USED  *        30.49 MB (local),      250.27 MB (total)
 GA USED    *         0.00 MB       (max)       0.00 MB       (current)
 **********************************************************************************************************************************


 Program * Restricted Hartree-Fock

 Orbital guess generated from atomic densities.

 Initial occupancy:  21  23

 NELEC=   88   SYM=1   MS2= 0   THRE=1.0D-08   THRD=3.2D-06   THRG=3.2D-06  HFMA2=F  DIIS_START=2   DIIS_MAX=10   DIIS_INCORE=F

 Level shifts:    0.00 (CLOSED)    0.00 (OPEN)    0.30 (GAP_MIN)

 ITER           ETOT              DE          GRAD        DDIFF     DIIS  NEXP   TIME(IT)  TIME(TOT)  DIAG
   1   -24984.29449825  -24984.29449825     0.00D+00     0.73D+00     0     0       0.01      0.04    start
   2   -24984.38775570      -0.09325745     0.63D-02     0.19D+00     1     0       0.02      0.06    diag
   3   -24984.39998493      -0.01222923     0.28D-02     0.82D-01     2     0       0.01      0.07    diag
   4   -24984.41003965      -0.01005472     0.91D-03     0.98D-01     3     0       0.02      0.09    diag
   5   -24984.41791696      -0.00787731     0.71D-03     0.52D-01     4     0       0.01      0.10    diag
   6   -24984.40358598       0.01433097     0.79D-03     0.67D-01     5     0       0.02      0.12    diag
   7   -24984.40997326      -0.00638727     0.55D-03     0.11D+00     6     0       0.01      0.13    diag
   8   -24984.41146894      -0.00149568     0.53D-03     0.17D-01     7     0       0.02      0.15    fixocc
   9   -24984.42656859      -0.01509965     0.53D-03     0.11D+00     8     0       0.01      0.16    diag
  10   -24984.45001344      -0.02344485     0.50D-03     0.14D+00     9     0       0.02      0.18    diag/orth
  11   -24984.44742675       0.00258668     0.21D-03     0.36D-01     9     0       0.02      0.20    diag
  12   -24984.45063458      -0.00320783     0.23D-03     0.29D-01     9     0       0.01      0.21    diag
  13   -24984.45063396       0.00000062     0.69D-04     0.61D-02     9     0       0.02      0.23    diag
  14   -24984.45062820       0.00000577     0.44D-04     0.16D-02     9     0       0.01      0.24    diag
  15   -24984.45064760      -0.00001940     0.25D-04     0.11D-02     9     0       0.02      0.26    diag
  16   -24984.45066461      -0.00001702     0.20D-04     0.10D-02     9     0       0.01      0.27    diag
  17   -24984.45069590      -0.00003129     0.17D-04     0.79D-03     9     0       0.02      0.29    diag
  18   -24984.45070477      -0.00000887     0.12D-04     0.54D-03     9     0       0.01      0.30    diag
  19   -24984.45070686      -0.00000210     0.64D-05     0.27D-03     9     0       0.02      0.32    diag
  20   -24984.45070732      -0.00000045     0.36D-05     0.17D-03     9     0       0.01      0.33    diag/orth
  21   -24984.45070732      -0.00000001     0.64D-06     0.91D-05     9     0       0.02      0.35    diag
  22   -24984.45070732      -0.00000000     0.16D-06     0.15D-04     9     0       0.01      0.36    diag
  23   -24984.45070732      -0.00000000     0.43D-07     0.47D-05     9     0       0.02      0.38    diag
  24   -24984.45070732      -0.00000000     0.24D-07     0.23D-05     9     0       0.01      0.39    diag
  25   -24984.45070732       0.00000000     0.20D-07     0.24D-06     0     0       0.02      0.41    diag

 Final occupancy:  21  23

 !RHF STATE 1.1 Energy               -24984.4507073216    
  RHF One-electron energy            -33978.0845091992    
  RHF Two-electron energy            8993.633801877597
  RHF Kinetic energy                  43484.7984750474    
  RHF Nuclear energy                    0.000000000000
  RHF Virial quotient                  -0.574555973202

 !RHF STATE 1.1 Dipole moment           0.00000000     0.00000000     0.00000000
 Dipole moment /Debye                   0.00000000     0.00000000     0.00000000

 ELECTRON ORBITALS
 =================

  Orbital  Occupation    Energy    Cen Mu Typ  Coefficients
    1.1     2.00000 -3845.45322     1  1  s    1.00000
    2.1     2.00000  -713.00331     1  2  s    1.00000
    3.1     2.00000  -180.01283     1  3  s    1.00000
    4.1     2.00000  -118.35011     1  1  d0   0.86602    1  1  d2+  0.50000
    5.1     2.00000  -118.35011     1  1  d1-  1.00000
    6.1     2.00000  -118.34991     1  1  d2-  1.00000
    7.1     2.00000  -118.34991     1  1  d1+  1.00000
    8.1     2.00000  -118.34984     1  1  d0  -0.50000    1  1  d2+  0.86602
    9.1     2.00000   -45.96516     1  4  s    1.00003
   10.1     2.00000   -23.92051     1  2  d1-  1.00000
   11.1     2.00000   -23.92051     1  2  d0   0.86602    1  2  d2+  0.50000
   12.1     2.00000   -23.92004     1  2  d1+  1.00000
   13.1     2.00000   -23.92004     1  2  d2-  1.00000
   14.1     2.00000   -23.91989     1  2  d0  -0.50000    1  2  d2+  0.86602
   15.1     2.00000   -10.25876     1  5  s    0.99902
   16.1     2.00000    -3.23860     1  3  d1-  1.00101
   17.1     2.00000    -3.23860     1  3  d0   0.86690    1  3  d2+  0.50049
   18.1     2.00000    -3.23763     1  3  d1+  1.00102
   19.1     2.00000    -3.23763     1  3  d2-  1.00102
   20.1     2.00000    -3.23729     1  3  d0  -0.50050    1  3  d2+  0.86692
   21.1     2.00000    -1.86382     1  6  s    1.00368
    1.2     2.00000  -604.37766     1  1  pz   1.00000
    2.2     2.00000  -604.37766     1  1  py   1.00000
    3.2     2.00000  -604.37763     1  1  px   1.00000
    4.2     2.00000  -148.96597     1  2  py   1.00000
    5.2     2.00000  -148.96597     1  2  pz   1.00000
    6.2     2.00000  -148.96577     1  2  px   1.00000
    7.2     2.00000   -35.60374     1  3  pz   0.99998
    8.2     2.00000   -35.60374     1  3  py   0.99998
    9.2     2.00000   -35.60328     1  3  px   0.99997
   10.2     2.00000   -11.44759     1  1  f0   0.79057    1  1  f2+  0.61237
   11.2     2.00000   -11.44759     1  1  f1-  0.96824
   12.2     2.00000   -11.44720     1  1  f1+  0.79057    1  1  f3+  0.61237
   13.2     2.00000   -11.44720     1  1  f2-  1.00000
   14.2     2.00000   -11.44696     1  1  f0  -0.61237    1  1  f2+  0.79057
   15.2     2.00000   -11.44696     1  1  f3-  0.96825
   16.2     2.00000   -11.44688     1  1  f1+ -0.61237    1  1  f3+  0.79057
   17.2     2.00000    -7.05017     1  4  pz   1.00091
   18.2     2.00000    -7.05017     1  4  py   1.00091
   19.2     2.00000    -7.04937     1  4  px   1.00132
   20.2     2.00000    -1.04605     1  5  py   1.03386
   21.2     2.00000    -1.04605     1  5  pz   1.03386
   22.2     2.00000    -1.04343     1  5  px   1.04084
   23.2     2.00000    -0.05365     1  6  px   0.82343    1  8  px   0.78813    1 11  px   0.70820


 HOMO     23.2    -0.053645 =      -1.4598eV
 LUMO     22.1    -0.168129 =      -4.5750eV
 LUMO-HOMO        -0.114484 =      -3.1153eV

 Orbitals saved in record  2100.2


 **********************************************************************************************************************************
 DATASETS  * FILE   NREC   LENGTH (MB)   RECORD NAMES
              1      22       30.10       500      610      700      900      950      970     1000      129      960     1700   
                                          VAR    BASINP    GEOM    SYMINP    ZMAT    AOBASIS   BASIS     P2S    ABASIS    OPER   
                                         1101     1401     1411     1412     1650     1100     1400     1410     1200     1210   
                                          SR      EKINR    POTR     PVPR    MOLCAS      S      EKIN      POT      H0       H01  
                                         1080     1600   
                                         AOSYM     SMH  

              2       4        0.53       700     1000      520     2100   
                                         GEOM     BASIS   MCVARS     RHF  

 PROGRAMS   *        TOTAL   RHF-SCF       INT
 CPU TIMES  *        14.88      0.41     14.29
 REAL TIME  *        17.99 SEC
 DISK USED  *        31.30 MB (local),      255.08 MB (total)
 GA USED    *         0.00 MB       (max)       0.00 MB       (current)
 **********************************************************************************************************************************
 SETTING NSING          =         7.00000000                                  
 SETTING NTRIP          =        16.00000000                                  
 SETTING W(1)           =        99.00000000                                  

 DO I                   =         2.00000000   
 SETTING W(2)           =         1.00000000                                  

 DO I                   =         3.00000000   
 SETTING W(3)           =         1.00000000                                  

 DO I                   =         4.00000000   
 SETTING W(4)           =         1.00000000                                  

 DO I                   =         5.00000000   
 SETTING W(5)           =         1.00000000                                  

 DO I                   =         6.00000000   
 SETTING W(6)           =         1.00000000                                  

 DO I                   =         7.00000000   
 SETTING W(7)           =         1.00000000                                  

 PROGRAM * MULTI (Direct Multiconfiguration SCF)       Authors: P.J. Knowles, H.-J. Werner (1984)
                                                                D.A. Kreplin, P.J. Knowles, H.-J. Werner (2019)

 Number of closed-shell orbitals:  43 (   21   22)
 Number of active  orbitals:       10 (    7    3)
 Number of external orbitals:      72 (   29   43)

 State symmetry 1

 Number of active electrons:   2    Spin symmetry=Singlet   Space symmetry=1
 Number of states:             7
 Number of CSFs:              34   (58 determinants, 100 intermediate states)

 State symmetry 2

 Number of active electrons:   2    Spin symmetry=Triplet   Space symmetry=1
 Number of states:            16
 Number of CSFs:              24   (24 determinants, 45 intermediate states)

 Molecular orbitals read from record     2100.2  Type=RHF/CANONICAL  
 *** IN SYMMETRY 1 ORBITAL  4 SYMMETRY CONTAMINATION OF 0.367D+00 HAS BEEN REMOVED
 *** IN SYMMETRY 1 ORBITAL  5 SYMMETRY CONTAMINATION OF 0.269D-02 HAS BEEN REMOVED
 *** IN SYMMETRY 1 ORBITAL  6 SYMMETRY CONTAMINATION OF 0.185D-04 HAS BEEN REMOVED
 *** IN SYMMETRY 1 ORBITAL  7 SYMMETRY CONTAMINATION OF 0.185D-04 HAS BEEN REMOVED
 *** IN SYMMETRY 1 ORBITAL  8 SYMMETRY CONTAMINATION OF 0.366D+00 HAS BEEN REMOVED
 *** IN SYMMETRY 1 ORBITAL  9 SYMMETRY CONTAMINATION OF 0.407D-04 HAS BEEN REMOVED
 *** IN SYMMETRY 1 ORBITAL 10 SYMMETRY CONTAMINATION OF 0.385D-04 HAS BEEN REMOVED
 *** IN SYMMETRY 1 ORBITAL 11 SYMMETRY CONTAMINATION OF 0.366D+00 HAS BEEN REMOVED
 *** IN SYMMETRY 1 ORBITAL 12 SYMMETRY CONTAMINATION OF 0.429D-04 HAS BEEN REMOVED
 *** IN SYMMETRY 1 ORBITAL 13 SYMMETRY CONTAMINATION OF 0.429D-04 HAS BEEN REMOVED
 *** IN SYMMETRY 1 ORBITAL 14 SYMMETRY CONTAMINATION OF 0.366D+00 HAS BEEN REMOVED
 *** IN SYMMETRY 1 ORBITAL 15 SYMMETRY CONTAMINATION OF 0.352D-03 HAS BEEN REMOVED
 *** IN SYMMETRY 1 ORBITAL 17 SYMMETRY CONTAMINATION OF 0.366D+00 HAS BEEN REMOVED
 *** IN SYMMETRY 1 ORBITAL 20 SYMMETRY CONTAMINATION OF 0.367D+00 HAS BEEN REMOVED
 *** IN SYMMETRY 1 ORBITAL 21 SYMMETRY CONTAMINATION OF 0.167D-01 HAS BEEN REMOVED
 *** IN SYMMETRY 1 ORBITAL 22 SYMMETRY CONTAMINATION OF 0.536D-01 HAS BEEN REMOVED
 *** IN SYMMETRY 1 ORBITAL 23 SYMMETRY CONTAMINATION OF 0.366D+00 HAS BEEN REMOVED
 *** IN SYMMETRY 1 ORBITAL 27 SYMMETRY CONTAMINATION OF 0.455D+00 HAS BEEN REMOVED
 *** IN SYMMETRY 1 ORBITAL 28 SYMMETRY CONTAMINATION OF 0.104D+00 HAS BEEN REMOVED

 EXTRA SYMMETRY OF MOS IN SYMMETRY 1:   1 1 1 2 6 3 4 5 1 6   2 4 3 5 1 6 2 4 3 5   1 1 2 6 4 3 5 1 2 6   3 4 5 1 6 2 4 3 5 1
                                        2 6 4 3 5 1 6 2 3 4   5 6 2 3 4 5 1
 *** IN SYMMETRY 2 ORBITAL  1 SYMMETRY CONTAMINATION OF 0.113D-03 HAS BEEN REMOVED
 *** IN SYMMETRY 2 ORBITAL  2 SYMMETRY CONTAMINATION OF 0.113D-03 HAS BEEN REMOVED
 *** IN SYMMETRY 2 ORBITAL  4 SYMMETRY CONTAMINATION OF 0.412D-03 HAS BEEN REMOVED
 *** IN SYMMETRY 2 ORBITAL  5 SYMMETRY CONTAMINATION OF 0.413D-03 HAS BEEN REMOVED
 *** IN SYMMETRY 2 ORBITAL  7 SYMMETRY CONTAMINATION OF 0.217D-04 HAS BEEN REMOVED
 *** IN SYMMETRY 2 ORBITAL  8 SYMMETRY CONTAMINATION OF 0.190D-04 HAS BEEN REMOVED
 *** IN SYMMETRY 2 ORBITAL  9 SYMMETRY CONTAMINATION OF 0.251D-04 HAS BEEN REMOVED
 *** IN SYMMETRY 2 ORBITAL 10 SYMMETRY CONTAMINATION OF 0.437D+00 HAS BEEN REMOVED
 *** IN SYMMETRY 2 ORBITAL 11 SYMMETRY CONTAMINATION OF 0.207D+00 HAS BEEN REMOVED
 *** IN SYMMETRY 2 ORBITAL 12 SYMMETRY CONTAMINATION OF 0.437D+00 HAS BEEN REMOVED
 *** IN SYMMETRY 2 ORBITAL 13 SYMMETRY CONTAMINATION OF 0.670D-04 HAS BEEN REMOVED
 *** IN SYMMETRY 2 ORBITAL 14 SYMMETRY CONTAMINATION OF 0.437D+00 HAS BEEN REMOVED
 *** IN SYMMETRY 2 ORBITAL 15 SYMMETRY CONTAMINATION OF 0.205D+00 HAS BEEN REMOVED
 *** IN SYMMETRY 2 ORBITAL 16 SYMMETRY CONTAMINATION OF 0.437D+00 HAS BEEN REMOVED
 *** IN SYMMETRY 2 ORBITAL 17 SYMMETRY CONTAMINATION OF 0.301D-03 HAS BEEN REMOVED
 *** IN SYMMETRY 2 ORBITAL 18 SYMMETRY CONTAMINATION OF 0.262D-03 HAS BEEN REMOVED
 *** IN SYMMETRY 2 ORBITAL 19 SYMMETRY CONTAMINATION OF 0.356D-03 HAS BEEN REMOVED
 *** IN SYMMETRY 2 ORBITAL 20 SYMMETRY CONTAMINATION OF 0.286D-02 HAS BEEN REMOVED
 *** IN SYMMETRY 2 ORBITAL 21 SYMMETRY CONTAMINATION OF 0.329D-02 HAS BEEN REMOVED
 *** IN SYMMETRY 2 ORBITAL 22 SYMMETRY CONTAMINATION OF 0.413D-02 HAS BEEN REMOVED
 *** IN SYMMETRY 2 ORBITAL 23 SYMMETRY CONTAMINATION OF 0.617D-01 HAS BEEN REMOVED
 *** IN SYMMETRY 2 ORBITAL 24 SYMMETRY CONTAMINATION OF 0.562D-01 HAS BEEN REMOVED
 *** IN SYMMETRY 2 ORBITAL 25 SYMMETRY CONTAMINATION OF 0.492D-01 HAS BEEN REMOVED
 EXTRA SYMMETRY OF MOS IN SYMMETRY 2:   3 2 1 2 3 1 3 2 1 6   5 4 810 9 7 3 2 1 2   3 1 1 3 2 1 3 2 3 2   6 5 1 8 410 9 1 3 2
                                        5 6 1 4 810 9 7 6 5   8 4 910 7 3 2 1 6 5   8 4 910 7 2 3 7

 Wavefunction dump at record             2140.2

 Convergence thresholds  0.10E-04 (gradient)  0.10E-05 (energy)

 Weight factors for state symmetry  1:    0.81818   0.00826   0.00826   0.00826   0.00826   0.00826   0.00826
 Weight factors for state symmetry  2:    0.00826   0.00826   0.00826   0.00826   0.00826   0.00826   0.00826   0.00826
                                          0.00826   0.00826   0.00826   0.00826   0.00826   0.00826   0.00826   0.00826
 
 Number of orbital rotations:  2100  ( 213 closed/active, 1555 closed/virtual, 0 active/active, 332 active/virtual )
 Total number of variables:    2890
 
 Second-order MCSCF: L-BFGS accelerated
 
 ITER  MIC  NCI  NEG     ENERGY(VAR)    ENERGY(PROJ) ENERGY CHANGE       GRAD(0)  GRAD(ORB)   GRAD(CI)      STEP      TIME
   1    6   10    1 -24984.76233237  -24984.77269572   -0.01036335    0.09455258 0.00045561 0.00000000  0.11E+01      2.38
   2   10   16    0 -24984.77308324  -24984.77363637   -0.00055313    0.00237295 0.00000131 0.00000000  0.28E+00      5.39
   3   13   22    0 -24984.77364563  -24984.77364641   -0.00000078    0.00009472 0.00000000 0.00000000  0.96E-02      8.62
   4    4    8    0 -24984.77364641  -24984.77364641   -0.00000000    0.00000016 0.00000001 0.00000000  0.93E-05     10.80

 CONVERGENCE REACHED!  Final gradient:    0.00000000 ( 0.16E-08)
                       Final energy: -24984.77364641
 
 Results for state 1.1 Singlet
 =============================
 !MCSCF STATE 1.1 Singlet Energy              -24984.7943901625    
 Nuclear energy                                  0.00000000
 Kinetic energy                              43485.67358090
 One electron energy                        -33999.49782166
 Two electron energy                          9014.70343149
 Virial ratio                                    1.57455231
 
 !MCSCF STATE 1.1 Singlet Dipole moment          0.00000000     0.00000000     0.00000000
 Dipole moment /Debye                            0.00000000     0.00000000     0.00000000
 
 Results for state 2.1 Singlet
 =============================
 !MCSCF STATE 2.1 Singlet Energy              -24984.7111008344    
 Nuclear energy                                  0.00000000
 Kinetic energy                              43485.37563552
 One electron energy                        -34000.94862468
 Two electron energy                          9016.23752384
 Virial ratio                                    1.57455434
 
 !MCSCF STATE 2.1 Singlet Dipole moment          0.00000000     0.00000000     0.00000000
 Dipole moment /Debye                            0.00000000     0.00000000     0.00000000
 
 Results for state 3.1 Singlet
 =============================
 !MCSCF STATE 3.1 Singlet Energy              -24984.7111008344    
 Nuclear energy                                  0.00000000
 Kinetic energy                              43485.37563552
 One electron energy                        -34000.94862467
 Two electron energy                          9016.23752384
 Virial ratio                                    1.57455434
 
 !MCSCF STATE 3.1 Singlet Dipole moment          0.00000000     0.00000000     0.00000000
 Dipole moment /Debye                            0.00000000     0.00000000     0.00000000
 
 Results for state 4.1 Singlet
 =============================
 !MCSCF STATE 4.1 Singlet Energy              -24984.7111008344    
 Nuclear energy                                  0.00000000
 Kinetic energy                              43485.37563552
 One electron energy                        -34000.94862469
 Two electron energy                          9016.23752386
 Virial ratio                                    1.57455434
 
 !MCSCF STATE 4.1 Singlet Dipole moment          0.00000000     0.00000000     0.00000000
 Dipole moment /Debye                            0.00000000     0.00000000     0.00000000
 
 Results for state 5.1 Singlet
 =============================
 !MCSCF STATE 5.1 Singlet Energy              -24984.7111008343    
 Nuclear energy                                  0.00000000
 Kinetic energy                              43485.37563552
 One electron energy                        -34000.94862473
 Two electron energy                          9016.23752389
 Virial ratio                                    1.57455434
 
 !MCSCF STATE 5.1 Singlet Dipole moment          0.00000000     0.00000000     0.00000000
 Dipole moment /Debye                            0.00000000     0.00000000     0.00000000
 
 Results for state 6.1 Singlet
 =============================
 !MCSCF STATE 6.1 Singlet Energy              -24984.7111008343    
 Nuclear energy                                  0.00000000
 Kinetic energy                              43485.37563552
 One electron energy                        -34000.94862474
 Two electron energy                          9016.23752391
 Virial ratio                                    1.57455434
 
 !MCSCF STATE 6.1 Singlet Dipole moment          0.00000000     0.00000000     0.00000000
 Dipole moment /Debye                            0.00000000     0.00000000     0.00000000
 
 Results for state 7.1 Singlet
 =============================
 !MCSCF STATE 7.1 Singlet Energy              -24984.6626134147    
 Nuclear energy                                  0.00000000
 Kinetic energy                              43485.43022541
 One electron energy                        -33992.74715033
 Two electron energy                          9008.08453691
 Virial ratio                                    1.57455250
 
 !MCSCF STATE 7.1 Singlet Dipole moment          0.00000000     0.00000000     0.00000000
 Dipole moment /Debye                            0.00000000     0.00000000     0.00000000
 
 Results for state 1.1 Triplet
 =============================
 !MCSCF STATE 1.1 Triplet Energy              -24984.7207912480    
 Nuclear energy                                  0.00000000
 Kinetic energy                              43485.46108005
 One electron energy                        -34001.65556223
 Two electron energy                          9016.93477098
 Virial ratio                                    1.57455343
 
 !MCSCF STATE 1.1 Triplet Dipole moment          0.00000000     0.00000000     0.00000000
 Dipole moment /Debye                            0.00000000     0.00000000     0.00000000
 
 Results for state 2.1 Triplet
 =============================
 !MCSCF STATE 2.1 Triplet Energy              -24984.7207912480    
 Nuclear energy                                  0.00000000
 Kinetic energy                              43485.46108005
 One electron energy                        -34001.65556233
 Two electron energy                          9016.93477108
 Virial ratio                                    1.57455343
 
 !MCSCF STATE 2.1 Triplet Dipole moment          0.00000000     0.00000000     0.00000000
 Dipole moment /Debye                            0.00000000     0.00000000     0.00000000
 
 Results for state 3.1 Triplet
 =============================
 !MCSCF STATE 3.1 Triplet Energy              -24984.7207912479    
 Nuclear energy                                  0.00000000
 Kinetic energy                              43485.46108005
 One electron energy                        -34001.65556223
 Two electron energy                          9016.93477098
 Virial ratio                                    1.57455343
 
 !MCSCF STATE 3.1 Triplet Dipole moment          0.00000000     0.00000000     0.00000000
 Dipole moment /Debye                            0.00000000     0.00000000     0.00000000
 
 Results for state 4.1 Triplet
 =============================
 !MCSCF STATE 4.1 Triplet Energy              -24984.7207912479    
 Nuclear energy                                  0.00000000
 Kinetic energy                              43485.46108005
 One electron energy                        -34001.65556228
 Two electron energy                          9016.93477103
 Virial ratio                                    1.57455343
 
 !MCSCF STATE 4.1 Triplet Dipole moment          0.00000000     0.00000000     0.00000000
 Dipole moment /Debye                            0.00000000     0.00000000     0.00000000
 
 Results for state 5.1 Triplet
 =============================
 !MCSCF STATE 5.1 Triplet Energy              -24984.7207912479    
 Nuclear energy                                  0.00000000
 Kinetic energy                              43485.46108005
 One electron energy                        -34001.65556223
 Two electron energy                          9016.93477099
 Virial ratio                                    1.57455343
 
 !MCSCF STATE 5.1 Triplet Dipole moment          0.00000000     0.00000000     0.00000000
 Dipole moment /Debye                            0.00000000     0.00000000     0.00000000
 
 Results for state 6.1 Triplet
 =============================
 !MCSCF STATE 6.1 Triplet Energy              -24984.6761007315    
 Nuclear energy                                  0.00000000
 Kinetic energy                              43485.12034811
 One electron energy                        -33990.30602996
 Two electron energy                          9005.62992923
 Virial ratio                                    1.57455690
 
 !MCSCF STATE 6.1 Triplet Dipole moment          0.00000000     0.00000000     0.00000000
 Dipole moment /Debye                            0.00000000     0.00000000     0.00000000
 
 Results for state 7.1 Triplet
 =============================
 !MCSCF STATE 7.1 Triplet Energy              -24984.6471650692    
 Nuclear energy                                  0.00000000
 Kinetic energy                              43485.24426633
 One electron energy                        -34003.89017379
 Two electron energy                          9019.24300872
 Virial ratio                                    1.57455460
 
 !MCSCF STATE 7.1 Triplet Dipole moment          0.00000000     0.00000000     0.00000000
 Dipole moment /Debye                            0.00000000     0.00000000     0.00000000
 
 Results for state 8.1 Triplet
 =============================
 !MCSCF STATE 8.1 Triplet Energy              -24984.6471650692    
 Nuclear energy                                  0.00000000
 Kinetic energy                              43485.24426633
 One electron energy                        -34003.89017379
 Two electron energy                          9019.24300873
 Virial ratio                                    1.57455460
 
 !MCSCF STATE 8.1 Triplet Dipole moment          0.00000000     0.00000000     0.00000000
 Dipole moment /Debye                            0.00000000     0.00000000     0.00000000
 
 Results for state 9.1 Triplet
 =============================
 !MCSCF STATE 9.1 Triplet Energy              -24984.6471650691    
 Nuclear energy                                  0.00000000
 Kinetic energy                              43485.24426633
 One electron energy                        -34003.89017387
 Two electron energy                          9019.24300880
 Virial ratio                                    1.57455460
 
 !MCSCF STATE 9.1 Triplet Dipole moment          0.00000000     0.00000000     0.00000000
 Dipole moment /Debye                            0.00000000     0.00000000     0.00000000
 
 Results for state 10.1 Triplet
 ==============================
 !MCSCF STATE 10.1 Triplet Energy             -24984.6471650691    
 Nuclear energy                                  0.00000000
 Kinetic energy                              43485.24426633
 One electron energy                        -34003.89017385
 Two electron energy                          9019.24300878
 Virial ratio                                    1.57455460
 
 !MCSCF STATE 10.1 Triplet Dipole moment         0.00000000     0.00000000     0.00000000
 Dipole moment /Debye                            0.00000000     0.00000000     0.00000000
 
 Results for state 11.1 Triplet
 ==============================
 !MCSCF STATE 11.1 Triplet Energy             -24984.6471650691    
 Nuclear energy                                  0.00000000
 Kinetic energy                              43485.24426634
 One electron energy                        -34003.89017390
 Two electron energy                          9019.24300883
 Virial ratio                                    1.57455460
 
 !MCSCF STATE 11.1 Triplet Dipole moment         0.00000000     0.00000000     0.00000000
 Dipole moment /Debye                            0.00000000     0.00000000     0.00000000
 
 Results for state 12.1 Triplet
 ==============================
 !MCSCF STATE 12.1 Triplet Energy             -24984.6471650691    
 Nuclear energy                                  0.00000000
 Kinetic energy                              43485.24426634
 One electron energy                        -34003.89017387
 Two electron energy                          9019.24300880
 Virial ratio                                    1.57455460
 
 !MCSCF STATE 12.1 Triplet Dipole moment         0.00000000     0.00000000     0.00000000
 Dipole moment /Debye                            0.00000000     0.00000000     0.00000000
 
 Results for state 13.1 Triplet
 ==============================
 !MCSCF STATE 13.1 Triplet Energy             -24984.6471650691    
 Nuclear energy                                  0.00000000
 Kinetic energy                              43485.24426634
 One electron energy                        -34003.89017392
 Two electron energy                          9019.24300885
 Virial ratio                                    1.57455460
 
 !MCSCF STATE 13.1 Triplet Dipole moment         0.00000000     0.00000000     0.00000000
 Dipole moment /Debye                            0.00000000     0.00000000     0.00000000
 
 Results for state 14.1 Triplet
 ==============================
 !MCSCF STATE 14.1 Triplet Energy             -24984.6460865653    
 Nuclear energy                                  0.00000000
 Kinetic energy                              43485.23307297
 One electron energy                        -34001.76059724
 Two electron energy                          9017.11451068
 Virial ratio                                    1.57455472
 
 !MCSCF STATE 14.1 Triplet Dipole moment         0.00000000     0.00000000     0.00000000
 Dipole moment /Debye                            0.00000000     0.00000000     0.00000000
 
 Results for state 15.1 Triplet
 ==============================
 !MCSCF STATE 15.1 Triplet Energy             -24984.6460865652    
 Nuclear energy                                  0.00000000
 Kinetic energy                              43485.23307297
 One electron energy                        -34001.76059729
 Two electron energy                          9017.11451072
 Virial ratio                                    1.57455472
 
 !MCSCF STATE 15.1 Triplet Dipole moment         0.00000000     0.00000000     0.00000000
 Dipole moment /Debye                            0.00000000     0.00000000     0.00000000
 
 Results for state 16.1 Triplet
 ==============================
 !MCSCF STATE 16.1 Triplet Energy             -24984.6460865651    
 Nuclear energy                                  0.00000000
 Kinetic energy                              43485.23307297
 One electron energy                        -34001.76059733
 Two electron energy                          9017.11451076
 Virial ratio                                    1.57455472
 
 !MCSCF STATE 16.1 Triplet Dipole moment         0.00000000     0.00000000     0.00000000
 Dipole moment /Debye                            0.00000000     0.00000000     0.00000000
 
 State-averaged charge density matrix saved on record 2140.2 (density set 1)
 
 No non-zero expectation values
 
 Expectation values for two-electron operators:
 
 ? Warning
 ? Transition properties are only calculated between states of the same symmetry
 ? The problem occurs in mu_properties_expec2

 !MCSCF expec      <1.1 Singlet|LXLX|1.1 Singlet>     0.000000000000
 !MCSCF expec      <2.1 Singlet|LXLX|2.1 Singlet>     0.999999692848
 !MCSCF expec      <3.1 Singlet|LXLX|3.1 Singlet>     0.141554258119
 !MCSCF expec      <4.1 Singlet|LXLX|4.1 Singlet>     3.858444670418
 !MCSCF expec      <5.1 Singlet|LXLX|5.1 Singlet>     3.998775603121
 !MCSCF expec      <6.1 Singlet|LXLX|6.1 Singlet>     1.001231486139
 !MCSCF expec      <7.1 Singlet|LXLX|7.1 Singlet>     0.000000000000
 !MCSCF expec      <1.1 Triplet|LXLX|1.1 Triplet>     0.833817437682
 !MCSCF expec      <2.1 Triplet|LXLX|2.1 Triplet>     1.000001478601
 !MCSCF expec      <3.1 Triplet|LXLX|3.1 Triplet>     1.000000114748
 !MCSCF expec      <4.1 Triplet|LXLX|4.1 Triplet>     3.999987387670
 !MCSCF expec      <5.1 Triplet|LXLX|5.1 Triplet>     3.166198391001
 !MCSCF expec      <6.1 Triplet|LXLX|6.1 Triplet>     0.000000000000
 !MCSCF expec      <7.1 Triplet|LXLX|7.1 Triplet>     2.916468810896
 !MCSCF expec      <8.1 Triplet|LXLX|8.1 Triplet>     3.737829869993
 !MCSCF expec      <9.1 Triplet|LXLX|9.1 Triplet>     1.984062163029
 !MCSCF expec    <10.1 Triplet|LXLX|10.1 Triplet>     5.448995427003
 !MCSCF expec    <11.1 Triplet|LXLX|11.1 Triplet>     4.548182781796
 !MCSCF expec    <12.1 Triplet|LXLX|12.1 Triplet>     2.018728810745
 !MCSCF expec    <13.1 Triplet|LXLX|13.1 Triplet>     7.345693647059
 !MCSCF expec    <14.1 Triplet|LXLX|14.1 Triplet>     0.999999999380
 !MCSCF expec    <15.1 Triplet|LXLX|15.1 Triplet>     0.999999995700
 !MCSCF expec    <16.1 Triplet|LXLX|16.1 Triplet>     0.000000004884
 
 !MCSCF expec      <1.1 Singlet|LYLY|1.1 Singlet>     0.000000000000
 !MCSCF expec      <2.1 Singlet|LYLY|2.1 Singlet>     3.999999597502
 !MCSCF expec      <3.1 Singlet|LYLY|3.1 Singlet>     3.569247203901
 !MCSCF expec      <4.1 Singlet|LYLY|4.1 Singlet>     0.430753442775
 !MCSCF expec      <5.1 Singlet|LYLY|5.1 Singlet>     1.000000705611
 !MCSCF expec      <6.1 Singlet|LYLY|6.1 Singlet>     0.999999047574
 !MCSCF expec      <7.1 Singlet|LYLY|7.1 Singlet>     0.000000000000
 !MCSCF expec      <1.1 Triplet|LYLY|1.1 Triplet>     1.175962349301
 !MCSCF expec      <2.1 Triplet|LYLY|2.1 Triplet>     1.000007384844
 !MCSCF expec      <3.1 Triplet|LYLY|3.1 Triplet>     3.999995704629
 !MCSCF expec      <4.1 Triplet|LYLY|4.1 Triplet>     1.000020124827
 !MCSCF expec      <5.1 Triplet|LYLY|5.1 Triplet>     2.824008914355
 !MCSCF expec      <6.1 Triplet|LYLY|6.1 Triplet>     0.000000000000
 !MCSCF expec      <7.1 Triplet|LYLY|7.1 Triplet>     3.888718717827
 !MCSCF expec      <8.1 Triplet|LYLY|8.1 Triplet>     3.973058879883
 !MCSCF expec      <9.1 Triplet|LYLY|9.1 Triplet>     1.135151831653
 !MCSCF expec    <10.1 Triplet|LYLY|10.1 Triplet>     6.531333257282
 !MCSCF expec    <11.1 Triplet|LYLY|11.1 Triplet>     3.474434830181
 !MCSCF expec    <12.1 Triplet|LYLY|12.1 Triplet>     8.859150149089
 !MCSCF expec    <13.1 Triplet|LYLY|13.1 Triplet>     0.138229493462
 !MCSCF expec    <14.1 Triplet|LYLY|14.1 Triplet>     0.000000321673
 !MCSCF expec    <15.1 Triplet|LYLY|15.1 Triplet>     0.999999678929
 !MCSCF expec    <16.1 Triplet|LYLY|16.1 Triplet>     0.999999999414
 
 !MCSCF expec      <1.1 Singlet|LZLZ|1.1 Singlet>    -0.000000000000
 !MCSCF expec      <2.1 Singlet|LZLZ|2.1 Singlet>     1.000000709650
 !MCSCF expec      <3.1 Singlet|LZLZ|3.1 Singlet>     2.289198537980
 !MCSCF expec      <4.1 Singlet|LZLZ|4.1 Singlet>     1.710801886807
 !MCSCF expec      <5.1 Singlet|LZLZ|5.1 Singlet>     1.001223691268
 !MCSCF expec      <6.1 Singlet|LZLZ|6.1 Singlet>     3.998769466288
 !MCSCF expec      <7.1 Singlet|LZLZ|7.1 Singlet>    -0.000000000000
 !MCSCF expec      <1.1 Triplet|LZLZ|1.1 Triplet>     3.990220213018
 !MCSCF expec      <2.1 Triplet|LZLZ|2.1 Triplet>     3.999991136555
 !MCSCF expec      <3.1 Triplet|LZLZ|3.1 Triplet>     1.000004180623
 !MCSCF expec      <4.1 Triplet|LZLZ|4.1 Triplet>     0.999992487503
 !MCSCF expec      <5.1 Triplet|LZLZ|5.1 Triplet>     0.009792694645
 !MCSCF expec      <6.1 Triplet|LZLZ|6.1 Triplet>    -0.000000000000
 !MCSCF expec      <7.1 Triplet|LZLZ|7.1 Triplet>     5.194812471277
 !MCSCF expec      <8.1 Triplet|LZLZ|8.1 Triplet>     4.289111250125
 !MCSCF expec      <9.1 Triplet|LZLZ|9.1 Triplet>     8.880786005318
 !MCSCF expec    <10.1 Triplet|LZLZ|10.1 Triplet>     0.019671315715
 !MCSCF expec    <11.1 Triplet|LZLZ|11.1 Triplet>     3.977382388023
 !MCSCF expec    <12.1 Triplet|LZLZ|12.1 Triplet>     1.122121040166
 !MCSCF expec    <13.1 Triplet|LZLZ|13.1 Triplet>     4.516076859479
 !MCSCF expec    <14.1 Triplet|LZLZ|14.1 Triplet>     0.999999678947
 !MCSCF expec    <15.1 Triplet|LZLZ|15.1 Triplet>     0.000000325371
 !MCSCF expec    <16.1 Triplet|LZLZ|16.1 Triplet>     0.999999995702
 
 !MCSCF expec      <1.1 Singlet|L**2|1.1 Singlet>     0.000000000000
 !MCSCF expec      <2.1 Singlet|L**2|2.1 Singlet>     6.000000000000
 !MCSCF expec      <3.1 Singlet|L**2|3.1 Singlet>     6.000000000000
 !MCSCF expec      <4.1 Singlet|L**2|4.1 Singlet>     6.000000000000
 !MCSCF expec      <5.1 Singlet|L**2|5.1 Singlet>     6.000000000000
 !MCSCF expec      <6.1 Singlet|L**2|6.1 Singlet>     6.000000000000
 !MCSCF expec      <7.1 Singlet|L**2|7.1 Singlet>     0.000000000000
 !MCSCF expec      <1.1 Triplet|L**2|1.1 Triplet>     6.000000000000
 !MCSCF expec      <2.1 Triplet|L**2|2.1 Triplet>     6.000000000000
 !MCSCF expec      <3.1 Triplet|L**2|3.1 Triplet>     6.000000000000
 !MCSCF expec      <4.1 Triplet|L**2|4.1 Triplet>     6.000000000000
 !MCSCF expec      <5.1 Triplet|L**2|5.1 Triplet>     6.000000000000
 !MCSCF expec      <6.1 Triplet|L**2|6.1 Triplet>     0.000000000000
 !MCSCF expec      <7.1 Triplet|L**2|7.1 Triplet>    12.000000000000
 !MCSCF expec      <8.1 Triplet|L**2|8.1 Triplet>    12.000000000000
 !MCSCF expec      <9.1 Triplet|L**2|9.1 Triplet>    12.000000000000
 !MCSCF expec    <10.1 Triplet|L**2|10.1 Triplet>    12.000000000000
 !MCSCF expec    <11.1 Triplet|L**2|11.1 Triplet>    12.000000000000
 !MCSCF expec    <12.1 Triplet|L**2|12.1 Triplet>    12.000000000000
 !MCSCF expec    <13.1 Triplet|L**2|13.1 Triplet>    12.000000000000
 !MCSCF expec    <14.1 Triplet|L**2|14.1 Triplet>     2.000000000000
 !MCSCF expec    <15.1 Triplet|L**2|15.1 Triplet>     2.000000000000
 !MCSCF expec    <16.1 Triplet|L**2|16.1 Triplet>     2.000000000000
 
 EXTRA SYMMETRY OF MOS IN SYMMETRY 1:   1 1 1 5 3 6 4 2 1 5   3 6 4 2 1 5 6 3 4 2   1 1 6 4 5 2 3 1 3 2   5 6 4 1 6 4 3 5 2 1
                                        2 5 6 3 4 1 6 4 3 5   2 6 4 3 5 2 1
 EXTRA SYMMETRY OF MOS IN SYMMETRY 2:   3 1 2 1 2 3 2 1 3 7   9 6 810 5 4 2 1 3 2   1 3 3 2 1 2 1 3 2 1   310 8 5 7 9 6 4 2 1
                                        310 8 5 7 9 4 6 6 7   9 8 510 4 2 1 3 6 7   9 8 510 4 2 1 3
 
  NATURAL ORBITALS (STATE AVERAGED)
  =================================

  Orbital  Occupation    Energy    Cen Mu Typ  Coefficients
    1.1     2.00000 -3845.20302     1  1  s    1.00000
    2.1     2.00000  -712.75356     1  2  s    1.00000
    3.1     2.00000  -179.76338     1  3  s    1.00000
    4.1     2.00000  -118.10016     1  1  d2+  1.00000
    5.1     2.00000  -118.10016     1  1  d2-  1.00000
    6.1     2.00000  -118.10016     1  1  d1-  1.00000
    7.1     2.00000  -118.10016     1  1  d1+  1.00000
    8.1     2.00000  -118.10016     1  1  d0   1.00000
    9.1     2.00000   -45.71636     1  4  s    1.00001
   10.1     2.00000   -23.67104     1  2  d2+  1.00000
   11.1     2.00000   -23.67104     1  2  d2-  1.00000
   12.1     2.00000   -23.67104     1  2  d1-  1.00000
   13.1     2.00000   -23.67104     1  2  d1+  1.00000
   14.1     2.00000   -23.67104     1  2  d0   1.00000
   15.1     2.00000   -10.01147     1  5  s    0.99961
   16.1     2.00000    -2.99091     1  3  d2+  1.00019
   17.1     2.00000    -2.99091     1  3  d1-  1.00019
   18.1     2.00000    -2.99091     1  3  d2-  1.00019
   19.1     2.00000    -2.99091     1  3  d1+  1.00019
   20.1     2.00000    -2.99091     1  3  d0   1.00019
   21.1     2.00000    -1.62163     1  6  s    0.99684
   22.1     1.62102    -0.13590     1  7  s    1.10729
   23.1     0.04996     0.06946     1  4  d1-  0.91069
   24.1     0.04996     0.06946     1  4  d1+  0.91069
   25.1     0.04996     0.06946     1  4  d2+  0.91069
   26.1     0.04996     0.06946     1  4  d0   0.91069
   27.1     0.04996     0.06946     1  4  d2-  0.91069
   28.1     0.01763     0.04449     1  6  s   -0.34038    1  7  s    1.41906    1  9  s    0.96603    1 12  s    0.94717
    1.2     2.00000  -604.12760     1  1  pz   1.00000
    2.2     2.00000  -604.12760     1  1  px   1.00000
    3.2     2.00000  -604.12760     1  1  py   1.00000
    4.2     2.00000  -148.71608     1  2  px   1.00000
    5.2     2.00000  -148.71608     1  2  py   1.00000
    6.2     2.00000  -148.71608     1  2  pz   1.00000
    7.2     2.00000   -35.35430     1  3  py   1.00000
    8.2     2.00000   -35.35430     1  3  px   1.00000
    9.2     2.00000   -35.35430     1  3  pz   1.00000
   10.2     2.00000   -11.19803     1  1  f3+  1.00000
   11.2     2.00000   -11.19803     1  1  f3-  1.00000
   12.2     2.00000   -11.19803     1  1  f0   1.00000
   13.2     2.00000   -11.19803     1  1  f2-  1.00000
   14.2     2.00000   -11.19803     1  1  f2+  1.00000
   15.2     2.00000   -11.19803     1  1  f1-  1.00000
   16.2     2.00000   -11.19803     1  1  f1+  1.00000
   17.2     2.00000    -6.80196     1  4  py   1.00013
   18.2     2.00000    -6.80196     1  4  px   1.00013
   19.2     2.00000    -6.80196     1  4  pz   1.00013
   20.2     2.00000    -0.80501     1  5  py   0.99937
   21.2     2.00000    -0.80501     1  5  px   0.99937
   22.2     2.00000    -0.80501     1  5  pz   0.99937
   23.2     0.03719     0.06366     1  5  pz   0.33473    1  6  pz   0.65451    1  7  pz  -0.58992
   24.2     0.03719     0.06366     1  5  py   0.33473    1  6  py   0.65451    1  7  py  -0.58992
   25.2     0.03719     0.06366     1  5  px   0.33473    1  6  px   0.65451    1  7  px  -0.58992
 
 Natural orbital dump (state averaged) at molpro section 2140.2 (Orbital set 2)
 
 Transform the CI vectors
 
 CI Coefficients of symmetry 1 (Singlet)
 =======================================
 
 2000000 000      0.96647676     -0.00000000      0.00000000     -0.00000000      0.00000000      0.00000000     -0.00500385
 b00000a 000     -0.00019678      0.00000000     -0.00000000     -0.00000000     -0.00000000      0.00000000     -0.68409046
 a00000b 000      0.00019678     -0.00000000      0.00000000      0.00000000      0.00000000     -0.00000000      0.68409046
 a0b0000 000      0.00000000      0.65274216      0.00036170      0.00005286     -0.00002698     -0.00013604     -0.00000000
 b0a0000 000     -0.00000000     -0.65274216     -0.00036170     -0.00005286      0.00002698      0.00013604      0.00000000
 ba00000 000     -0.00000000     -0.00002436      0.00027021     -0.00021201     -0.65260902      0.01318456     -0.00000000
 ab00000 000      0.00000000      0.00002436     -0.00027021      0.00021201      0.65260902     -0.01318456      0.00000000
 b0000a0 000      0.00000000     -0.00013634     -0.00029423     -0.00063190     -0.01318446     -0.65260872     -0.00000000
 a0000b0 000     -0.00000000      0.00013634      0.00029423      0.00063190      0.01318446      0.65260872      0.00000000
 a000b00 000      0.00000000      0.00019648     -0.42688547      0.49380264     -0.00034281     -0.00027879      0.00000000
 b000a00 000     -0.00000000     -0.00019648      0.42688547     -0.49380264      0.00034281      0.00027879     -0.00000000
 a00b000 000      0.00000000     -0.00030833      0.49380258      0.42688522      0.00005292     -0.00063697     -0.00000000
 b00a000 000     -0.00000000      0.00030833     -0.49380258     -0.42688522     -0.00005292      0.00063697      0.00000000
 0000000 002     -0.13447519     -0.00014131      0.24802578      0.04750611      0.00008404     -0.00015949      0.02726927
 0000000 020     -0.13447519      0.00006530     -0.08287131     -0.23854966      0.00004858      0.00026735      0.02726927
 0000000 a0b      0.00000000      0.21870125      0.00012119      0.00001771     -0.00000904     -0.00004558      0.00000000
 0000000 b0a     -0.00000000     -0.21870125     -0.00012119     -0.00001771      0.00000904      0.00004558     -0.00000000
 0000000 ba0      0.00000000     -0.00000816      0.00009053     -0.00007103     -0.21865664      0.00441749     -0.00000000
 0000000 ab0     -0.00000000      0.00000816     -0.00009053      0.00007103      0.21865664     -0.00441749      0.00000000
 0000000 0ab     -0.00000000      0.00004568      0.00009858      0.00021172      0.00441745      0.21865654      0.00000000
 0000000 0ba      0.00000000     -0.00004568     -0.00009858     -0.00021172     -0.00441745     -0.21865654     -0.00000000
 0000000 200     -0.13447519      0.00007602     -0.16515447      0.19104355     -0.00013263     -0.00010786      0.02726926
 0000002 000     -0.02602905     -0.00000000      0.00000000      0.00000000      0.00000000     -0.00000000      0.16184997
 0000ab0 000     -0.00000000     -0.00002502     -0.00005400     -0.00011598     -0.00241981     -0.11977653     -0.00000000
 0000ba0 000      0.00000000      0.00002502      0.00005400      0.00011598      0.00241981      0.11977653      0.00000000
 0200000 000     -0.04689211      0.00006704     -0.11766213     -0.02253665     -0.00003987      0.00007566     -0.08436729
 0020000 000     -0.04689211     -0.00003098      0.03931371      0.11316671     -0.00002305     -0.00012683     -0.08436729
 0b000a0 000      0.00000000     -0.10375073     -0.00005749     -0.00000840      0.00000429      0.00002162      0.00000000
 0a000b0 000     -0.00000000      0.10375073      0.00005749      0.00000840     -0.00000429     -0.00002162     -0.00000000
 00ab000 000      0.00000000      0.10375073      0.00005749      0.00000840     -0.00000429     -0.00002162     -0.00000000
 00ba000 000     -0.00000000     -0.10375073     -0.00005749     -0.00000840      0.00000429      0.00002162      0.00000000
 00a00b0 000      0.00000000      0.00000387     -0.00004295      0.00003370      0.10372956     -0.00209563     -0.00000000
 00b00a0 000     -0.00000000     -0.00000387      0.00004295     -0.00003370     -0.10372956      0.00209563      0.00000000
 0b0a000 000      0.00000000      0.00000387     -0.00004295      0.00003370      0.10372956     -0.00209563     -0.00000000
 0a0b000 000     -0.00000000     -0.00000387      0.00004295     -0.00003370     -0.10372956      0.00209563      0.00000000
 0ab0000 000     -0.00000000      0.00002167      0.00004677      0.00010044      0.00209562      0.10372952      0.00000000
 0ba0000 000      0.00000000     -0.00002167     -0.00004677     -0.00010044     -0.00209562     -0.10372952     -0.00000000
 0000200 000     -0.04689211      0.00003606     -0.07834842      0.09063006     -0.00006292     -0.00005117     -0.08436729
 0000020 000     -0.04689211     -0.00003606      0.07834842     -0.09063006      0.00006292      0.00005117     -0.08436730
 0002000 000     -0.04689211     -0.00003606      0.07834842     -0.09063006      0.00006292      0.00005117     -0.08436729
 000ba00 000      0.00000000     -0.00005659      0.09063005      0.07834837      0.00000971     -0.00011691     -0.00000000
 000ab00 000     -0.00000000      0.00005659     -0.09063005     -0.07834837     -0.00000971      0.00011691      0.00000000
 00a0b00 000     -0.00000000      0.05990051      0.00003319      0.00000485     -0.00000248     -0.00001248     -0.00000000
 00b0a00 000      0.00000000     -0.05990051     -0.00003319     -0.00000485      0.00000248      0.00001248      0.00000000
 0a00b00 000     -0.00000000      0.00000224     -0.00002480      0.00001946      0.05988829     -0.00120991     -0.00000000
 0b00a00 000      0.00000000     -0.00000224      0.00002480     -0.00001946     -0.05988829      0.00120991      0.00000000
 
 Energy:     -24984.79439016 -24984.71110083 -24984.71110083 -24984.71110083 -24984.71110083 -24984.71110083 -24984.66261341
 
 
 CI Coefficients of symmetry 1 (Triplet)
 =======================================

 State:                1               2               3               4               5               6               7
 a00000a 000     -0.00000000     -0.00000000      0.00000000      0.00000000      0.00000000      1.00000000     -0.00000000
 a0a0000 000     -0.00033191      0.00113570      0.99995545     -0.00013721     -0.00006383     -0.00000000      0.00000000
 a0000a0 000      0.00320986      0.99994958     -0.00113481     -0.00124226     -0.00013646      0.00000000     -0.00000000
 aa00000 000     -0.00025276      0.00124273      0.00013548      0.99994893     -0.00358316     -0.00000000      0.00000000
 a00a000 000      0.99872781     -0.00319826      0.00033835      0.00043355      0.04944237      0.00000000     -0.00000000
 a000a00 000     -0.04944291      0.00029949      0.00004749      0.00356590      0.99872665     -0.00000000     -0.00000000
 0000aa0 000      0.00000000      0.00000000     -0.00000000     -0.00000000     -0.00000000      0.00000000      0.00017546
 000aa00 000     -0.00000000      0.00000000     -0.00000000     -0.00000000     -0.00000000     -0.00000000     -0.44129874
 0aa0000 000      0.00000000      0.00000000      0.00000000     -0.00000000     -0.00000000      0.00000000     -0.00010899
 0a000a0 000      0.00000000      0.00000000     -0.00000000      0.00000000      0.00000000      0.00000000     -0.14918522
 00aa000 000     -0.00000000      0.00000000      0.00000000     -0.00000000     -0.00000000      0.00000000      0.80089037
 0a0a000 000      0.00000000     -0.00000000     -0.00000000     -0.00000000      0.00000000     -0.00000000      0.00037017
 000a0a0 000     -0.00000000     -0.00000000      0.00000000      0.00000000      0.00000000      0.00000000     -0.00005449
 0a00a00 000      0.00000000     -0.00000000     -0.00000000     -0.00000000      0.00000000     -0.00000000      0.00015820
 00a0a00 000      0.00000000     -0.00000000     -0.00000000      0.00000000      0.00000000     -0.00000000      0.37626211
 00a00a0 000      0.00000000     -0.00000000      0.00000000     -0.00000000      0.00000000      0.00000000      0.00064418
 0000000 aa0      0.00000000     -0.00000000     -0.00000000     -0.00000000      0.00000000      0.00000000     -0.00000000
 0000000 a0a      0.00000000     -0.00000000     -0.00000000      0.00000000      0.00000000      0.00000000     -0.00000002
 0000000 0aa     -0.00000000     -0.00000000     -0.00000000      0.00000000      0.00000000      0.00000000     -0.00000000
 
 Energy:     -24984.72079125 -24984.72079125 -24984.72079125 -24984.72079125 -24984.72079125 -24984.67610073 -24984.64716507

 State:                8               9              10              11              12              13              14
 a00000a 000      0.00000000     -0.00000000     -0.00000000      0.00000000      0.00000000      0.00000000      0.00000000
 a0a0000 000      0.00000000      0.00000000     -0.00000000      0.00000000     -0.00000000      0.00000000      0.00000000
 a0000a0 000      0.00000000     -0.00000000      0.00000000     -0.00000000     -0.00000000      0.00000000      0.00000000
 aa00000 000      0.00000000     -0.00000000     -0.00000000     -0.00000000      0.00000000      0.00000000      0.00000000
 a00a000 000      0.00000000      0.00000000     -0.00000000      0.00000000      0.00000000      0.00000000      0.00000000
 a000a00 000      0.00000000      0.00000000     -0.00000000      0.00000000     -0.00000000     -0.00000000     -0.00000000
 0000aa0 000     -0.00063587      0.00020536     -0.07003753      0.99702062      0.03230572     -0.00069410      0.00000000
 000aa00 000      0.89735991      0.00042492     -0.00007587      0.00064601     -0.00004425      0.00003911      0.00000000
 0aa0000 000     -0.00002208     -0.00216274      0.89222801      0.06259497      0.00252243      0.00009757     -0.00021209
 0a000a0 000     -0.07340456      0.00061188     -0.00015503      0.00060003     -0.00061046      0.87883695     -0.37430799
 00aa000 000      0.39386022     -0.00052628      0.00010750      0.00008718     -0.00031326     -0.05872280     -0.37430791
 0a0a000 000     -0.00021492      0.76866534      0.00211727      0.01480031     -0.45708777     -0.00081753      0.00000932
 000a0a0 000     -0.00001104     -0.00108137      0.44611399      0.03129748      0.00126122      0.00004878      0.00042418
 0a00a00 000      0.00015987     -0.07718813     -0.00053318     -0.02035019      0.62739717      0.00054355      0.00001614
 00a0a00 000      0.18501514      0.00004942     -0.00002744      0.00039676     -0.00053331      0.47349317      0.64832038
 00a00a0 000      0.00006199      0.63497154      0.00119377     -0.02044725      0.62959606      0.00012394     -0.00000932
 0000000 aa0     -0.00000000      0.00000001      0.00000000      0.00000000     -0.00000002     -0.00000000      0.00001363
 0000000 a0a     -0.00000001      0.00000000     -0.00000000      0.00000000     -0.00000000      0.00000002      0.54723622
 0000000 0aa      0.00000000      0.00000000     -0.00000001     -0.00000000     -0.00000000     -0.00000000      0.00031007
 
 Energy:     -24984.64716507 -24984.64716507 -24984.64716507 -24984.64716507 -24984.64716507 -24984.64716507 -24984.64608657

 State:               15              16
 a00000a 000     -0.00000000     -0.00000000
 a0a0000 000     -0.00000000     -0.00000000
 a0000a0 000      0.00000000      0.00000000
 aa00000 000     -0.00000000      0.00000000
 a00a000 000     -0.00000000     -0.00000000
 a000a00 000      0.00000000     -0.00000000
 0000aa0 000      0.00000000      0.00000000
 000aa00 000     -0.00000000      0.00000000
 0aa0000 000     -0.37430794     -0.00002454
 0a000a0 000      0.00021209      0.00000933
 00aa000 000      0.00021209      0.00000933
 0a0a000 000     -0.00002455      0.37430798
 000a0a0 000      0.74861590      0.00004908
 0a00a00 000     -0.00004251      0.64832051
 00a0a00 000     -0.00036735     -0.00001617
 00a00a0 000      0.00002455     -0.37430800
 0000000 aa0     -0.00003589      0.54723630
 0000000 a0a     -0.00031007     -0.00001365
 0000000 0aa      0.54723622      0.00003588
 
 Energy:     -24984.64608657 -24984.64608657
 


 **********************************************************************************************************************************
 DATASETS  * FILE   NREC   LENGTH (MB)   RECORD NAMES
              1      24      158.74       500      610      700      900      950      970     1000      129      960     1700   
                                          VAR    BASINP    GEOM    SYMINP    ZMAT    AOBASIS   BASIS     P2S    ABASIS    OPER   
                                         1101     1401     1411     1412     1650     1100     1400     1410     1200     1210   
                                          SR      EKINR    POTR     PVPR    MOLCAS      S      EKIN      POT      H0       H01  
                                         1080     1600     1380     1700(1)
                                         AOSYM     SMH     JKOP     OPER   

              2       5        0.94       700     1000      520     2100     2140   
                                         GEOM     BASIS   MCVARS     RHF     MCSCF   

 PROGRAMS   *        TOTAL     MULTI   RHF-SCF       INT
 CPU TIMES  *        22.99      8.11      0.41     14.29
 REAL TIME  *        30.37 SEC
 DISK USED  *       159.79 MB (local),        1.00 GB (total)
 SF USED    *       307.54 MB
 GA USED    *         0.00 MB       (max)       0.00 MB       (current)
 **********************************************************************************************************************************

 Energies and &lt;L**2&gt; values

          ENERGY     LL
    -24984.79439    0.0
    -24984.71110    6.0
    -24984.71110    6.0
    -24984.71110    6.0
    -24984.71110    6.0
    -24984.71110    6.0
    -24984.66261    0.0
    -24984.72079    6.0
    -24984.72079    6.0
    -24984.72079    6.0
    -24984.72079    6.0
    -24984.72079    6.0
    -24984.67610    0.0
    -24984.64717   12.0
    -24984.64717   12.0
    -24984.64717   12.0
    -24984.64717   12.0
    -24984.64717   12.0
    -24984.64717   12.0
    -24984.64717   12.0
    -24984.64609    2.0
    -24984.64609    2.0
    -24984.64609    2.0
                                                  


 PROGRAM * CI (Multireference internally contracted CI)     Authors: H.-J. Werner, P.J. Knowles, 1987


 Convergence thresholds:  THRVAR = 1.00D-08  THRDEN = 1.00D-06

 Number of optimized states: 7  Roots:    1   2   3   4   5   6   7
 Number of reference states: 7  Roots:    1   2   3   4   5   6   7

 Reference symmetry:                   1   Singlet 
 Number of electrons:                 88
 Maximum number of shells:             5
 Maximum number of spin couplings:    14

 Reference space:       34 conf       34 CSFs
 N elec internal:    29620 conf    75790 CSFs
 N-1 el internal:     9955 conf    31960 CSFs
 N-2 el internal:     1621 conf     5743 CSFs

 Number of electrons in valence space:                     20
 Maximum number of open shell orbitals in reference space:  2
 Maximum number of open shell orbitals in internal spaces:  8


 Number of core orbitals:          34 (  15  19 )
 Number of closed-shell orbitals:   9 (   6   3 )
 Number of active  orbitals:       10 (   7   3 )
 Number of external orbitals:      72 (  29  43 )

 Molecular orbitals read from record     2140.2  Type=MCSCF/NATURAL (state averaged)

 Integral transformation finished. Total CPU:   0.13 sec, npass=  1  Memory used:   1.80 MW


 Number of p-space configurations:  34

 Reference wavefunction optimized for reference space (refopt=1)

 State     Reference Energy 
     1    -24984.79439016
     2    -24984.71110083
     3    -24984.71110083
     4    -24984.71110083
     5    -24984.71110083
     6    -24984.71110083
     7    -24984.66261341

 Number of blocks in overlap matrix:   694   Smallest eigenvalue:  0.72D+00
 Number of N-2 electron functions:     748
 Number of N-1 electron functions:   31960

 Number of internal configurations:                38116
 Number of singly external configurations:       1148936
 Number of doubly external configurations:        976024
 Total number of contracted configurations:      2163076
 Total number of uncontracted configurations:    8644507

 Diagonal Coupling coefficients finished.               Storage:  20307871 words, CPU-Time:     16.73 seconds.
 Energy denominators for pairs finished in 1 passes.    Storage:   1151914 words, CPU-time:      0.10 seconds.

  ITER. STATE  ROOT     SQ.NORM     CORR.ENERGY   TOTAL ENERGY   ENERGY CHANGE       DEN1      VAR(S)    VAR(P)      TIME
    1     1     1     1.00000000     0.00000000-24984.79439016     0.00000000    -0.36065542  0.36D-01  0.59D-01    23.21
    1     2     2     1.00000000     0.00000000-24984.71110083     0.00000000    -0.36729849  0.45D-01  0.63D-01    23.21
    1     3     3     1.00000000     0.00000000-24984.71110083     0.00000000    -0.36711663  0.45D-01  0.63D-01    23.21
    1     4     4     1.00000000     0.00000000-24984.71110083     0.00000000    -0.36709240  0.45D-01  0.63D-01    23.21
    1     5     5     1.00000000     0.00000000-24984.71110083     0.00000000    -0.36723723  0.45D-01  0.63D-01    23.21
    1     6     6     1.00000000     0.00000000-24984.71110083    -0.00000000    -0.36735661  0.46D-01  0.63D-01    23.21
    1     7     7     1.00000000     0.00000000-24984.66261341     0.00000000    -0.36698089  0.62D-01  0.60D-01    23.21
    2     1     1     1.06706663    -0.31772719-24985.11211736    -0.31772719    -0.00629102  0.16D-02  0.67D-03   311.26
    2     2     2     1.07539601    -0.31668084-24985.02778168    -0.31668084    -0.00644172  0.17D-02  0.84D-03   311.26
    2     3     3     1.07542026    -0.31667799-24985.02777883    -0.31667799    -0.00644544  0.17D-02  0.84D-03   311.26
    2     4     4     1.07553579    -0.31664741-24985.02774824    -0.31664741    -0.00648353  0.17D-02  0.85D-03   311.26
    2     5     5     1.07551919    -0.31664120-24985.02774203    -0.31664120    -0.00648987  0.17D-02  0.85D-03   311.26
    2     6     6     1.07554627    -0.31664118-24985.02774201    -0.31664118    -0.00649129  0.17D-02  0.85D-03   311.26
    2     7     7     1.08324247    -0.31685959-24984.97947300    -0.31685959    -0.00846278  0.37D-02  0.11D-02   311.26
    3     1     1     1.06817835    -0.32402665-24985.11841682    -0.00629946    -0.00015207  0.36D-04  0.20D-04   598.70
    3     2     2     1.07414466    -0.32306134-24985.03416217    -0.00638050    -0.00015302  0.34D-04  0.26D-04   598.70
    3     3     3     1.07413886    -0.32306116-24985.03416200    -0.00638317    -0.00015310  0.34D-04  0.26D-04   598.70
    3     4     4     1.07415728    -0.32306017-24985.03416100    -0.00641276    -0.00015425  0.34D-04  0.27D-04   598.70
    3     5     5     1.07415989    -0.32305949-24985.03416033    -0.00641830    -0.00015494  0.34D-04  0.27D-04   598.70
    3     6     6     1.07415871    -0.32305928-24985.03416012    -0.00641810    -0.00015509  0.34D-04  0.27D-04   598.70
    3     7     7     1.07615071    -0.32487699-24984.98749041    -0.00801740    -0.00028469  0.80D-04  0.48D-04   598.70
    4     1     1     1.06901937    -0.32418659-24985.11857675    -0.00015993    -0.00000697  0.36D-05  0.65D-06   881.89
    4     2     2     1.07489720    -0.32322188-24985.03432272    -0.00016054    -0.00000759  0.58D-05  0.67D-06   881.89
    4     3     3     1.07489803    -0.32322183-24985.03432266    -0.00016066    -0.00000764  0.58D-05  0.67D-06   881.89
    4     4     4     1.07489871    -0.32322183-24985.03432266    -0.00016166    -0.00000764  0.58D-05  0.67D-06   881.89
    4     5     5     1.07489426    -0.32322182-24985.03432265    -0.00016232    -0.00000763  0.58D-05  0.67D-06   881.89
    4     6     6     1.07489827    -0.32322177-24985.03432261    -0.00016249    -0.00000768  0.59D-05  0.68D-06   881.89
    4     7     7     1.07639575    -0.32516082-24984.98777423    -0.00028382    -0.00001368  0.86D-05  0.16D-05   881.89
    5     1     1     1.06916005    -0.32419485-24985.11858501    -0.00000826    -0.00000037  0.15D-06  0.41D-07  1161.55
    5     2     2     1.07498655    -0.32323122-24985.03433205    -0.00000933    -0.00000063  0.27D-06  0.86D-07  1161.55
    5     3     3     1.07498615    -0.32323121-24985.03433204    -0.00000938    -0.00000064  0.28D-06  0.87D-07  1161.55
    5     4     4     1.07498680    -0.32323121-24985.03433204    -0.00000938    -0.00000064  0.28D-06  0.87D-07  1161.55
    5     5     5     1.07498704    -0.32323120-24985.03433204    -0.00000939    -0.00000064  0.28D-06  0.87D-07  1161.55
    5     6     6     1.07498670    -0.32323120-24985.03433204    -0.00000943    -0.00000065  0.28D-06  0.87D-07  1161.55
    5     7     7     1.07619641    -0.32517681-24984.98779022    -0.00001599    -0.00000103  0.70D-06  0.11D-06  1161.55
    6     1     1     1.06917534    -0.32419527-24985.11858543    -0.00000042    -0.00000002  0.50D-08  0.24D-08  1440.57
    6     2     2     1.07498921    -0.32323197-24985.03433281    -0.00000076    -0.00000005  0.27D-07  0.62D-08  1440.57
    6     3     3     1.07498919    -0.32323197-24985.03433281    -0.00000076    -0.00000005  0.27D-07  0.62D-08  1440.57
    6     4     4     1.07498904    -0.32323197-24985.03433280    -0.00000076    -0.00000005  0.28D-07  0.64D-08  1440.57
    6     5     5     1.07498908    -0.32323197-24985.03433280    -0.00000077    -0.00000005  0.28D-07  0.64D-08  1440.57
    6     6     6     1.07498898    -0.32323197-24985.03433280    -0.00000077    -0.00000005  0.28D-07  0.64D-08  1440.57
    6     7     7     1.07610378    -0.32517798-24984.98779140    -0.00000118    -0.00000008  0.30D-07  0.13D-07  1440.57
    7     1     1     1.06917883    -0.32419528-24985.11858545    -0.00000001    -0.00000001  0.20D-08  0.11D-08  1686.77
    7     2     2     1.07500329    -0.32323203-24985.03433286    -0.00000006    -0.00000000  0.22D-08  0.44D-09  1686.77
    7     3     3     1.07500328    -0.32323203-24985.03433286    -0.00000006    -0.00000000  0.22D-08  0.45D-09  1686.77
    7     4     4     1.07500323    -0.32323203-24985.03433286    -0.00000006    -0.00000000  0.23D-08  0.46D-09  1686.77
    7     5     5     1.07500321    -0.32323203-24985.03433286    -0.00000006    -0.00000000  0.23D-08  0.46D-09  1686.77
    7     6     6     1.07500321    -0.32323203-24985.03433286    -0.00000006    -0.00000000  0.23D-08  0.46D-09  1686.77
    7     7     7     1.07610105    -0.32517807-24984.98779148    -0.00000008    -0.00000000  0.22D-08  0.96D-09  1686.77


 =====================================
 Analysis of CPU times by interactions
 =====================================

       I      S      P

 I   4.8%
 S   1.0%  72.9%
 P   0.4%  12.6%   4.5%

 Initialization:   1.0%
 Other:            2.8%

 Total CPU:     1686.8 seconds
 =====================================



 Wavefunction saved on  5101.2

 Reference coefficients greater than 0.0500000
 =============================================
 2222222000000222000           0.9334777   0.0000000   0.0000000  -0.0000000   0.0000000  -0.0000000  -0.0599648
 222222/00000\222000           0.0572722   0.0000000   0.0000000  -0.0000000   0.0000000  -0.0000000   0.9243857
 222222/\00000222000           0.0000000  -0.0000000   0.0000000   0.0000000   0.0000000   0.8958659   0.0000000
 222222/0000\0222000          -0.0000000   0.0000000   0.0000000  -0.0000000   0.8958659  -0.0000000  -0.0000000
 222222/0\0000222000           0.0000000  -0.0000000  -0.0000000   0.8958659   0.0000000  -0.0000000   0.0000000
 222222/000\00222000           0.0000000   0.7925135   0.4177297   0.0000000  -0.0000000   0.0000000   0.0000000
 222222/00\000222000          -0.0000000  -0.4177297   0.7925135   0.0000000  -0.0000000  -0.0000000   0.0000000
 2222220000000222/\0           0.0000000  -0.0000000  -0.0000000  -0.0000000  -0.0000000   0.2774687  -0.0000000
 2222220000000222/0\           0.0000000   0.0000000  -0.0000000   0.2774687  -0.0000000  -0.0000000  -0.0000000
 22222200000002220/\           0.0000000  -0.0000000  -0.0000000   0.0000000   0.2774687  -0.0000000   0.0000000
 2222220000000222020          -0.1165809  -0.0087226  -0.2263842   0.0000000   0.0000000  -0.0000000   0.0426446
 2222220000000222200          -0.1165810   0.2004158   0.1056381  -0.0000000  -0.0000000   0.0000000   0.0426446
 2222220000000222002          -0.1165809  -0.1916932   0.1207461   0.0000000   0.0000000   0.0000000   0.0426446
 2222220000002222000          -0.0170733   0.0000000  -0.0000000   0.0000000  -0.0000000   0.0000000   0.1751171
 2222220000/\0222000          -0.0000000   0.0000000   0.0000000  -0.0000000  -0.1602820  -0.0000000  -0.0000000
 222222000/\00222000          -0.0000000   0.0747372  -0.1417908   0.0000000  -0.0000000  -0.0000000   0.0000000
 22222200/\000222000           0.0000000   0.0000000   0.0000000   0.1388083  -0.0000000   0.0000000  -0.0000000
 2222220/\0000222000           0.0000000  -0.0000000  -0.0000000   0.0000000   0.1388082   0.0000000   0.0000000
 22222200/00\0222000           0.0000000   0.0000000  -0.0000000  -0.0000000  -0.0000000   0.1388082  -0.0000000
 2222220/000\0222000           0.0000000   0.0000000   0.0000000   0.1388082  -0.0000000   0.0000000  -0.0000000
 2222220/0\000222000          -0.0000000  -0.0000000   0.0000000   0.0000000   0.0000000  -0.1388082   0.0000000
 2222220020000222000          -0.0489001   0.0043636   0.1132523  -0.0000000   0.0000000  -0.0000000  -0.0756798
 2222220000200222000          -0.0489002   0.1002612   0.0528472  -0.0000000   0.0000000  -0.0000000  -0.0756798
 2222220000020222000          -0.0489001  -0.1002612  -0.0528471   0.0000000  -0.0000000   0.0000000  -0.0756798
 2222220002000222000          -0.0489002  -0.1002611  -0.0528471   0.0000000  -0.0000000  -0.0000000  -0.0756798
 2222220200000222000          -0.0489001   0.0958976  -0.0604051   0.0000000  -0.0000000  -0.0000000  -0.0756798
 22222200/0\00222000           0.0000000   0.0000000   0.0000000   0.0801410  -0.0000000   0.0000000  -0.0000000
 2222220/00\00222000           0.0000000   0.0000000  -0.0000000  -0.0000000  -0.0000000   0.0801410  -0.0000000

 Coefficients of fixed reference functions:
 ==========================================

 State      Coefficients
 1           0.961142    0.000000    0.000000   -0.000000    0.000000   -0.000000    0.059064
 2           0.000000   -0.000000   -0.895149    0.350787   -0.000000    0.000000    0.000000
 3          -0.000000   -0.000000    0.350787    0.895149    0.000000    0.000000    0.000000
 4          -0.000000    0.961428    0.000000    0.000000    0.000000   -0.000000   -0.000000
 5           0.000000    0.000000    0.000000   -0.000000    0.000000    0.961428    0.000000
 6          -0.000000   -0.000000   -0.000000    0.000000    0.961428   -0.000000   -0.000000
 7          -0.061715    0.000000    0.000000    0.000000    0.000000   -0.000000    0.958353

 Coefficients of rotated reference functions:
 ============================================

 State      Coefficients
 1           0.962954   -0.000000   -0.000000    0.000000   -0.000000   -0.000000   -0.001411
 2          -0.000000    0.961428    0.000000   -0.000000   -0.000000   -0.000000    0.000000
 3          -0.000000    0.000000    0.961428   -0.000000   -0.000000    0.000000    0.000000
 4           0.000000   -0.000000   -0.000000    0.961428    0.000000   -0.000000   -0.000000
 5          -0.000000   -0.000000   -0.000000    0.000000    0.961428   -0.000000   -0.000000
 6          -0.000000   -0.000000    0.000000   -0.000000   -0.000000    0.961428   -0.000000
 7          -0.001411    0.000000    0.000000   -0.000000   -0.000000   -0.000000    0.960337

 Energy contributions of internal configurations for state 4
 ===========================================================

   NUMBER        NORM          ECORR1        OCCUPATION

  3282       0.00006982    -1.13606330       2222221010000222000             

 Energy contributions of internal configurations for state 5
 ===========================================================

   NUMBER        NORM          ECORR1        OCCUPATION

  3216       0.00006982    -1.13606415       2222221000010222000             

 Energy contributions of internal configurations for state 6
 ===========================================================

   NUMBER        NORM          ECORR1        OCCUPATION

  3316       0.00006982    -1.13606411       2222221100000222000             


 RESULTS FOR STATE 1.1
 =====================

 Coefficient of reference function:   C(0) = 0.96114177 (fixed)   0.96316237 (relaxed)   0.96295384 (rotated)

 Energy contributions of configuration classes

 CLASS          SQ.NORM        ECORR1        ECORR2
 +++++++++++++++++++++++++++++++++++++++++++++++++++
 Internals    0.00864586   -0.01410941   -0.22233727
 Singles      0.02386540   -0.06749965   -0.06976760
 Pairs        0.04591153   -0.01972500   -0.03209041
 Total        1.07842280   -0.10133406   -0.32419528
 +++++++++++++++++++++++++++++++++++++++++++++++++++


 Reference energy                  -24984.79387048
 Nuclear energy                         0.00000000
 Kinetic energy                     43484.97729518
 One electron energy               -33998.44451560
 Two electron energy                 9013.32593016
 Virial quotient                       -0.57456897
 Correlation energy                    -0.32471496
 !MRCI STATE 1.1 Energy              -24985.1185854456    

 Properties without orbital relaxation:

 !MRCI STATE 1.1 Dipole moment          0.00000000     0.00000000     0.00000000
 Dipole moment /Debye                   0.00000000     0.00000000     0.00000000

 Cluster corrected energies        -24985.14405050 (Davidson, fixed reference)
 Cluster corrected energies        -24985.14389889 (Davidson, relaxed reference)
 Cluster corrected energies        -24985.14405050 (Davidson, rotated reference)

 Cluster corrected energies        -24985.14302273 (Pople, fixed reference)
 Cluster corrected energies        -24985.14286775 (Pople, relaxed reference)
 Cluster corrected energies        -24985.14302273 (Pople, rotated reference)



 RESULTS FOR STATE 2.1
 =====================

 Maximum overlap with reference state  3

 Coefficient of reference function:   C(0) = 0.89514899 (fixed)   0.96184046 (relaxed)   0.96142768 (rotated)

 Energy contributions of configuration classes

 CLASS          SQ.NORM        ECORR1        ECORR2
 +++++++++++++++++++++++++++++++++++++++++++++++++++
 Internals    0.00636834   -0.01011414   -0.23885462
 Singles      0.02726158   -0.06688578   -0.06997112
 Pairs        0.04821935   -0.00000000   -0.01440628
 Total        1.08184927   -0.07699992   -0.32323203
 +++++++++++++++++++++++++++++++++++++++++++++++++++


 Reference energy                  -24984.71110083
 Nuclear energy                         0.00000000
 Kinetic energy                     43484.50647155
 One electron energy               -33999.16695027
 Two electron energy                 9014.13261741
 Virial quotient                       -0.57457325
 Correlation energy                    -0.32323203
 !MRCI STATE 2.1 Energy              -24985.0343328635    

 Properties without orbital relaxation:

 !MRCI STATE 2.1 Dipole moment          0.00000000     0.00000000     0.00000000
 Dipole moment /Debye                   0.00000000     0.00000000     0.00000000

 Cluster corrected energies        -24985.06078917 (Davidson, fixed reference)
 Cluster corrected energies        -24985.06048909 (Davidson, relaxed reference)
 Cluster corrected energies        -24985.06078917 (Davidson, rotated reference)

 Cluster corrected energies        -24985.05979432 (Pople, fixed reference)
 Cluster corrected energies        -24985.05948596 (Pople, relaxed reference)
 Cluster corrected energies        -24985.05979432 (Pople, rotated reference)



 RESULTS FOR STATE 3.1
 =====================

 Maximum overlap with reference state  4

 Coefficient of reference function:   C(0) = 0.89514899 (fixed)   0.96184046 (relaxed)   0.96142768 (rotated)

 Energy contributions of configuration classes

 CLASS          SQ.NORM        ECORR1        ECORR2
 +++++++++++++++++++++++++++++++++++++++++++++++++++
 Internals    0.00636834   -0.01011414   -0.23885463
 Singles      0.02726158   -0.06688577   -0.06997112
 Pairs        0.04821935    0.00000000   -0.01440627
 Total        1.08184927   -0.07699991   -0.32323203
 +++++++++++++++++++++++++++++++++++++++++++++++++++


 Reference energy                  -24984.71110083
 Nuclear energy                         0.00000000
 Kinetic energy                     43484.50646966
 One electron energy               -33999.16694485
 Two electron energy                 9014.13261199
 Virial quotient                       -0.57457325
 Correlation energy                    -0.32323203
 !MRCI STATE 3.1 Energy              -24985.0343328635    

 Properties without orbital relaxation:

[...]
 47  1     8    1  |1 1>-         0.00%    0.00%    0.00%   33.96%    0.00%    0.00%    0.00%    0.00%
 48  1     9    1  |1 1>-         0.00%    0.00%    0.00%    0.00%    0.00%   23.83%    0.00%   30.04%
 49  1    10    1  |1 1>-         0.00%    0.00%    0.00%    0.00%    0.00%   14.28%    0.00%   15.64%
 50  1    11    1  |1 1>-         0.00%    0.00%    1.07%    0.00%   28.36%    0.00%    0.00%    0.00%
 51  1    12    1  |1 1>-         0.00%    0.00%    0.00%    4.16%    0.00%    0.00%    0.00%    0.00%
 52  1    13    1  |1 1>-         0.00%    0.00%    0.00%    0.00%    0.00%    0.00%   23.80%    0.00%
 53  1    14    1  |1 1>-         0.00%    0.00%    0.00%    0.00%    0.00%    0.00%    0.00%    0.00%
 54  1    15    1  |1 1>-         0.16%   33.13%    0.00%    0.00%    0.00%    0.00%    0.00%    0.00%
 55  1    16    1  |1 1>-         0.00%    0.00%    0.00%    0.00%    0.00%    0.00%    0.00%    0.00%

   Total
 Nr Sym  State Sym Spin / Nr.     33       34       35       36       37       38       39       40

  1  1     1    1  |0 0>          0.00%    0.00%    0.00%    0.00%    0.00%    0.00%    0.00%    0.00%
  2  1     2    1  |0 0>          0.00%    0.00%    0.00%    0.00%    0.00%    0.00%    0.00%    0.00%
  3  1     3    1  |0 0>          0.00%    0.00%    0.00%    0.00%    0.00%    0.00%    0.00%    0.00%
  4  1     4    1  |0 0>          0.00%    0.00%    0.00%    0.00%    0.00%    0.00%    0.00%    0.00%
  5  1     5    1  |0 0>          0.00%    0.00%    0.00%    0.00%    0.00%    0.00%    0.00%    0.00%
  6  1     6    1  |0 0>          0.00%    0.00%    0.00%    0.00%    0.00%    0.00%    0.00%    0.00%
  7  1     7    1  |0 0>          0.00%    0.00%    0.00%    0.00%    0.00%    0.00%    0.00%    0.00%
  8  1     1    1  |1 1>+         0.00%    0.00%    0.00%    0.00%    0.00%    0.00%    0.00%    0.00%
  9  1     2    1  |1 1>+         0.00%    0.00%    0.00%    0.00%    0.00%    0.00%    0.00%    0.00%
 10  1     3    1  |1 1>+         0.00%    0.00%    0.00%    0.00%    0.00%    0.00%    0.00%    0.00%
 11  1     4    1  |1 1>+         0.00%    0.00%    0.00%    0.00%    0.00%    0.00%    0.00%    0.00%
 12  1     5    1  |1 1>+         0.00%    0.00%    0.00%    0.00%    0.00%    0.00%    0.00%    0.00%
 13  1     6    1  |1 1>+         0.00%    0.00%    0.00%    0.00%    0.00%    0.00%    0.00%    0.06%
 14  1     7    1  |1 1>+         0.00%    0.00%    0.00%    0.00%    0.37%   15.23%    0.00%    0.00%
 15  1     8    1  |1 1>+         0.00%    9.84%    0.00%    0.00%    0.00%    0.00%    0.00%    0.00%
 16  1     9    1  |1 1>+        30.06%    0.00%    0.00%    3.26%    0.00%    0.00%    0.00%    0.00%
 17  1    10    1  |1 1>+        15.67%    0.00%    0.00%   34.32%    0.00%    0.00%    0.00%    0.00%
 18  1    11    1  |1 1>+         0.00%    0.00%    0.00%    0.00%   49.81%   17.90%    0.00%    0.00%
 19  1    12    1  |1 1>+         0.00%   23.47%    0.00%    0.00%    0.00%    0.00%    0.00%    0.00%
 20  1    13    1  |1 1>+         0.00%    0.00%   33.17%    0.00%    0.00%    0.00%    0.00%    0.00%
 21  1    14    1  |1 1>+         0.00%    0.00%    0.00%    0.00%    0.00%    0.00%    0.00%    0.00%
 22  1    15    1  |1 1>+         0.00%    0.00%    0.00%    0.00%    0.00%    0.00%    0.00%    0.00%
 23  1    16    1  |1 1>+         0.00%    0.00%    0.00%    0.00%    0.00%    0.00%   49.97%    0.00%
 24  1     1    1  |1 0>          0.00%    0.00%    0.00%    0.00%    0.00%    0.00%    0.00%    0.00%
 25  1     2    1  |1 0>          0.00%    0.00%    0.00%    0.00%    0.00%    0.00%    0.00%    0.00%
 26  1     3    1  |1 0>          0.00%    0.00%    0.00%    0.00%    0.00%    0.00%    0.00%    0.00%
 27  1     4    1  |1 0>          0.00%    0.00%    0.00%    0.00%    0.00%    0.00%    0.00%    0.00%
 28  1     5    1  |1 0>          0.00%    0.00%    0.00%    0.00%    0.00%    0.00%    0.00%    0.00%
 29  1     6    1  |1 0>          0.00%    0.00%    0.00%    0.00%    0.00%    0.00%    0.00%    0.00%
 30  1     7    1  |1 0>          0.00%    0.00%   25.29%    0.00%    0.00%    0.00%    0.00%    0.00%
 31  1     8    1  |1 0>         49.22%    0.00%    0.00%   25.34%    0.00%    0.00%    0.00%    0.00%
 32  1     9    1  |1 0>          0.00%   33.37%    0.00%    0.00%    0.00%    0.00%    0.00%    0.00%
 33  1    10    1  |1 0>          0.00%    0.00%    0.00%    0.00%    0.00%    0.00%    0.00%    0.00%
 34  1    11    1  |1 0>          0.00%    0.00%    3.91%    0.00%    0.00%    0.00%    0.00%    0.00%
 35  1    12    1  |1 0>          4.91%    0.00%    0.00%    3.90%    0.00%    0.00%    0.00%    0.00%
 36  1    13    1  |1 0>          0.00%    0.00%    0.00%    0.00%    0.00%   33.38%    0.00%    0.00%
 37  1    14    1  |1 0>          0.00%    0.00%    0.00%    0.00%    0.00%    0.00%   49.97%    0.00%
 38  1    15    1  |1 0>          0.00%    0.00%    0.00%    0.00%    0.00%    0.00%    0.00%   49.97%
 39  1    16    1  |1 0>          0.00%    0.00%    0.00%    0.00%    0.00%    0.00%    0.00%    0.00%
 40  1     1    1  |1 1>-         0.00%    0.00%    0.00%    0.00%    0.00%    0.00%    0.00%    0.00%
 41  1     2    1  |1 1>-         0.00%    0.00%    0.00%    0.00%    0.00%    0.00%    0.00%    0.00%
 42  1     3    1  |1 1>-         0.00%    0.00%    0.00%    0.00%    0.00%    0.00%    0.00%    0.00%
 43  1     4    1  |1 1>-         0.00%    0.00%    0.00%    0.00%    0.00%    0.00%    0.00%    0.00%
 44  1     5    1  |1 1>-         0.00%    0.00%    0.00%    0.00%    0.00%    0.00%    0.00%    0.00%
 45  1     6    1  |1 1>-         0.00%    0.00%    0.00%    0.00%    0.00%    0.00%    0.06%    0.00%
 46  1     7    1  |1 1>-         0.00%    9.85%    0.00%    0.00%    0.00%    0.00%    0.00%    0.00%
 47  1     8    1  |1 1>-         0.00%    0.00%    0.00%    0.00%    0.34%   15.26%    0.00%    0.00%
 48  1     9    1  |1 1>-         0.00%    0.00%    3.27%    0.00%    0.00%    0.00%    0.00%    0.00%
 49  1    10    1  |1 1>-         0.00%    0.00%   34.36%    0.00%    0.00%    0.00%    0.00%    0.00%
 50  1    11    1  |1 1>-         0.00%   23.47%    0.00%    0.00%    0.00%    0.00%    0.00%    0.00%
 51  1    12    1  |1 1>-         0.00%    0.00%    0.00%    0.00%   49.47%   18.24%    0.00%    0.00%
 52  1    13    1  |1 1>-         0.14%    0.00%    0.00%   33.18%    0.00%    0.00%    0.00%    0.00%
 53  1    14    1  |1 1>-         0.00%    0.00%    0.00%    0.00%    0.00%    0.00%    0.00%    0.00%
 54  1    15    1  |1 1>-         0.00%    0.00%    0.00%    0.00%    0.00%    0.00%    0.00%    0.00%
 55  1    16    1  |1 1>-         0.00%    0.00%    0.00%    0.00%    0.00%    0.00%    0.00%   49.97%

   Total
 Nr Sym  State Sym Spin / Nr.     41       42       43       44       45       46       47       48

  1  1     1    1  |0 0>          0.00%    0.00%    0.00%    0.00%    0.00%    0.00%    0.00%    0.00%
  2  1     2    1  |0 0>          0.00%    0.00%    0.00%    0.00%    0.00%    0.00%    0.00%    0.00%
  3  1     3    1  |0 0>          0.00%    0.00%    0.00%    0.00%    0.00%    0.00%    0.00%    0.00%
  4  1     4    1  |0 0>          0.00%    0.00%    0.00%    0.00%    0.00%    0.00%    0.00%    0.00%
  5  1     5    1  |0 0>          0.00%    0.00%    0.00%    0.00%    0.00%    0.00%    0.00%    0.00%
  6  1     6    1  |0 0>          0.00%    0.00%    0.00%    0.00%    0.00%    0.00%    0.00%    0.00%
  7  1     7    1  |0 0>          0.00%    0.00%    0.00%    0.00%    0.00%    0.00%    0.00%    0.00%
  8  1     1    1  |1 1>+         0.00%    0.00%    0.00%    0.00%    0.00%    0.00%    0.00%    0.00%
  9  1     2    1  |1 1>+         0.00%    0.00%    0.00%    0.00%    0.00%    0.00%    0.00%    0.00%
 10  1     3    1  |1 1>+         0.00%    0.00%    0.00%    0.00%    0.00%    0.00%    0.00%    0.00%
 11  1     4    1  |1 1>+         0.00%    0.00%    0.00%    0.00%    0.00%    0.00%    0.00%    0.00%
 12  1     5    1  |1 1>+         0.00%    0.00%    0.00%    0.00%    0.00%    0.00%    0.00%    0.00%
 13  1     6    1  |1 1>+         0.00%    0.00%    0.00%    0.00%    0.00%    0.00%    0.00%    0.00%
 14  1     7    1  |1 1>+         0.00%    0.00%   49.65%    0.00%    0.00%    0.00%    0.80%    0.00%
 15  1     8    1  |1 1>+         0.00%   49.18%    0.00%    0.00%    0.00%    3.12%    0.00%    0.00%
 16  1     9    1  |1 1>+         0.00%    0.00%    0.00%    0.00%   41.14%    0.00%    0.00%    1.72%
 17  1    10    1  |1 1>+         0.00%    0.00%    0.00%    0.00%    0.90%    0.00%    0.00%   34.81%
 18  1    11    1  |1 1>+         0.00%    0.00%    0.36%    0.00%    0.00%    0.00%   27.77%    0.00%
 19  1    12    1  |1 1>+         0.00%    0.03%    0.00%    0.00%    0.00%   25.46%    0.00%    0.00%
 20  1    13    1  |1 1>+         0.00%    0.00%    0.00%   32.24%    0.00%    0.00%    0.00%    0.00%
 21  1    14    1  |1 1>+         0.00%    0.00%    0.00%    0.00%    0.00%    0.00%    0.00%    0.00%
 22  1    15    1  |1 1>+        49.97%    0.00%    0.00%    0.00%    0.00%    0.00%    0.00%    0.00%
 23  1    16    1  |1 1>+         0.00%    0.00%    0.00%    0.00%    0.00%    0.00%    0.00%    0.00%
 24  1     1    1  |1 0>          0.00%    0.00%    0.00%    0.00%    0.00%    0.00%    0.00%    0.00%
 25  1     2    1  |1 0>          0.00%    0.00%    0.00%    0.00%    0.00%    0.00%    0.00%    0.00%
 26  1     3    1  |1 0>          0.00%    0.00%    0.00%    0.00%    0.00%    0.00%    0.00%    0.00%
 27  1     4    1  |1 0>          0.00%    0.00%    0.00%    0.00%    0.00%    0.00%    0.00%    0.00%
 28  1     5    1  |1 0>          0.00%    0.00%    0.00%    0.00%    0.00%    0.00%    0.00%    0.00%
 29  1     6    1  |1 0>          0.06%    0.00%    0.00%    0.00%    0.00%    0.00%    0.00%    0.00%
 30  1     7    1  |1 0>          0.00%    0.00%    0.00%   25.14%    0.00%    0.00%    0.00%    0.00%
 31  1     8    1  |1 0>          0.00%    0.00%    0.00%    0.00%   25.14%    0.00%    0.00%    0.03%
 32  1     9    1  |1 0>          0.00%    0.00%    0.00%    0.00%    0.00%   42.83%    0.00%    0.00%
 33  1    10    1  |1 0>          0.00%    1.58%    0.00%    0.00%    0.00%    0.00%    0.00%    0.00%
 34  1    11    1  |1 0>          0.00%    0.00%    0.00%    0.56%    0.00%    0.00%    0.00%    0.00%
 35  1    12    1  |1 0>          0.00%    0.00%    0.00%    0.00%    0.56%    0.00%    0.00%   52.82%
 36  1    13    1  |1 0>          0.00%    0.00%    0.00%    0.00%    0.00%    0.00%   42.85%    0.00%
 37  1    14    1  |1 0>          0.00%    0.00%    0.00%    0.00%    0.00%    0.00%    0.00%    0.00%
 38  1    15    1  |1 0>          0.00%    0.00%    0.00%    0.00%    0.00%    0.00%    0.00%    0.00%
 39  1    16    1  |1 0>          0.00%    0.00%    0.00%    0.00%    0.00%    0.00%    0.00%    0.00%
 40  1     1    1  |1 1>-         0.00%    0.00%    0.00%    0.00%    0.00%    0.00%    0.00%    0.00%
 41  1     2    1  |1 1>-         0.00%    0.00%    0.00%    0.00%    0.00%    0.00%    0.00%    0.00%
 42  1     3    1  |1 1>-         0.00%    0.00%    0.00%    0.00%    0.00%    0.00%    0.00%    0.00%
 43  1     4    1  |1 1>-         0.00%    0.00%    0.00%    0.00%    0.00%    0.00%    0.00%    0.00%
 44  1     5    1  |1 1>-         0.00%    0.00%    0.00%    0.00%    0.00%    0.00%    0.00%    0.00%
 45  1     6    1  |1 1>-         0.00%    0.00%    0.00%    0.00%    0.00%    0.00%    0.00%    0.00%
 46  1     7    1  |1 1>-         0.00%   49.18%    0.00%    0.00%    0.00%    3.12%    0.00%    0.00%
 47  1     8    1  |1 1>-         0.00%    0.00%   49.64%    0.00%    0.00%    0.00%    0.80%    0.00%
 48  1     9    1  |1 1>-         0.00%    0.00%    0.00%   41.15%    0.00%    0.00%    0.00%    0.00%
 49  1    10    1  |1 1>-         0.00%    0.00%    0.00%    0.91%    0.00%    0.00%    0.00%    0.00%
 50  1    11    1  |1 1>-         0.00%    0.03%    0.00%    0.00%    0.00%   25.47%    0.00%    0.00%
 51  1    12    1  |1 1>-         0.00%    0.00%    0.35%    0.00%    0.00%    0.00%   27.78%    0.00%
 52  1    13    1  |1 1>-         0.00%    0.00%    0.00%    0.00%   32.26%    0.00%    0.00%   10.62%
 53  1    14    1  |1 1>-        49.97%    0.00%    0.00%    0.00%    0.00%    0.00%    0.00%    0.00%
 54  1    15    1  |1 1>-         0.00%    0.00%    0.00%    0.00%    0.00%    0.00%    0.00%    0.00%
 55  1    16    1  |1 1>-         0.00%    0.00%    0.00%    0.00%    0.00%    0.00%    0.00%    0.00%

   Total
 Nr Sym  State Sym Spin / Nr.     49       50       51       52       53       54       55

  1  1     1    1  |0 0>          0.00%    0.00%    0.00%    0.00%    0.00%    0.00%    0.00%
  2  1     2    1  |0 0>          0.00%    0.00%    0.04%    0.00%    0.13%    0.00%    0.00%
  3  1     3    1  |0 0>          0.00%    0.00%    0.13%    0.00%    0.04%    0.00%    0.00%
  4  1     4    1  |0 0>          0.00%    0.00%    0.00%    0.00%    0.00%    0.17%    0.00%
  5  1     5    1  |0 0>          0.00%    0.00%    0.00%    0.17%    0.00%    0.00%    0.00%
  6  1     6    1  |0 0>          0.00%    0.00%    0.00%    0.00%    0.00%    0.00%    0.17%
  7  1     7    1  |0 0>          0.00%    0.00%    0.00%    0.00%    0.00%    0.00%    0.00%
  8  1     1    1  |1 1>+         0.00%    0.00%    0.00%    0.00%    0.00%    0.00%    0.00%
  9  1     2    1  |1 1>+         0.00%    0.00%    0.00%    0.00%    0.00%    0.00%    0.00%
 10  1     3    1  |1 1>+         0.00%    0.00%    0.00%    0.00%    0.00%    0.00%    0.00%
 11  1     4    1  |1 1>+         0.00%    0.00%    0.00%    0.00%    0.00%    0.00%    0.00%
 12  1     5    1  |1 1>+         0.00%    0.00%    0.00%    0.00%    0.00%    0.00%    0.00%
 13  1     6    1  |1 1>+         0.00%    0.00%    0.00%    0.00%    0.00%    0.00%    0.00%
 14  1     7    1  |1 1>+         0.00%    0.00%    0.00%    0.00%    0.00%    0.00%    0.00%
 15  1     8    1  |1 1>+         0.00%    0.62%    0.00%    0.00%    0.00%    0.00%    0.00%
 16  1     9    1  |1 1>+         0.00%    0.00%    0.00%    0.00%    0.00%    0.00%    0.00%
 17  1    10    1  |1 1>+         0.00%    0.00%    0.00%    0.00%    0.00%    0.00%    0.00%
 18  1    11    1  |1 1>+         0.00%    0.00%    0.00%    0.00%    0.00%    0.00%    0.00%
 19  1    12    1  |1 1>+         0.00%   21.61%    0.00%    0.00%    0.00%    0.00%    0.00%
 20  1    13    1  |1 1>+        10.65%    0.00%    0.00%    0.00%    0.00%    0.00%    0.00%
 21  1    14    1  |1 1>+         0.00%    0.00%   49.84%    0.00%   16.72%    0.00%    0.00%
 22  1    15    1  |1 1>+         0.00%    0.00%    0.00%   49.92%    0.00%    0.00%    0.00%
 23  1    16    1  |1 1>+         0.00%    0.00%    0.00%    0.00%    0.00%    0.00%   49.92%
 24  1     1    1  |1 0>          0.00%    0.00%    0.00%    0.00%    0.00%    0.00%    0.00%
 25  1     2    1  |1 0>          0.00%    0.00%    0.00%    0.00%    0.00%    0.00%    0.00%
 26  1     3    1  |1 0>          0.00%    0.00%    0.00%    0.00%    0.00%    0.00%    0.00%
 27  1     4    1  |1 0>          0.00%    0.00%    0.00%    0.00%    0.00%    0.00%    0.00%
 28  1     5    1  |1 0>          0.00%    0.00%    0.00%    0.00%    0.00%    0.00%    0.00%
 29  1     6    1  |1 0>          0.00%    0.00%    0.00%    0.00%    0.00%    0.00%    0.00%
 30  1     7    1  |1 0>          0.04%    0.00%    0.00%    0.00%    0.00%    0.00%    0.00%
 31  1     8    1  |1 0>          0.00%    0.00%    0.00%    0.00%    0.00%    0.00%    0.00%
 32  1     9    1  |1 0>          0.00%    0.00%    0.00%    0.00%    0.00%    0.00%    0.00%
 33  1    10    1  |1 0>          0.00%   55.56%    0.00%    0.00%    0.00%    0.00%    0.00%
 34  1    11    1  |1 0>         52.81%    0.00%    0.00%    0.00%    0.00%    0.00%    0.00%
 35  1    12    1  |1 0>          0.00%    0.00%    0.00%    0.00%    0.00%    0.00%    0.00%
 36  1    13    1  |1 0>          0.00%    0.00%    0.00%    0.00%    0.00%    0.00%    0.00%
 37  1    14    1  |1 0>          0.00%    0.00%    0.00%    0.00%    0.00%    0.00%   49.91%
 38  1    15    1  |1 0>          0.00%    0.00%    0.00%    0.00%    0.00%   49.91%    0.00%
 39  1    16    1  |1 0>          0.00%    0.00%    0.00%    0.00%   66.55%    0.00%    0.00%
 40  1     1    1  |1 1>-         0.00%    0.00%    0.00%    0.00%    0.00%    0.00%    0.00%
 41  1     2    1  |1 1>-         0.00%    0.00%    0.00%    0.00%    0.00%    0.00%    0.00%
 42  1     3    1  |1 1>-         0.00%    0.00%    0.00%    0.00%    0.00%    0.00%    0.00%
 43  1     4    1  |1 1>-         0.00%    0.00%    0.00%    0.00%    0.00%    0.00%    0.00%
 44  1     5    1  |1 1>-         0.00%    0.00%    0.00%    0.00%    0.00%    0.00%    0.00%
 45  1     6    1  |1 1>-         0.00%    0.00%    0.00%    0.00%    0.00%    0.00%    0.00%
 46  1     7    1  |1 1>-         0.00%    0.62%    0.00%    0.00%    0.00%    0.00%    0.00%
 47  1     8    1  |1 1>-         0.00%    0.00%    0.00%    0.00%    0.00%    0.00%    0.00%
 48  1     9    1  |1 1>-         1.70%    0.00%    0.00%    0.00%    0.00%    0.00%    0.00%
 49  1    10    1  |1 1>-        34.81%    0.00%    0.00%    0.00%    0.00%    0.00%    0.00%
 50  1    11    1  |1 1>-         0.00%   21.59%    0.00%    0.00%    0.00%    0.00%    0.00%
 51  1    12    1  |1 1>-         0.00%    0.00%    0.00%    0.00%    0.00%    0.00%    0.00%
 52  1    13    1  |1 1>-         0.00%    0.00%    0.00%    0.00%    0.00%    0.00%    0.00%
 53  1    14    1  |1 1>-         0.00%    0.00%    0.00%   49.92%    0.00%    0.00%    0.00%
 54  1    15    1  |1 1>-         0.00%    0.00%   49.99%    0.00%   16.56%    0.00%    0.00%
 55  1    16    1  |1 1>-         0.00%    0.00%    0.00%    0.00%    0.00%   49.92%    0.00%


 No matrix element <i|DMX|i> larger than 5E-7
 No matrix element <i|DMX|1> larger than 5E-7

 No matrix element <i|DMY|i> larger than 5E-7
 No matrix element <i|DMY|1> larger than 5E-7

 No matrix element <i|DMZ|i> larger than 5E-7
 No matrix element <i|DMZ|1> larger than 5E-7


 **********************************************************************************************************************************
 DATASETS  * FILE   NREC   LENGTH (MB)   RECORD NAMES
              1      24      450.08       500      610      700      900      950      970     1000      129      960     1700   
                                          VAR    BASINP    GEOM    SYMINP    ZMAT    AOBASIS   BASIS     P2S    ABASIS    OPER   
                                         1101     1401     1411     1412     1650     1100     1400     1410     1200     1210   
                                          SR      EKINR    POTR     PVPR    MOLCAS      S      EKIN      POT      H0       H01  
                                         1080     1600     1380     1700(1)
                                         AOSYM     SMH     JKOP     OPER   

              2       7      598.17       700     1000      520     2100     2140     5101     5103   
                                         GEOM     BASIS   MCVARS     RHF     MCSCF    MRCI     MRCI   

 PROGRAMS   *        TOTAL        CI     LSINT        CI        CI     MULTI   RHF-SCF       INT
 CPU TIMES  *     30544.29  18996.25    314.62   9448.14   1762.25      8.11      0.41     14.29
 REAL TIME  *     30775.77 SEC
 DISK USED  *       757.11 MB (local),        5.47 GB (total)
 SF USED    *         5.02 GB
 GA USED    *         0.00 MB       (max)       0.00 MB       (current)
 **********************************************************************************************************************************

 CI/aug-cc-pWCVTZ-X2C energy= -24984.988554528132

              CI              CI           MULTI         RHF-SCF
 -24984.96718393 -24984.98779148 -24984.64716507 -24984.45070732
 **********************************************************************************************************************************
 Molpro calculation terminated with 1 warning(s)
