
 Working directory              : /wrk/irikura/molpro.77N836i03s/
 Global scratch directory       : /wrk/irikura/molpro.77N836i03s/
 Wavefunction directory         : /home/irikura/wfu/
 Main file repository           : /wrk/irikura/molpro.77N836i03s/

 id        : nistki

 Nodes            nprocs
 pn112695.nist.gov    8
 GA implementation: MPI file
 GA implementation (serial work in mppx): MPI file

 Using customized tuning parameters: mindgm=1; mindgv=20; mindgc=4; mindgr=1; noblas=0; minvec=7
 default implementation of scratch files=sf  


 Variables initialized (1040), CPU time= 0.01 sec
 ***,At SO-CI
                                                                                 ! active space (5/6)
                                                                                 ! additional diffuse spdf functions
 memory,3000,M;
 
 gprint,orbitals,civector;
                                                                                 !gthresh,energy=1.d-10,coeff=1.d-8;
 
 symmetry,xyz
 geometry={At};
 
 basis={
 ecp,at,ECP60MDF;
 spdfg,at,aug-cc-pwCVTZ-PP;C; spdf,1,even,nprim=1,ratio=3.0;
 }
 
 {rhf;wf,charge=-1}
 
 NDOUB=3
 NQUAR=8
 
 {multi
     occ,7,9
     closed,7,3
     wf,charge=0,sym=2,spin=1;state,NDOUB;
     wf,charge=0,sym=2,spin=3;state,NQUAR;
     expec2,lxx,lyy,lzz;
 }
 table, energy, ll
 title, Energies and &lt;L**2&gt; values
 
 core,0,0
 
 {ci;wf,sym=2,spin=1;state,NDOUB; save,5203.2}
 hlsdiag = energd4
 {ci;wf,sym=2,spin=3;state,NQUAR; save,5303.2}
 hlsdiag(NDOUB+1) = energd4
 
 table,hlsdiag
 
 {ci;hlsmat,ecp,5203.2,5303.2;print,vls=0,hls=0}                                 !compute and diagonalize SO matrix
 Commands initialized (846), CPU time= 0.02 sec, 717 directives.
 Default parameters read. Elapsed time= 0.13 sec

 Checking input...
 Passed
1


                                         ***  PROGRAM SYSTEM MOLPRO  ***
                                       Copyright, TTI GmbH Stuttgart, 2015
                                    Version 2023.2 linked Fri Sep 22 03:27:09 2023


 **********************************************************************************************************************************
 LABEL *   At SO-CI                                                                                                                                                      
  (32 PROC) 64 bit mpp version                                                           DATE: 03-Dec-24          TIME: 10:29:13  
 **********************************************************************************************************************************

 SHA1:             3c61bfe44d37c8635c785372c339f5cbdd4e4b59
 **********************************************************************************************************************************

 Memory per process:      3000 MW
 Total memory per node:  24000 MW

 GA preallocation disabled
 GA check disabled

 Variable memory set to 3000.0 MW


 ZSYMEL=XYZ

 SETTING BASIS          =    USERDEF


 Recomputing integrals since basis changed


 Using spherical harmonics

 Library entry At   ECP ECP60MDF                 selected for group  1
 Library entry AT     S AUG-CC-PWCVTZ-PP     selected for orbital group  1
 Even tempered At S diffuse               selected for group 1    nprim= 1    centre=  0.013    ratio= 3.000    dratio= 1.000
 Library entry AT     P AUG-CC-PWCVTZ-PP     selected for orbital group  1
 Even tempered At P diffuse               selected for group 1    nprim= 1    centre=  0.012    ratio= 3.000    dratio= 1.000
 Library entry AT     D AUG-CC-PWCVTZ-PP     selected for orbital group  1
 Even tempered At D diffuse               selected for group 1    nprim= 1    centre=  0.023    ratio= 3.000    dratio= 1.000
 Library entry AT     F AUG-CC-PWCVTZ-PP     selected for orbital group  1
 Even tempered At F diffuse               selected for group 1    nprim= 1    centre=  0.057    ratio= 3.000    dratio= 1.000
 Library entry AT     G AUG-CC-PWCVTZ-PP     selected for orbital group  1


 PROGRAM * SEWARD (Integral evaluation for generally contracted gaussian basis sets)     Author: Roland Lindh, 1990

 Geometry written to block  1 of record 700

 Orientation using atomic masses  
 Molecule type: Atom
 User-specified symmetry elements: XYZ
 Symmetry elements: XYZ
 Rotational constants:       0.0000000      0.0000000      0.0000000 GHz  (calculated with average atomic masses)

 Point group  Ci  



 ATOMIC COORDINATES

 NR  ATOM    CHARGE       X              Y              Z

   1  AT     25.00    0.000000000    0.000000000    0.000000000

 NUCLEAR CHARGE:                   25
 NUMBER OF PRIMITIVE AOS:         198
 NUMBER OF SYMMETRY AOS:          165
 NUMBER OF CONTRACTIONS:          112   (   53Ag  +   59Au  )
 NUMBER OF INNER CORE ORBITALS:     0   (    0Ag  +    0Au  )
 NUMBER OF OUTER CORE ORBITALS:     9   (    6Ag  +    3Au  )
 NUMBER OF VALENCE ORBITALS:        4   (    1Ag  +    3Au  )


 LX: Ag           LY: Ag           LZ: Ag 


 NUCLEAR REPULSION ENERGY    0.00000000

 EXTRA SYMMETRY OF AOS IN SYMMETRY 1:   1 1 1 1 1 1 1 1 1 2   3 4 5 6 2 3 4 5 6 2   3 4 5 6 2 3 4 5 6 2   3 4 5 6 2 3 4 5 6 2
                                        3 4 5 6 7 8 9101112  131415
 EXTRA SYMMETRY OF AOS IN SYMMETRY 2:   1 2 3 1 2 3 1 2 3 1   2 3 1 2 3 1 2 3 1 2   3 1 2 3 4 5 6 7 8 9  10 4 5 6 7 8 910 4 5
                                        6 7 8 910 4 5 6 7 8   910 4 5 6 7 8 910


 Eigenvalues of metric

         1 0.326E-04 0.122E-02 0.526E-02 0.686E-02 0.686E-02 0.686E-02 0.686E-02 0.686E-02
         2 0.389E-02 0.389E-02 0.389E-02 0.830E-02 0.830E-02 0.830E-02 0.546E-01 0.546E-01


 Contracted 2-electron integrals neglected if value below      1.0D-12
 AO integral compression algorithm  1   Integral accuracy      1.0D-12

     29.098 MB (compressed) written to integral file ( 17.0%)

     Node minimum: 2.621 MB, node maximum: 5.243 MB


 NUMBER OF SORTED TWO-ELECTRON INTEGRALS:    1272449.     BUFFER LENGTH:  32768
 NUMBER OF SEGMENTS:   1  SEGMENT LENGTH:    1272449      RECORD LENGTH: 524288

 Memory used in sort:       1.83 MW

 SORT1 READ    21109381. AND WROTE      252985. INTEGRALS IN      1 RECORDS. CPU TIME:     0.11 SEC, REAL TIME:     0.11 SEC
 SORT2 READ     2032599. AND WROTE    10190541. INTEGRALS IN    104 RECORDS. CPU TIME:     0.04 SEC, REAL TIME:     0.05 SEC

 Node minimum:     1271881.  Node maximum:     1277544. integrals

 OPERATOR DM      FOR CENTER  0  COORDINATES:    0.000000    0.000000    0.000000


 **********************************************************************************************************************************
 DATASETS  * FILE   NREC   LENGTH (MB)   RECORD NAMES
              1      19       28.94       500      610      700      900      950      970     1000      129      960     1100   
                                          VAR    BASINP    GEOM    SYMINP    ZMAT    AOBASIS   BASIS     P2S    ABASIS      S 
                                         1400     1410     1420     1200     1210     1080     1700     1600     1650   
                                           T        V       ECP      H0       H01     AOSYM    OPER      SMH    MOLCAS    

 PROGRAMS   *        TOTAL       INT
 CPU TIMES  *         1.67      1.42
 REAL TIME  *         3.38 SEC
 DISK USED  *        29.28 MB (local),      279.81 MB (total)
 GA USED    *         0.00 MB       (max)       0.00 MB       (current)
 **********************************************************************************************************************************


 Program * Restricted Hartree-Fock

 Orbital guess generated from atomic densities.

 Initial occupancy:   7   6

 NELEC=   26   SYM=1   MS2= 0   THRE=1.0D-08   THRD=3.2D-06   THRG=3.2D-06  HFMA2=F  DIIS_START=2   DIIS_MAX=10   DIIS_INCORE=F

 Level shifts:    0.00 (CLOSED)    0.00 (OPEN)    0.30 (GAP_MIN)

 ITER           ETOT              DE          GRAD        DDIFF     DIIS  NEXP   TIME(IT)  TIME(TOT)  DIAG
   1     -261.41291773    -261.41291773     0.00D+00     0.13D+00     0     0       0.01      0.03    start
   2     -261.43588930      -0.02297157     0.44D-02     0.13D-01     1     0       0.01      0.04    diag
   3     -261.43822845      -0.00233915     0.26D-02     0.22D-02     2     0       0.00      0.04    diag
   4     -261.43862700      -0.00039855     0.44D-03     0.99D-03     3     0       0.01      0.05    diag
   5     -261.43869302      -0.00006602     0.15D-03     0.60D-03     4     0       0.01      0.06    diag
   6     -261.43869802      -0.00000501     0.32D-04     0.18D-03     5     0       0.01      0.07    diag
   7     -261.43869823      -0.00000021     0.54D-05     0.35D-04     6     0       0.01      0.08    diag
   8     -261.43869824      -0.00000001     0.12D-05     0.12D-04     7     0       0.00      0.08    fixocc
   9     -261.43869824      -0.00000000     0.11D-06     0.52D-06     8     0       0.01      0.09    diag
  10     -261.43869824      -0.00000000     0.26D-07     0.65D-07     0     0       0.01      0.10    diag/orth

 Final occupancy:   7   6

 !RHF STATE 1.1 Energy               -261.438698241382
  RHF One-electron energy            -461.392278900984
  RHF Two-electron energy             199.953580659601
  RHF Kinetic energy                   82.729407290141
  RHF Nuclear energy                    0.000000000000
  RHF Virial quotient                  -3.160166460815

 !RHF STATE 1.1 Dipole moment           0.00000000     0.00000000     0.00000000
 Dipole moment /Debye                   0.00000000     0.00000000     0.00000000

 ELECTRON ORBITALS
 =================

  Orbital  Occupation    Energy    Cen Mu Typ  Coefficients
    1.1     2.00000    -7.53208     1  1  s    1.00132
    2.1     2.00000    -1.54351     1  1  d0   0.99967
    3.1     2.00000    -1.54351     1  1  d1+ -0.59881    1  1  d1-  0.78642
    4.1     2.00000    -1.54351     1  1  d1+  0.73645    1  1  d2+  0.37759    1  1  d1-  0.50831
    5.1     2.00000    -1.54351     1  1  d2-  0.72918    1  1  d2+ -0.66448
    6.1     2.00000    -1.54351     1  1  d2-  0.63960    1  1  d1+ -0.31364    1  1  d2+  0.62884    1  1  d1- -0.31054
    7.1     2.00000    -0.67783     1  2  s    0.97520
    1.2     2.00000    -4.82203     1  1  pz   1.00002
    2.2     2.00000    -4.82203     1  1  py   1.00002
    3.2     2.00000    -4.82203     1  1  px   1.00054
    4.2     2.00000    -0.11633     1  2  px   0.88058
    5.2     2.00000    -0.11633     1  2  py   0.88058
    6.2     2.00000    -0.11633     1  2  pz   0.88058


 HOMO      6.2    -0.116327 =      -3.1654eV
 LUMO      7.2     0.122759 =       3.3404eV
 LUMO-HOMO         0.239086 =       6.5059eV

 Orbitals saved in record  2100.2


 **********************************************************************************************************************************
 DATASETS  * FILE   NREC   LENGTH (MB)   RECORD NAMES
              1      19       28.94       500      610      700      900      950      970     1000      129      960     1100   
                                          VAR    BASINP    GEOM    SYMINP    ZMAT    AOBASIS   BASIS     P2S    ABASIS      S 
                                         1400     1410     1420     1200     1210     1080     1700     1600     1650   
                                           T        V       ECP      H0       H01     AOSYM    OPER      SMH    MOLCAS    

              2       4        0.48       700     1000      520     2100   
                                         GEOM     BASIS   MCVARS     RHF  

 PROGRAMS   *        TOTAL   RHF-SCF       INT
 CPU TIMES  *         1.78      0.10      1.42
 REAL TIME  *         4.08 SEC
 DISK USED  *        29.93 MB (local),      284.97 MB (total)
 GA USED    *         0.00 MB       (max)       0.00 MB       (current)
 **********************************************************************************************************************************
 SETTING NDOUB          =         3.00000000                                  
 SETTING NQUAR          =         8.00000000                                  

 PROGRAM * MULTI (Direct Multiconfiguration SCF)       Authors: P.J. Knowles, H.-J. Werner (1984)
                                                                D.A. Kreplin, P.J. Knowles, H.-J. Werner (2019)

 Number of closed-shell orbitals:  10 (    7    3)
 Number of active  orbitals:        6 (    0    6)
 Number of external orbitals:      96 (   46   50)

 State symmetry 1

 Number of active electrons:   5    Spin symmetry=Doublet   Space symmetry=2
 Number of states:             3
 Number of CSFs:             210   (300 determinants, 300 intermediate states)

 State symmetry 2

 Number of active electrons:   5    Spin symmetry=Quartet   Space symmetry=2
 Number of states:             8
 Number of CSFs:              84   (90 determinants, 90 intermediate states)

 Molecular orbitals read from record     2100.2  Type=RHF/CANONICAL  
 *** IN SYMMETRY 1 ORBITAL  2 SYMMETRY CONTAMINATION OF 0.275D-03 HAS BEEN REMOVED
 *** IN SYMMETRY 1 ORBITAL  3 SYMMETRY CONTAMINATION OF 0.501D+00 HAS BEEN REMOVED
 *** IN SYMMETRY 1 ORBITAL  4 SYMMETRY CONTAMINATION OF 0.604D+00 HAS BEEN REMOVED
 *** IN SYMMETRY 1 ORBITAL  5 SYMMETRY CONTAMINATION OF 0.533D+00 HAS BEEN REMOVED
 *** IN SYMMETRY 1 ORBITAL  6 SYMMETRY CONTAMINATION OF 0.668D+00 HAS BEEN REMOVED

 EXTRA SYMMETRY OF MOS IN SYMMETRY 1:   1 2 6 4 3 5 1 1 4 6   5 3 2 1 4 6 5 3 2 1   3 5 4 6 2 1 4 6 5 3   21514 812 711 91310
                                        6 4 2 3 5 1 2 6 4 5   3 1 1
 *** IN SYMMETRY 2 ORBITAL  1 SYMMETRY CONTAMINATION OF 0.315D-01 HAS BEEN REMOVED
 *** IN SYMMETRY 2 ORBITAL  2 SYMMETRY CONTAMINATION OF 0.315D-01 HAS BEEN REMOVED
 *** IN SYMMETRY 2 ORBITAL  4 SYMMETRY CONTAMINATION OF 0.109D-04 HAS BEEN REMOVED
 *** IN SYMMETRY 2 ORBITAL  5 SYMMETRY CONTAMINATION OF 0.159D-02 HAS BEEN REMOVED
 *** IN SYMMETRY 2 ORBITAL  6 SYMMETRY CONTAMINATION OF 0.159D-02 HAS BEEN REMOVED
 *** IN SYMMETRY 2 ORBITAL  8 SYMMETRY CONTAMINATION OF 0.758D-04 HAS BEEN REMOVED
 *** IN SYMMETRY 2 ORBITAL  9 SYMMETRY CONTAMINATION OF 0.758D-04 HAS BEEN REMOVED
 EXTRA SYMMETRY OF MOS IN SYMMETRY 2:   3 2 1 1 2 3 1 2 3 1   2 3 810 7 9 5 4 6 3   1 2 9 7 6 5 4 810 7   9 5 4 6 810 3 1 2 7
                                        9 5 4 610 8 5 4 810   7 9 6 3 2 1 3 2 1

 Wavefunction dump at record             2140.2

 Convergence thresholds  0.10E-04 (gradient)  0.10E-05 (energy)

 Weight factors for state symmetry  1:    0.09091   0.09091   0.09091
 Weight factors for state symmetry  2:    0.09091   0.09091   0.09091   0.09091   0.09091   0.09091   0.09091   0.09091
 
 Number of orbital rotations:  790  ( 18 closed/active, 472 closed/virtual, 0 active/active, 300 active/virtual )
 Total number of variables:    2410
 
 Second-order MCSCF: L-BFGS accelerated
 
 ITER  MIC  NCI  NEG     ENERGY(VAR)    ENERGY(PROJ) ENERGY CHANGE       GRAD(0)  GRAD(ORB)   GRAD(CI)      STEP      TIME
   1    7   12    0   -261.07652860    -261.17189223   -0.09536363    0.35090582 0.00010547 0.00000000  0.10E+01      0.83
   2    7   12    0   -261.16786496    -261.16817157   -0.00030661    0.02075959 0.00000424 0.00000000  0.52E-01      1.71
   3    4    8    0   -261.16817262    -261.16817263   -0.00000001    0.00012661 0.00000040 0.00000000  0.40E-03      2.31
   4    2    4    0   -261.16817263    -261.16817263    0.00000000    0.00000001 0.00000000 0.00000000  0.52E-07      2.66

 CONVERGENCE REACHED!  Final gradient:    0.00000006 ( 0.61E-07)
                       Final energy:   -261.16817263
 
 Results for state 1.2 Doublet
 =============================
 !MCSCF STATE 1.2 Doublet Energy              -261.346445595727
 Nuclear energy                                  0.00000000
 Kinetic energy                                 83.09446915
 One electron energy                          -455.52577159
 Two electron energy                           194.17932600
 Virial ratio                                    4.14517258
 
 !MCSCF STATE 1.2 Doublet Dipole moment          0.00000000     0.00000000     0.00000000
 Dipole moment /Debye                            0.00000000     0.00000000     0.00000000
 
 Results for state 2.2 Doublet
 =============================
 !MCSCF STATE 2.2 Doublet Energy              -261.346445595702
 Nuclear energy                                  0.00000000
 Kinetic energy                                 83.09446915
 One electron energy                          -455.52577160
 Two electron energy                           194.17932600
 Virial ratio                                    4.14517258
 
 !MCSCF STATE 2.2 Doublet Dipole moment          0.00000000     0.00000000     0.00000000
 Dipole moment /Debye                            0.00000000     0.00000000     0.00000000
 
 Results for state 3.2 Doublet
 =============================
 !MCSCF STATE 3.2 Doublet Energy              -261.346445595696
 Nuclear energy                                  0.00000000
 Kinetic energy                                 83.09446915
 One electron energy                          -455.52577160
 Two electron energy                           194.17932600
 Virial ratio                                    4.14517258
 
 !MCSCF STATE 3.2 Doublet Dipole moment          0.00000000     0.00000000     0.00000000
 Dipole moment /Debye                            0.00000000     0.00000000     0.00000000
 
 Results for state 1.2 Quartet
 =============================
 !MCSCF STATE 1.2 Quartet Energy              -261.104931185605
 Nuclear energy                                  0.00000000
 Kinetic energy                                 82.32774299
 One electron energy                          -449.23603643
 Two electron energy                           188.13110524
 Virial ratio                                    4.17153030
 
 !MCSCF STATE 1.2 Quartet Dipole moment          0.00000000     0.00000000     0.00000000
 Dipole moment /Debye                            0.00000000     0.00000000     0.00000000
 
 Results for state 2.2 Quartet
 =============================
 !MCSCF STATE 2.2 Quartet Energy              -261.104931185604
 Nuclear energy                                  0.00000000
 Kinetic energy                                 82.32774299
 One electron energy                          -449.23603642
 Two electron energy                           188.13110524
 Virial ratio                                    4.17153030
 
 !MCSCF STATE 2.2 Quartet Dipole moment          0.00000000     0.00000000     0.00000000
 Dipole moment /Debye                            0.00000000     0.00000000     0.00000000
 
 Results for state 3.2 Quartet
 =============================
 !MCSCF STATE 3.2 Quartet Energy              -261.104931185597
 Nuclear energy                                  0.00000000
 Kinetic energy                                 82.32774299
 One electron energy                          -449.23603643
 Two electron energy                           188.13110525
 Virial ratio                                    4.17153030
 
 !MCSCF STATE 3.2 Quartet Dipole moment          0.00000000     0.00000000     0.00000000
 Dipole moment /Debye                            0.00000000     0.00000000     0.00000000
 
 Results for state 4.2 Quartet
 =============================
 !MCSCF STATE 4.2 Quartet Energy              -261.099153712269
 Nuclear energy                                  0.00000000
 Kinetic energy                                 82.33498637
 One electron energy                          -449.26120148
 Two electron energy                           188.16204777
 Virial ratio                                    4.17118111
 
 !MCSCF STATE 4.2 Quartet Dipole moment          0.00000000     0.00000000     0.00000000
 Dipole moment /Debye                            0.00000000     0.00000000     0.00000000
 
 Results for state 5.2 Quartet
 =============================
 !MCSCF STATE 5.2 Quartet Energy              -261.099153712259
 Nuclear energy                                  0.00000000
 Kinetic energy                                 82.33498637
 One electron energy                          -449.26120148
 Two electron energy                           188.16204777
 Virial ratio                                    4.17118111
 
 !MCSCF STATE 5.2 Quartet Dipole moment          0.00000000     0.00000000     0.00000000
 Dipole moment /Debye                            0.00000000     0.00000000     0.00000000
 
 Results for state 6.2 Quartet
 =============================
 !MCSCF STATE 6.2 Quartet Energy              -261.099153712250
 Nuclear energy                                  0.00000000
 Kinetic energy                                 82.33498637
 One electron energy                          -449.26120148
 Two electron energy                           188.16204777
 Virial ratio                                    4.17118111
 
 !MCSCF STATE 6.2 Quartet Dipole moment          0.00000000     0.00000000     0.00000000
 Dipole moment /Debye                            0.00000000     0.00000000     0.00000000
 
 Results for state 7.2 Quartet
 =============================
 !MCSCF STATE 7.2 Quartet Energy              -261.099153712212
 Nuclear energy                                  0.00000000
 Kinetic energy                                 82.33498637
 One electron energy                          -449.26120149
 Two electron energy                           188.16204778
 Virial ratio                                    4.17118111
 
 !MCSCF STATE 7.2 Quartet Dipole moment          0.00000000     0.00000000     0.00000000
 Dipole moment /Debye                            0.00000000     0.00000000     0.00000000
 
 Results for state 8.2 Quartet
 =============================
 !MCSCF STATE 8.2 Quartet Energy              -261.099153712211
 Nuclear energy                                  0.00000000
 Kinetic energy                                 82.33498637
 One electron energy                          -449.26120149
 Two electron energy                           188.16204778
 Virial ratio                                    4.17118111
 
 !MCSCF STATE 8.2 Quartet Dipole moment          0.00000000     0.00000000     0.00000000
 Dipole moment /Debye                            0.00000000     0.00000000     0.00000000
 
 State-averaged charge density matrix saved on record 2140.2 (density set 1)
 
 No non-zero expectation values
 
 Expectation values for two-electron operators:
 
 ? Warning
 ? Transition properties are only calculated between states of the same symmetry
 ? The problem occurs in mu_properties_expec2

 !MCSCF expec      <1.2 Doublet|LXLX|1.2 Doublet>     0.000000013516
 !MCSCF expec      <2.2 Doublet|LXLX|2.2 Doublet>     1.000000000000
 !MCSCF expec      <3.2 Doublet|LXLX|3.2 Doublet>     0.999999976775
 !MCSCF expec      <1.2 Quartet|LXLX|1.2 Quartet>     0.999999997074
 !MCSCF expec      <2.2 Quartet|LXLX|2.2 Quartet>     1.000000000002
 !MCSCF expec      <3.2 Quartet|LXLX|3.2 Quartet>     0.000000025789
 !MCSCF expec      <4.2 Quartet|LXLX|4.2 Quartet>     0.033199264212
 !MCSCF expec      <5.2 Quartet|LXLX|5.2 Quartet>     0.999999997038
 !MCSCF expec      <6.2 Quartet|LXLX|6.2 Quartet>     1.000000011032
 !MCSCF expec      <7.2 Quartet|LXLX|7.2 Quartet>     3.999999995661
 !MCSCF expec      <8.2 Quartet|LXLX|8.2 Quartet>     3.966786911688
 
 !MCSCF expec      <1.2 Doublet|LYLY|1.2 Doublet>     0.999999986481
 !MCSCF expec      <2.2 Doublet|LYLY|2.2 Doublet>     1.000000000000
 !MCSCF expec      <3.2 Doublet|LYLY|3.2 Doublet>     0.000000023226
 !MCSCF expec      <1.2 Quartet|LYLY|1.2 Quartet>     0.999999793137
 !MCSCF expec      <2.2 Quartet|LYLY|2.2 Quartet>    -0.000000000000
 !MCSCF expec      <3.2 Quartet|LYLY|3.2 Quartet>     0.999999998407
 !MCSCF expec      <4.2 Quartet|LYLY|4.2 Quartet>     3.297679127558
 !MCSCF expec      <5.2 Quartet|LYLY|5.2 Quartet>     3.999999997782
 !MCSCF expec      <6.2 Quartet|LYLY|6.2 Quartet>     0.999999996018
 !MCSCF expec      <7.2 Quartet|LYLY|7.2 Quartet>     0.999999966727
 !MCSCF expec      <8.2 Quartet|LYLY|8.2 Quartet>     0.702263517211
 
 !MCSCF expec      <1.2 Doublet|LZLZ|1.2 Doublet>     1.000000000000
 !MCSCF expec      <2.2 Doublet|LZLZ|2.2 Doublet>    -0.000000000003
 !MCSCF expec      <3.2 Doublet|LZLZ|3.2 Doublet>     0.999999999996
 !MCSCF expec      <1.2 Quartet|LZLZ|1.2 Quartet>     0.000000209789
 !MCSCF expec      <2.2 Quartet|LZLZ|2.2 Quartet>     0.999999999999
 !MCSCF expec      <3.2 Quartet|LZLZ|3.2 Quartet>     0.999999975805
 !MCSCF expec      <4.2 Quartet|LZLZ|4.2 Quartet>     2.669121608246
 !MCSCF expec      <5.2 Quartet|LZLZ|5.2 Quartet>     1.000000005196
 !MCSCF expec      <6.2 Quartet|LZLZ|6.2 Quartet>     3.999999992965
 !MCSCF expec      <7.2 Quartet|LZLZ|7.2 Quartet>     1.000000037628
 !MCSCF expec      <8.2 Quartet|LZLZ|8.2 Quartet>     1.330949571117
 
 !MCSCF expec      <1.2 Doublet|L**2|1.2 Doublet>     1.999999999997
 !MCSCF expec      <2.2 Doublet|L**2|2.2 Doublet>     1.999999999997
 !MCSCF expec      <3.2 Doublet|L**2|3.2 Doublet>     1.999999999997
 !MCSCF expec      <1.2 Quartet|L**2|1.2 Quartet>     2.000000000000
 !MCSCF expec      <2.2 Quartet|L**2|2.2 Quartet>     2.000000000000
 !MCSCF expec      <3.2 Quartet|L**2|3.2 Quartet>     2.000000000000
 !MCSCF expec      <4.2 Quartet|L**2|4.2 Quartet>     6.000000000016
 !MCSCF expec      <5.2 Quartet|L**2|5.2 Quartet>     6.000000000016
 !MCSCF expec      <6.2 Quartet|L**2|6.2 Quartet>     6.000000000016
 !MCSCF expec      <7.2 Quartet|L**2|7.2 Quartet>     6.000000000016
 !MCSCF expec      <8.2 Quartet|L**2|8.2 Quartet>     6.000000000016
 
 EXTRA SYMMETRY OF MOS IN SYMMETRY 1:   1 2 4 6 3 5 1 1 2 4   6 3 5 1 2 4 6 5 3 1   2 4 6 5 3 1 2 4 6 3   5 9 711 81214151310
                                        2 4 6 3 5 1 2 4 6 3   5 1 1
 EXTRA SYMMETRY OF MOS IN SYMMETRY 2:   3 1 2 2 1 3 2 1 3 3   1 2 4 6 5 810 7 9 3   1 2 4 6 5 810 7 9 4   6 510 8 7 9 3 1 2 4
                                        6 510 8 9 7 4 6 5 8  10 7 9 3 1 2 3 1 2
 
  NATURAL ORBITALS (STATE AVERAGED)
  =================================

  Orbital  Occupation    Energy    Cen Mu Typ  Coefficients
    1.1     2.00000    -7.95685     1  1  s    1.00020
    2.1     2.00000    -1.96738     1  1  d0   1.00066
    3.1     2.00000    -1.96738     1  1  d1+  1.00066
    4.1     2.00000    -1.96738     1  1  d1-  1.00066
    5.1     2.00000    -1.96738     1  1  d2-  1.00066
    6.1     2.00000    -1.96738     1  1  d2+  1.00066
    7.1     2.00000    -1.05771     1  2  s    1.02750
    1.2     2.00000    -5.24650     1  1  pz   0.99956
    2.2     2.00000    -5.24650     1  1  px   0.99956
    3.2     2.00000    -5.24650     1  1  py   0.99956
    4.2     1.42241    -0.40054     1  2  py   1.09780
    5.2     1.42241    -0.40054     1  2  px   1.09780
    6.2     1.42240    -0.40054     1  2  pz   1.09780
    7.2     0.24426     0.02012     1  2  py  -0.34174    1  7  py   0.41567    1  8  py   0.76395
    8.2     0.24426     0.02012     1  2  px  -0.34174    1  7  px   0.41567    1  8  px   0.76395
    9.2     0.24426     0.02012     1  2  pz  -0.34174    1  7  pz   0.41567    1  8  pz   0.76395
 
 Natural orbital dump (state averaged) at molpro section 2140.2 (Orbital set 2)
 
 Transform the CI vectors
 
 CI Coefficients of symmetry 2 (Doublet)
 =======================================
 
 22a000        -0.00000020      0.99365556     -0.00000000
 2a2000         0.99365555      0.00000020     -0.00011553
 a22000         0.00011553      0.00000000      0.99365555
 a2a00b         0.00000686      0.00000000      0.05900422
 2aa00b         0.05900422      0.00000001     -0.00000686
 2aa0b0         0.00000001     -0.05900420      0.00000000
 aa20b0         0.00000686      0.00000000      0.05900420
 a2ab00         0.00000001     -0.05900419     -0.00000000
 aa2b00        -0.05900418     -0.00000001      0.00000686
 
 Energy:     -261.34644560   -261.34644560   -261.34644560
 
 
 CI Coefficients of symmetry 2 (Quartet)
 =======================================

 State:              1               2               3               4               5               6               7
 a2a0a0         0.00000000     -0.00000000      0.00000000      0.81196215     -0.00005601      0.00001321      0.00002492
 2aaa00         0.00000000     -0.00000000      0.00000000      0.34165153     -0.00002395      0.00004547      0.00024521
 aa2a00         0.00003822      0.00000028      0.70633134     -0.00000029      0.00000000     -0.00002984      0.70611623
 2aa00a        -0.00003822     -0.00000028     -0.70633134     -0.00000029      0.00000000     -0.00002984      0.70611623
 aa20a0        -0.00032126      0.70633127     -0.00000026      0.00004868      0.70611626     -0.00000028     -0.00000000
 2aa0a0         0.70633127      0.00032126     -0.00003822      0.00000786     -0.00000028     -0.70611626     -0.00002983
 a2a00a        -0.00032126      0.70633126     -0.00000026     -0.00004868     -0.70611627      0.00000028      0.00000000
 a2aa00         0.70633126      0.00032126     -0.00003822     -0.00000786      0.00000028      0.70611627      0.00002983
 aa200a         0.00000000     -0.00000000     -0.00000000      0.47031060     -0.00003207     -0.00003225     -0.00022029
 
 Energy:     -261.10493119   -261.10493119   -261.10493119   -261.09915371   -261.09915371   -261.09915371   -261.09915371

 State:              8
 a2a0a0         0.07428135
 2aaa00         0.74032048
 aa2a00        -0.00023375
 2aa00a        -0.00023375
 aa20a0         0.00000038
 2aa0a0         0.00003975
 a2a00a        -0.00000038
 a2aa00        -0.00003975
 aa200a        -0.66603913
 
 Energy:     -261.09915371
 


 **********************************************************************************************************************************
 DATASETS  * FILE   NREC   LENGTH (MB)   RECORD NAMES
              1      21       39.05       500      610      700      900      950      970     1000      129      960     1100   
                                          VAR    BASINP    GEOM    SYMINP    ZMAT    AOBASIS   BASIS     P2S    ABASIS      S 
                                         1400     1410     1420     1200     1210     1080     1700     1600     1650     1380   
                                           T        V       ECP      H0       H01     AOSYM    OPER      SMH    MOLCAS    JKOP   
                                         1700(1)
                                         OPER   

              2       5        0.83       700     1000      520     2100     2140   
                                         GEOM     BASIS   MCVARS     RHF     MCSCF   

 PROGRAMS   *        TOTAL     MULTI   RHF-SCF       INT
 CPU TIMES  *         4.42      2.64      0.10      1.42
 REAL TIME  *         7.09 SEC
 DISK USED  *        39.97 MB (local),      365.31 MB (total)
 SF USED    *        25.88 MB
 GA USED    *         0.00 MB       (max)       0.00 MB       (current)
 **********************************************************************************************************************************

 Energies and &lt;L**2&gt; values

         ENERGY     LL
    -261.3464456   2.0
    -261.3464456   2.0
    -261.3464456   2.0
    -261.1049312   2.0
    -261.1049312   2.0
    -261.1049312   2.0
    -261.0991537   6.0
    -261.0991537   6.0
    -261.0991537   6.0
    -261.0991537   6.0
    -261.0991537   6.0
                                                  


 PROGRAM * CI (Multireference internally contracted CI)     Authors: H.-J. Werner, P.J. Knowles, 1987


 Convergence thresholds:  THRVAR = 1.00D-08  THRDEN = 1.00D-06

 Number of optimized states: 3  Roots:    1   2   3
 Number of reference states: 3  Roots:    1   2   3

 Reference symmetry:                   2   Doublet 
 Number of electrons:                 25
 Maximum number of shells:             6
 Maximum number of spin couplings:   132

 Reference space:      126 conf      210 CSFs
 N elec internal:     8466 conf    28630 CSFs
 N-1 el internal:     9105 conf    51730 CSFs
 N-2 el internal:     7880 conf    73240 CSFs

 Number of electrons in valence space:                     25
 Maximum number of open shell orbitals in reference space:  5
 Maximum number of open shell orbitals in internal spaces: 11


 Number of closed-shell orbitals:  10 (   7   3 )
 Number of active  orbitals:        6 (   0   6 )
 Number of external orbitals:      96 (  46  50 )

 Molecular orbitals read from record     2140.2  Type=MCSCF/NATURAL (state averaged)

 Valence orbitals related to previous ones by unitary transformation. Operators transformed.


 Number of p-space configurations:  30

 Reference wavefunction optimized for reference space (refopt=1)

 State     Reference Energy 
     1      -261.34644560
     2      -261.34644560
     3      -261.34644560

 ?WARNING: SMALL EIGENVALUE OF PAIR OVERLAP MATRIX:  0.3883D-06

 ?WARNING: SMALL EIGENVALUE OF PAIR OVERLAP MATRIX:  0.3883D-06

 ?WARNING: SMALL EIGENVALUE OF PAIR OVERLAP MATRIX:  0.3883D-06

 Number of blocks in overlap matrix:   388   Smallest eigenvalue:  0.39D-06
 Number of N-2 electron functions:     758
 Number of N-1 electron functions:   51730

 Number of internal configurations:                15498
 Number of singly external configurations:       2492420
 Number of doubly external configurations:       1748264
 Total number of contracted configurations:      4256182
 Total number of uncontracted configurations:  170780814

 Diagonal Coupling coefficients finished.               Storage:   7184480 words, CPU-Time:      3.53 seconds.
 Energy denominators for pairs finished in 1 passes.    Storage:   1114026 words, CPU-time:      0.09 seconds.

  ITER. STATE  ROOT     SQ.NORM     CORR.ENERGY   TOTAL ENERGY   ENERGY CHANGE       DEN1      VAR(S)    VAR(P)      TIME
    1     1     1     1.00000000     0.00000000  -261.34644560     0.00000000    -0.91193328  0.39D-01  0.13D+00     5.83
    1     2     2     1.00000000     0.00000000  -261.34644560    -0.00000000    -0.91197453  0.39D-01  0.13D+00     5.83
    1     3     3     1.00000000     0.00000000  -261.34644560     0.00000000    -0.91194204  0.39D-01  0.13D+00     5.83
    2     1     1     1.10177052    -0.70419869  -262.05064428    -0.70419869    -0.02106695  0.30D-02  0.20D-02    67.80
    2     2     2     1.10174213    -0.70417076  -262.05061636    -0.70417076    -0.02109427  0.30D-02  0.20D-02    67.80
    2     3     3     1.10174513    -0.70416882  -262.05061442    -0.70416882    -0.02109631  0.30D-02  0.20D-02    67.80
    3     1     1     1.09414202    -0.72393834  -262.07038393    -0.01973965    -0.00037920  0.46D-04  0.52D-04   136.08
    3     2     2     1.09412723    -0.72393386  -262.07037946    -0.01976310    -0.00038287  0.46D-04  0.53D-04   136.08
    3     3     3     1.09412727    -0.72393381  -262.07037941    -0.01976499    -0.00038293  0.46D-04  0.53D-04   136.08
    4     1     1     1.09440910    -0.72433793  -262.07078352    -0.00039959    -0.00001915  0.16D-05  0.35D-05   202.27
    4     2     2     1.09440218    -0.72433734  -262.07078294    -0.00040348    -0.00001961  0.16D-05  0.36D-05   202.27
    4     3     3     1.09440214    -0.72433734  -262.07078294    -0.00040353    -0.00001962  0.16D-05  0.36D-05   202.27
    5     1     1     1.09457488    -0.72435926  -262.07080485    -0.00002133    -0.00000135  0.62D-07  0.28D-06   267.03
    5     2     2     1.09457368    -0.72435920  -262.07080480    -0.00002186    -0.00000140  0.64D-07  0.29D-06   267.03
    5     3     3     1.09457368    -0.72435920  -262.07080480    -0.00002186    -0.00000140  0.64D-07  0.29D-06   267.03
    6     1     1     1.09460797    -0.72436084  -262.07080644    -0.00000158    -0.00000010  0.72D-08  0.18D-07   335.68
    6     2     2     1.09460767    -0.72436084  -262.07080643    -0.00000163    -0.00000010  0.75D-08  0.18D-07   335.68
    6     3     3     1.09460767    -0.72436084  -262.07080643    -0.00000163    -0.00000010  0.75D-08  0.18D-07   335.68
    7     1     1     1.09462146    -0.72436095  -262.07080654    -0.00000011    -0.00000001  0.57D-09  0.12D-08   397.36
    7     2     2     1.09462142    -0.72436095  -262.07080654    -0.00000011    -0.00000001  0.60D-09  0.12D-08   397.36
    7     3     3     1.09462142    -0.72436095  -262.07080654    -0.00000011    -0.00000001  0.60D-09  0.12D-08   397.36


 =====================================
 Analysis of CPU times by interactions
 =====================================

       I      S      P

 I   1.3%
 S   0.9%  13.8%
 P   0.5%  67.5%  10.6%

 Initialization:   1.0%
 Other:            4.6%

 Total CPU:      397.4 seconds
 =====================================



 Wavefunction saved on  5203.2

 Reference coefficients greater than 0.0500000
 =============================================
 22222222222/2000           0.0000000   0.9512885   0.0000000
 2222222222/22000           0.0000000  -0.0000000   0.9512885
 222222222222/000           0.9512884  -0.0000000  -0.0000000
 22222222222//0\0          -0.0596290  -0.0000000   0.0000000
 2222222222/2/\00          -0.0596290  -0.0000000   0.0000000
 2222222222/2/00\           0.0000000  -0.0000000   0.0596290
 22222222222//00\          -0.0000000   0.0596290   0.0000000
 2222222222//20\0           0.0000000  -0.0000000   0.0596290
 2222222222//2\00           0.0000000  -0.0596290  -0.0000000

 Coefficients of fixed reference functions:
 ==========================================

 State      Coefficients
 1           0.000000    0.955655    0.000000
 2           0.955655   -0.000000   -0.000000
 3           0.000000   -0.000000    0.955655

 Coefficients of rotated reference functions:
 ============================================

 State      Coefficients
 1           0.955655    0.000000   -0.000000
 2           0.000000    0.955655   -0.000000
 3          -0.000000   -0.000000    0.955655


 RESULTS FOR STATE 1.2
 =====================

 Maximum overlap with reference state  2

 Coefficient of reference function:   C(0) = 0.95565489 (fixed)   0.95577811 (relaxed)   0.95565489 (rotated)

 Energy contributions of configuration classes

 CLASS          SQ.NORM        ECORR1        ECORR2
 +++++++++++++++++++++++++++++++++++++++++++++++++++
 Internals    0.00030829   -0.00017576   -0.62631657
 Singles      0.01215362   -0.03879334   -0.04346611
 Pairs        0.08249701   -0.00000000   -0.05457826
 Total        1.09495892   -0.03896911   -0.72436095
 +++++++++++++++++++++++++++++++++++++++++++++++++++


 Reference energy                    -261.34644560
 Nuclear energy                         0.00000000
 Kinetic energy                        83.16434236
 One electron energy                 -454.51125873
 Two electron energy                  192.44045218
 Virial quotient                       -3.15124005
 Correlation energy                    -0.72436095
 !MRCI STATE 1.2 Energy              -262.070806544548

 Properties without orbital relaxation:

 !MRCI STATE 1.2 Dipole moment          0.00000000     0.00000000     0.00000000
 Dipole moment /Debye                   0.00000000     0.00000000     0.00000000

 Cluster corrected energies          -262.13959108 (Davidson, fixed reference)
 Cluster corrected energies          -262.13938658 (Davidson, relaxed reference)
 Cluster corrected energies          -262.13959108 (Davidson, rotated reference)

 Cluster corrected energies          -262.13922176 (Pople, fixed reference)
 Cluster corrected energies          -262.13900130 (Pople, relaxed reference)
 Cluster corrected energies          -262.13922176 (Pople, rotated reference)



 RESULTS FOR STATE 2.2
 =====================

 Maximum overlap with reference state  1

 Coefficient of reference function:   C(0) = 0.95565491 (fixed)   0.95577813 (relaxed)   0.95565491 (rotated)

 Energy contributions of configuration classes

 CLASS          SQ.NORM        ECORR1        ECORR2
 +++++++++++++++++++++++++++++++++++++++++++++++++++
 Internals    0.00030829   -0.00017576   -0.62631650
 Singles      0.01215368   -0.03879345   -0.04346616
 Pairs        0.08249691    0.00000000   -0.05457829
 Total        1.09495888   -0.03896921   -0.72436095
 +++++++++++++++++++++++++++++++++++++++++++++++++++


 Reference energy                    -261.34644560
 Nuclear energy                         0.00000000
 Kinetic energy                        83.16434065
 One electron energy                 -454.51125659
 Two electron energy                  192.44045004
 Virial quotient                       -3.15124012
 Correlation energy                    -0.72436095
 !MRCI STATE 2.2 Energy              -262.070806544281

 Properties without orbital relaxation:

 !MRCI STATE 2.2 Dipole moment          0.00000000     0.00000000     0.00000000
 Dipole moment /Debye                   0.00000000     0.00000000     0.00000000

 Cluster corrected energies          -262.13959105 (Davidson, fixed reference)
 Cluster corrected energies          -262.13938655 (Davidson, relaxed reference)
 Cluster corrected energies          -262.13959105 (Davidson, rotated reference)

 Cluster corrected energies          -262.13922173 (Pople, fixed reference)
 Cluster corrected energies          -262.13900126 (Pople, relaxed reference)
 Cluster corrected energies          -262.13922173 (Pople, rotated reference)



 RESULTS FOR STATE 3.2
 =====================

 Coefficient of reference function:   C(0) = 0.95565491 (fixed)   0.95577813 (relaxed)   0.95565491 (rotated)

 Energy contributions of configuration classes

 CLASS          SQ.NORM        ECORR1        ECORR2
 +++++++++++++++++++++++++++++++++++++++++++++++++++
 Internals    0.00030829   -0.00017576   -0.00036447
 Singles      0.01215368   -0.03879345   -0.04346617
 Pairs        0.08249691   -0.68539173   -0.68053032
 Total        1.09495888   -0.72436095   -0.72436095
 +++++++++++++++++++++++++++++++++++++++++++++++++++


 Reference energy                    -261.34644560
 Nuclear energy                         0.00000000
 Kinetic energy                        83.16434061
 One electron energy                 -454.51125657
 Two electron energy                  192.44045002
 Virial quotient                       -3.15124012
 Correlation energy                    -0.72436095
 !MRCI STATE 3.2 Energy              -262.070806544271

 Properties without orbital relaxation:

 !MRCI STATE 3.2 Dipole moment          0.00000000     0.00000000     0.00000000
 Dipole moment /Debye                   0.00000000     0.00000000     0.00000000

 Cluster corrected energies          -262.13959105 (Davidson, fixed reference)
 Cluster corrected energies          -262.13938655 (Davidson, relaxed reference)
 Cluster corrected energies          -262.13959105 (Davidson, rotated reference)

 Cluster corrected energies          -262.13922173 (Pople, fixed reference)
 Cluster corrected energies          -262.13900126 (Pople, relaxed reference)
 Cluster corrected energies          -262.13922173 (Pople, rotated reference)



 **********************************************************************************************************************************
 DATASETS  * FILE   NREC   LENGTH (MB)   RECORD NAMES
              1      21       39.05       500      610      700      900      950      970     1000      129      960     1100   
                                          VAR    BASINP    GEOM    SYMINP    ZMAT    AOBASIS   BASIS     P2S    ABASIS      S 
                                         1400     1410     1420     1200     1210     1080     1700     1600     1650     1380   
                                           T        V       ECP      H0       H01     AOSYM    OPER      SMH    MOLCAS    JKOP   
                                         1700(1)
                                         OPER   

              2       6      100.24       700     1000      520     2100     2140     5203   
                                         GEOM     BASIS   MCVARS     RHF     MCSCF    MRCI   

 PROGRAMS   *        TOTAL        CI     MULTI   RHF-SCF       INT
 CPU TIMES  *       418.49    414.06      2.64      0.10      1.42
 REAL TIME  *       430.08 SEC
 DISK USED  *       139.38 MB (local),        1.13 GB (total)
 SF USED    *         1.07 GB
 GA USED    *         0.00 MB       (max)       0.00 MB       (current)
 **********************************************************************************************************************************
 SETTING HLSDIAG(1)     =      -262.13959108  AU                              
 SETTING HLSDIAG(2)     =      -262.13959105  AU                              
 SETTING HLSDIAG(3)     =      -262.13959105  AU                              


 PROGRAM * CI (Multireference internally contracted CI)     Authors: H.-J. Werner, P.J. Knowles, 1987


 Convergence thresholds:  THRVAR = 1.00D-08  THRDEN = 1.00D-06

 Number of optimized states: 8  Roots:    1   2   3   4   5   6   7   8
 Number of reference states: 8  Roots:    1   2   3   4   5   6   7   8

 Reference symmetry:                   2   Quartet 
 Number of electrons:                 25
 Maximum number of shells:             5
 Maximum number of spin couplings:   165

 Reference space:       66 conf       84 CSFs
 N elec internal:     7606 conf    20444 CSFs
 N-1 el internal:     7990 conf    43460 CSFs
 N-2 el internal:     4430 conf    58610 CSFs

 Number of electrons in valence space:                     25
 Maximum number of open shell orbitals in reference space:  5
 Maximum number of open shell orbitals in internal spaces: 11


 Number of closed-shell orbitals:  10 (   7   3 )
 Number of active  orbitals:        6 (   0   6 )
 Number of external orbitals:      96 (  46  50 )

 Molecular orbitals read from record     2140.2  Type=MCSCF/NATURAL (state averaged)

 Coulomb and exchange operators available. No transformation done.


 Number of p-space configurations:  42

 Reference wavefunction optimized for reference space (refopt=1)

 State     Reference Energy 
     1      -261.10493119
     2      -261.10493119
     3      -261.10493119
     4      -261.09915371
     5      -261.09915371
     6      -261.09915371
     7      -261.09915371
     8      -261.09915371

 ?WARNING: SMALL EIGENVALUE OF PAIR OVERLAP MATRIX:  0.1235D-06

 ?WARNING: SMALL EIGENVALUE OF PAIR OVERLAP MATRIX:  0.4802D-06

 Number of blocks in overlap matrix:   888   Smallest eigenvalue:  0.12D-06
 Number of N-2 electron functions:    1852
 Number of N-1 electron functions:   43460

 Number of internal configurations:                10812
 Number of singly external configurations:       2092696
 Number of doubly external configurations:       4267696
 Total number of contracted configurations:      6371204
 Total number of uncontracted configurations:  136499244

 Diagonal Coupling coefficients finished.               Storage:   8240362 words, CPU-Time:     11.72 seconds.
 Energy denominators for pairs finished in 1 passes.    Storage:   1506257 words, CPU-time:      0.20 seconds.

  ITER. STATE  ROOT     SQ.NORM     CORR.ENERGY   TOTAL ENERGY   ENERGY CHANGE       DEN1      VAR(S)    VAR(P)      TIME
    1     1     1     1.00000000     0.00000000  -261.10493119     0.00000000    -0.86795066  0.33D-01  0.12D+00    15.56
    1     2     2     1.00000000     0.00000000  -261.10493119    -0.00000000    -0.86784266  0.33D-01  0.12D+00    15.56
    1     3     3     1.00000000     0.00000000  -261.10493119    -0.00000000    -0.86844615  0.33D-01  0.12D+00    15.56
    1     4     4     1.00000000     0.00000000  -261.09915371    -0.00000000    -0.86995804  0.34D-01  0.12D+00    15.56
    1     5     5     1.00000000     0.00000000  -261.09915371     0.00000000    -0.86919055  0.34D-01  0.12D+00    15.56
    1     6     6     1.00000000     0.00000000  -261.09915371     0.00000000    -0.86964913  0.34D-01  0.12D+00    15.56
    1     7     7     1.00000000     0.00000000  -261.09915371    -0.00000000    -0.86945336  0.34D-01  0.12D+00    15.56
    1     8     8     1.00000000     0.00000000  -261.09915371    -0.00000000    -0.86971237  0.34D-01  0.12D+00    15.56
    2     1     1     1.09478576    -0.68538728  -261.79031847    -0.68538728    -0.01707251  0.17D-02  0.16D-02   249.60
    2     2     2     1.09473259    -0.68537207  -261.79030326    -0.68537207    -0.01709186  0.17D-02  0.16D-02   249.60
    2     3     3     1.09496997    -0.68530698  -261.79023817    -0.68530698    -0.01717265  0.17D-02  0.17D-02   249.60
    2     4     4     1.09539811    -0.68602113  -261.78517484    -0.68602113    -0.01714898  0.18D-02  0.17D-02   249.60
    2     5     5     1.09554246    -0.68601533  -261.78516904    -0.68601533    -0.01716513  0.18D-02  0.17D-02   249.60
    2     6     6     1.09522077    -0.68599638  -261.78515010    -0.68599638    -0.01720484  0.17D-02  0.17D-02   249.60
    2     7     7     1.09558038    -0.68598019  -261.78513390    -0.68598019    -0.01719485  0.17D-02  0.17D-02   249.60
    2     8     8     1.09510674    -0.68581811  -261.78497182    -0.68581811    -0.01738558  0.17D-02  0.17D-02   249.60
    3     1     1     1.08814262    -0.70137174  -261.80630292    -0.01598446    -0.00023728  0.23D-04  0.26D-04   478.73
    3     2     2     1.08811519    -0.70137009  -261.80630127    -0.01599801    -0.00023744  0.23D-04  0.27D-04   478.73
    3     3     3     1.08810373    -0.70136909  -261.80630028    -0.01606211    -0.00023843  0.23D-04  0.27D-04   478.73
    3     4     4     1.08848943    -0.70213790  -261.80129162    -0.01611677    -0.00024696  0.31D-04  0.29D-04   478.73
    3     5     5     1.08854292    -0.70213614  -261.80128985    -0.01612081    -0.00024916  0.32D-04  0.28D-04   478.73
    3     6     6     1.08853090    -0.70213395  -261.80128767    -0.01613757    -0.00025029  0.32D-04  0.29D-04   478.73
    3     7     7     1.08850708    -0.70213329  -261.80128701    -0.01615310    -0.00025057  0.32D-04  0.29D-04   478.73
    3     8     8     1.08840886    -0.70212872  -261.80128243    -0.01631060    -0.00025326  0.31D-04  0.31D-04   478.73
    4     1     1     1.08827592    -0.70161784  -261.80654903    -0.00024610    -0.00000829  0.85D-06  0.14D-05   707.32
    4     2     2     1.08826873    -0.70161730  -261.80654848    -0.00024721    -0.00000864  0.86D-06  0.15D-05   707.32
    4     3     3     1.08826651    -0.70161722  -261.80654841    -0.00024813    -0.00000869  0.87D-06  0.15D-05   707.32
    4     4     4     1.08864137    -0.70240058  -261.80155429    -0.00026267    -0.00001079  0.93D-06  0.22D-05   707.32
    4     5     5     1.08865092    -0.70240051  -261.80155423    -0.00026438    -0.00001077  0.93D-06  0.22D-05   707.32
    4     6     6     1.08864488    -0.70240025  -261.80155396    -0.00026629    -0.00001098  0.93D-06  0.23D-05   707.32
    4     7     7     1.08864023    -0.70240006  -261.80155378    -0.00026677    -0.00001110  0.93D-06  0.23D-05   707.32
    4     8     8     1.08861991    -0.70239974  -261.80155345    -0.00027103    -0.00001142  0.94D-06  0.24D-05   707.32
    5     1     1     1.08833979    -0.70162747  -261.80655865    -0.00000963    -0.00000055  0.16D-07  0.13D-06   939.76
    5     2     2     1.08833845    -0.70162741  -261.80655860    -0.00001011    -0.00000059  0.17D-07  0.14D-06   939.76
    5     3     3     1.08833842    -0.70162740  -261.80655859    -0.00001018    -0.00000059  0.17D-07  0.14D-06   939.76
    5     4     4     1.08874450    -0.70241442  -261.80156814    -0.00001385    -0.00000120  0.43D-07  0.27D-06   939.76
    5     5     5     1.08874447    -0.70241437  -261.80156809    -0.00001386    -0.00000123  0.44D-07  0.28D-06   939.76
    5     6     6     1.08874356    -0.70241436  -261.80156808    -0.00001412    -0.00000121  0.44D-07  0.28D-06   939.76
    5     7     7     1.08874456    -0.70241434  -261.80156806    -0.00001428    -0.00000120  0.43D-07  0.28D-06   939.76
    5     8     8     1.08874401    -0.70241434  -261.80156805    -0.00001459    -0.00000123  0.45D-07  0.28D-06   939.76
    6     1     1     1.08835352    -0.70162816  -261.80655935    -0.00000069    -0.00000005  0.27D-08  0.90D-08  1166.83
    6     2     2     1.08835322    -0.70162816  -261.80655934    -0.00000075    -0.00000005  0.29D-08  0.92D-08  1166.83
    6     3     3     1.08835325    -0.70162816  -261.80655934    -0.00000075    -0.00000005  0.30D-08  0.93D-08  1166.83
    6     4     4     1.08876936    -0.70241609  -261.80156981    -0.00000167    -0.00000015  0.80D-08  0.29D-07  1166.83
    6     5     5     1.08876923    -0.70241609  -261.80156980    -0.00000171    -0.00000015  0.85D-08  0.30D-07  1166.83
    6     6     6     1.08876801    -0.70241606  -261.80156977    -0.00000170    -0.00000015  0.83D-08  0.28D-07  1166.83
    6     7     7     1.08876824    -0.70241606  -261.80156977    -0.00000171    -0.00000015  0.84D-08  0.29D-07  1166.83
    6     8     8     1.08876816    -0.70241606  -261.80156977    -0.00000172    -0.00000015  0.87D-08  0.29D-07  1166.83
    7     1     1     1.08835849    -0.70162822  -261.80655940    -0.00000006    -0.00000000  0.20D-09  0.74D-09  1399.79
    7     2     2     1.08835851    -0.70162822  -261.80655940    -0.00000006    -0.00000000  0.21D-09  0.76D-09  1399.79
    7     3     3     1.08835859    -0.70162821  -261.80655940    -0.00000006    -0.00000000  0.20D-09  0.74D-09  1399.79
    7     4     4     1.08877404    -0.70241628  -261.80156999    -0.00000019    -0.00000002  0.12D-08  0.37D-08  1399.79
    7     5     5     1.08877395    -0.70241628  -261.80156999    -0.00000019    -0.00000002  0.11D-08  0.37D-08  1399.79
    7     6     6     1.08877387    -0.70241625  -261.80156996    -0.00000019    -0.00000002  0.12D-08  0.36D-08  1399.79
    7     7     7     1.08877390    -0.70241625  -261.80156996    -0.00000019    -0.00000002  0.11D-08  0.35D-08  1399.79
    7     8     8     1.08877390    -0.70241625  -261.80156996    -0.00000019    -0.00000002  0.11D-08  0.35D-08  1399.79


 =====================================
 Analysis of CPU times by interactions
 =====================================

       I      S      P

 I   0.7%
 S   0.4%   9.4%
 P   0.3%  51.8%  28.1%

 Initialization:   0.9%
 Other:            8.4%

 Total CPU:     1399.8 seconds
 =====================================



 Wavefunction saved on  5303.2

 Reference coefficients greater than 0.0500000
 =============================================
 2222222222/2/0/0           0.0000000   0.0000000  -0.0000000   0.7690328   0.1377410   0.0001068  -0.0006987  -0.0001026
 22222222222///00           0.0000000   0.0000000  -0.0000000   0.2652287   0.7348723   0.0001086  -0.0003913   0.0000999
 22222222222//00/           0.0232294  -0.0025588  -0.6765465   0.0006012   0.0001315  -0.0283875   0.6697948   0.0914157
 2222222222//2/00          -0.0232294   0.0025588   0.6765465   0.0006012   0.0001315  -0.0283875   0.6697948   0.0914157
 2222222222/2/00/           0.0729098   0.6730123  -0.0000421   0.0000571   0.0000606  -0.6756999  -0.0308613   0.0162914
 2222222222//20/0           0.0729098   0.6730122  -0.0000421  -0.0000571  -0.0000606   0.6756998   0.0308613  -0.0162914
 22222222222//0/0           0.6726113  -0.0728649   0.0233699  -0.0000319   0.0001538  -0.0202972   0.0906105  -0.6701982
 2222222222/2//00           0.6726112  -0.0728649   0.0233699   0.0000319  -0.0001538   0.0202972  -0.0906106   0.6701984
 2222222222//200/           0.0000000   0.0000000   0.0000000   0.5038031  -0.5971316  -0.0000018  -0.0003074  -0.0002025

 Coefficients of fixed reference functions:
 ==========================================

 State      Coefficients
 1           0.952380    0.103236   -0.032892    0.000000   -0.000000   -0.000000   -0.000000    0.000000
 2          -0.103173    0.952948    0.003623    0.000000   -0.000000   -0.000000   -0.000000   -0.000000
 3           0.033090   -0.000060    0.957952   -0.000000    0.000000   -0.000000   -0.000000   -0.000000
 4           0.000000   -0.000000    0.000000    0.954622   -0.000081    0.000045    0.000852   -0.084322
 5          -0.000000   -0.000000    0.000000    0.084322   -0.000086   -0.000218    0.000186    0.954623
 6           0.000000   -0.000000   -0.000000    0.000124    0.957064    0.028749   -0.040208    0.000089
 7          -0.000000   -0.000000    0.000000   -0.000848    0.043712   -0.128341    0.948700   -0.000135
 8           0.000000    0.000000    0.000000   -0.000144   -0.023075    0.949272    0.129482    0.000202

 Coefficients of rotated reference functions:
 ============================================

 State      Coefficients
 1           0.958523   -0.000000    0.000000   -0.000000    0.000000   -0.000000   -0.000000    0.000000
 2          -0.000000    0.958523   -0.000000   -0.000000   -0.000000   -0.000000   -0.000000   -0.000000
 3           0.000000   -0.000000    0.958523    0.000000    0.000000    0.000000   -0.000000    0.000000
 4          -0.000000   -0.000000    0.000000    0.958340    0.000000   -0.000000    0.000000   -0.000000
 5           0.000000   -0.000000    0.000000    0.000000    0.958340    0.000000    0.000000   -0.000000
 6          -0.000000   -0.000000    0.000000   -0.000000    0.000000    0.958340    0.000000   -0.000000
 7          -0.000000   -0.000000   -0.000000    0.000000    0.000000    0.000000    0.958340    0.000000
 8           0.000000   -0.000000    0.000000   -0.000000   -0.000000   -0.000000    0.000000    0.958340


 RESULTS FOR STATE 1.2
 =====================

 Coefficient of reference function:   C(0) = 0.95237992 (fixed)   0.95852874 (relaxed)   0.95852338 (rotated)

 Energy contributions of configuration classes

 CLASS          SQ.NORM        ECORR1        ECORR2
 +++++++++++++++++++++++++++++++++++++++++++++++++++
 Internals    0.00005205   -0.00015107   -0.59888502
 Singles      0.01453007   -0.04982921   -0.05514626
 Pairs        0.07383302   -0.00000000   -0.04759693
 Total        1.08841514   -0.04998028   -0.70162822
 +++++++++++++++++++++++++++++++++++++++++++++++++++


 Reference energy                    -261.10493119
 Nuclear energy                         0.00000000
 Kinetic energy                        82.79585200
 One electron energy                 -449.09817868
 Two electron energy                  187.29161928
 Virial quotient                       -3.16207338
 Correlation energy                    -0.70162822
 !MRCI STATE 1.2 Energy              -261.806559400750

 Properties without orbital relaxation:

 !MRCI STATE 1.2 Dipole moment          0.00000000     0.00000000     0.00000000
 Dipole moment /Debye                   0.00000000     0.00000000     0.00000000

 Cluster corrected energies          -261.86859396 (Davidson, fixed reference)
 Cluster corrected energies          -261.86858543 (Davidson, relaxed reference)
 Cluster corrected energies          -261.86859396 (Davidson, rotated reference)

 Cluster corrected energies          -261.86730661 (Pople, fixed reference)
 Cluster corrected energies          -261.86729762 (Pople, relaxed reference)
 Cluster corrected energies          -261.86730661 (Pople, rotated reference)



 RESULTS FOR STATE 2.2
 =====================

 Coefficient of reference function:   C(0) = 0.95294772 (fixed)   0.95852873 (relaxed)   0.95852338 (rotated)

 Energy contributions of configuration classes

 CLASS          SQ.NORM        ECORR1        ECORR2
 +++++++++++++++++++++++++++++++++++++++++++++++++++
 Internals    0.00005205   -0.00015107   -0.59888497
 Singles      0.01453010   -0.04982926   -0.05514629
 Pairs        0.07383301    0.00000000   -0.04759696
 Total        1.08841516   -0.04998033   -0.70162822
 +++++++++++++++++++++++++++++++++++++++++++++++++++


 Reference energy                    -261.10493119
 Nuclear energy                         0.00000000
 Kinetic energy                        82.79585302
 One electron energy                 -449.09817949
 Two electron energy                  187.29162009
 Virial quotient                       -3.16207334
 Correlation energy                    -0.70162822
 !MRCI STATE 2.2 Energy              -261.806559400653

 Properties without orbital relaxation:

 !MRCI STATE 2.2 Dipole moment          0.00000000     0.00000000     0.00000000
 Dipole moment /Debye                   0.00000000     0.00000000     0.00000000

 Cluster corrected energies          -261.86859397 (Davidson, fixed reference)
 Cluster corrected energies          -261.86858544 (Davidson, relaxed reference)
 Cluster corrected energies          -261.86859397 (Davidson, rotated reference)

 Cluster corrected energies          -261.86730662 (Pople, fixed reference)
 Cluster corrected energies          -261.86729763 (Pople, relaxed reference)
 Cluster corrected energies          -261.86730662 (Pople, rotated reference)



 RESULTS FOR STATE 3.2
 =====================

 Coefficient of reference function:   C(0) = 0.95795199 (fixed)   0.95852870 (relaxed)   0.95852334 (rotated)

 Energy contributions of configuration classes

 CLASS          SQ.NORM        ECORR1        ECORR2
 +++++++++++++++++++++++++++++++++++++++++++++++++++
 Internals    0.00005205   -0.00015107   -0.59888501
 Singles      0.01453007   -0.04982917   -0.05514623
 Pairs        0.07383312    0.00000000   -0.04759697
 Total        1.08841524   -0.04998024   -0.70162821
 +++++++++++++++++++++++++++++++++++++++++++++++++++


 Reference energy                    -261.10493119
 Nuclear energy                         0.00000000
 Kinetic energy                        82.79585082
 One electron energy                 -449.09817919
 Two electron energy                  187.29161979
 Virial quotient                       -3.16207342
 Correlation energy                    -0.70162821
 !MRCI STATE 3.2 Energy              -261.806559400126

 Properties without orbital relaxation:

 !MRCI STATE 3.2 Dipole moment          0.00000000     0.00000000     0.00000000
 Dipole moment /Debye                   0.00000000     0.00000000     0.00000000

 Cluster corrected energies          -261.86859403 (Davidson, fixed reference)
 Cluster corrected energies          -261.86858549 (Davidson, relaxed reference)
 Cluster corrected energies          -261.86859403 (Davidson, rotated reference)

 Cluster corrected energies          -261.86730668 (Pople, fixed reference)
 Cluster corrected energies          -261.86729769 (Pople, relaxed reference)
 Cluster corrected energies          -261.86730668 (Pople, rotated reference)



 RESULTS FOR STATE 4.2
 =====================

 Coefficient of reference function:   C(0) = 0.95462238 (fixed)   0.95834398 (relaxed)   0.95833959 (rotated)

 Energy contributions of configuration classes

 CLASS          SQ.NORM        ECORR1        ECORR2
 +++++++++++++++++++++++++++++++++++++++++++++++++++
 Internals    0.00005385   -0.00016556   -0.65182640
 Singles      0.01471586   -0.05010468   -0.05550648
 Pairs        0.07406296    0.05738045    0.00491660
 Total        1.08883266    0.00711021   -0.70241628
 +++++++++++++++++++++++++++++++++++++++++++++++++++


 Reference energy                    -261.09915371
 Nuclear energy                         0.00000000
 Kinetic energy                        82.80011833
 One electron energy                 -449.10612265
 Two electron energy                  187.30455266
 Virial quotient                       -3.16185019
 Correlation energy                    -0.70241628
 !MRCI STATE 4.2 Energy              -261.801569994398

 Properties without orbital relaxation:

 !MRCI STATE 4.2 Dipole moment          0.00000000     0.00000000     0.00000000
 Dipole moment /Debye                   0.00000000     0.00000000     0.00000000

 Cluster corrected energies          -261.86396750 (Davidson, fixed reference)
 Cluster corrected energies          -261.86396049 (Davidson, relaxed reference)
 Cluster corrected energies          -261.86396750 (Davidson, rotated reference)

 Cluster corrected energies          -261.86269467 (Pople, fixed reference)
 Cluster corrected energies          -261.86268727 (Pople, relaxed reference)
 Cluster corrected energies          -261.86269467 (Pople, rotated reference)



 RESULTS FOR STATE 5.2
 =====================

 Maximum overlap with reference state  8

 Coefficient of reference function:   C(0) = 0.95462277 (fixed)   0.95834402 (relaxed)   0.95833963 (rotated)

 Energy contributions of configuration classes

 CLASS          SQ.NORM        ECORR1        ECORR2
 +++++++++++++++++++++++++++++++++++++++++++++++++++
 Internals    0.00005385   -0.00016556   -0.00250975
 Singles      0.01471595   -0.05010473   -0.05550651
 Pairs        0.07406278   -0.64961667   -0.64440002
 Total        1.08883258   -0.69988696   -0.70241628
 +++++++++++++++++++++++++++++++++++++++++++++++++++


 Reference energy                    -261.09915371
 Nuclear energy                         0.00000000
 Kinetic energy                        82.80012031
 One electron energy                 -449.10613946
 Two electron energy                  187.30456946
 Virial quotient                       -3.16185012
 Correlation energy                    -0.70241628
 !MRCI STATE 5.2 Energy              -261.801569993348

 Properties without orbital relaxation:

 !MRCI STATE 5.2 Dipole moment          0.00000000     0.00000000     0.00000000
 Dipole moment /Debye                   0.00000000     0.00000000     0.00000000

 Cluster corrected energies          -261.86396744 (Davidson, fixed reference)
 Cluster corrected energies          -261.86396043 (Davidson, relaxed reference)
 Cluster corrected energies          -261.86396744 (Davidson, rotated reference)

 Cluster corrected energies          -261.86269460 (Pople, fixed reference)
 Cluster corrected energies          -261.86268720 (Pople, relaxed reference)
 Cluster corrected energies          -261.86269460 (Pople, rotated reference)



 RESULTS FOR STATE 6.2
 =====================

 Maximum overlap with reference state  5

 Coefficient of reference function:   C(0) = 0.95706410 (fixed)   0.95834406 (relaxed)   0.95833967 (rotated)

 Energy contributions of configuration classes

 CLASS          SQ.NORM        ECORR1        ECORR2
 +++++++++++++++++++++++++++++++++++++++++++++++++++
 Internals    0.00005385   -0.00016557   -0.59907139
 Singles      0.01471592   -0.05010478   -0.05550652
 Pairs        0.07406273   -0.00006090   -0.04783834
 Total        1.08883249   -0.05033124   -0.70241625
 +++++++++++++++++++++++++++++++++++++++++++++++++++


 Reference energy                    -261.09915371
 Nuclear energy                         0.00000000
 Kinetic energy                        82.80011591
 One electron energy                 -449.10612902
 Two electron energy                  187.30455906
 Virial quotient                       -3.16185028
 Correlation energy                    -0.70241625
 !MRCI STATE 6.2 Energy              -261.801569959660

 Properties without orbital relaxation:

 !MRCI STATE 6.2 Dipole moment          0.00000000     0.00000000     0.00000000
 Dipole moment /Debye                   0.00000000     0.00000000     0.00000000

 Cluster corrected energies          -261.86396735 (Davidson, fixed reference)
 Cluster corrected energies          -261.86396033 (Davidson, relaxed reference)
 Cluster corrected energies          -261.86396735 (Davidson, rotated reference)

 Cluster corrected energies          -261.86269450 (Pople, fixed reference)
 Cluster corrected energies          -261.86268711 (Pople, relaxed reference)
 Cluster corrected energies          -261.86269450 (Pople, rotated reference)



 RESULTS FOR STATE 7.2
 =====================

 Coefficient of reference function:   C(0) = 0.94870013 (fixed)   0.95834404 (relaxed)   0.95833965 (rotated)

 Energy contributions of configuration classes

 CLASS          SQ.NORM        ECORR1        ECORR2
 +++++++++++++++++++++++++++++++++++++++++++++++++++
 Internals    0.00005385   -0.00016557   -0.59921211
 Singles      0.01471585   -0.05010463   -0.05550643
 Pairs        0.07406283    0.00009219   -0.04769771
 Total        1.08883252   -0.05017801   -0.70241625
 +++++++++++++++++++++++++++++++++++++++++++++++++++


 Reference energy                    -261.09915371
 Nuclear energy                         0.00000000
 Kinetic energy                        82.80011614
 One electron energy                 -449.10613411
 Two electron energy                  187.30456415
 Virial quotient                       -3.16185027
 Correlation energy                    -0.70241625
 !MRCI STATE 7.2 Energy              -261.801569959144

 Properties without orbital relaxation:

 !MRCI STATE 7.2 Dipole moment          0.00000000     0.00000000     0.00000000
 Dipole moment /Debye                   0.00000000     0.00000000     0.00000000

 Cluster corrected energies          -261.86396737 (Davidson, fixed reference)
 Cluster corrected energies          -261.86396036 (Davidson, relaxed reference)
 Cluster corrected energies          -261.86396737 (Davidson, rotated reference)

 Cluster corrected energies          -261.86269452 (Pople, fixed reference)
 Cluster corrected energies          -261.86268713 (Pople, relaxed reference)
 Cluster corrected energies          -261.86269452 (Pople, rotated reference)



 RESULTS FOR STATE 8.2
 =====================

 Maximum overlap with reference state  6

 Coefficient of reference function:   C(0) = 0.94927176 (fixed)   0.95834404 (relaxed)   0.95833965 (rotated)

 Energy contributions of configuration classes

 CLASS          SQ.NORM        ECORR1        ECORR2
 +++++++++++++++++++++++++++++++++++++++++++++++++++
 Internals    0.00005385   -0.00016557   -0.59900120
 Singles      0.01471581   -0.05010455   -0.05550641
 Pairs        0.07406287   -0.00013753   -0.04790864
 Total        1.08883253   -0.05040765   -0.70241625
 +++++++++++++++++++++++++++++++++++++++++++++++++++


 Reference energy                    -261.09915371
 Nuclear energy                         0.00000000
 Kinetic energy                        82.80011362
 One electron energy                 -449.10612982
 Two electron energy                  187.30455987
 Virial quotient                       -3.16185037
 Correlation energy                    -0.70241625
 !MRCI STATE 8.2 Energy              -261.801569958976

 Properties without orbital relaxation:

 !MRCI STATE 8.2 Dipole moment          0.00000000     0.00000000     0.00000000
 Dipole moment /Debye                   0.00000000     0.00000000     0.00000000

 Cluster corrected energies          -261.86396737 (Davidson, fixed reference)
 Cluster corrected energies          -261.86396036 (Davidson, relaxed reference)
 Cluster corrected energies          -261.86396737 (Davidson, rotated reference)

 Cluster corrected energies          -261.86269453 (Pople, fixed reference)
 Cluster corrected energies          -261.86268713 (Pople, relaxed reference)
 Cluster corrected energies          -261.86269453 (Pople, rotated reference)



 **********************************************************************************************************************************
 DATASETS  * FILE   NREC   LENGTH (MB)   RECORD NAMES
              1      21       39.05       500      610      700      900      950      970     1000      129      960     1100   
                                          VAR    BASINP    GEOM    SYMINP    ZMAT    AOBASIS   BASIS     P2S    ABASIS      S 
                                         1400     1410     1420     1200     1210     1080     1700     1600     1650     1380   
                                           T        V       ECP      H0       H01     AOSYM    OPER      SMH    MOLCAS    JKOP   
                                         1700(1)
                                         OPER   

              2       7      495.94       700     1000      520     2100     2140     5203     5303   
                                         GEOM     BASIS   MCVARS     RHF     MCSCF    MRCI     MRCI   

 PROGRAMS   *        TOTAL        CI        CI     MULTI   RHF-SCF       INT
 CPU TIMES  *      2024.41   1605.91    414.06      2.64      0.10      1.42
 REAL TIME  *      2083.41 SEC
 DISK USED  *       535.08 MB (local),        4.22 GB (total)
 SF USED    *         4.09 GB
 GA USED    *         0.00 MB       (max)       0.00 MB       (current)
 **********************************************************************************************************************************
 SETTING HLSDIAG(4)     =      -261.86859396  AU                              
 SETTING HLSDIAG(5)     =      -261.86859397  AU                              
 SETTING HLSDIAG(6)     =      -261.86859403  AU                              
 SETTING HLSDIAG(7)     =      -261.86396750  AU                              
 SETTING HLSDIAG(8)     =      -261.86396744  AU                              
 SETTING HLSDIAG(9)     =      -261.86396735  AU                              
 SETTING HLSDIAG(10)    =      -261.86396737  AU                              
 SETTING HLSDIAG(11)    =      -261.86396737  AU                              


         HLSDIAG
    -262.1395911
    -262.1395911
    -262.1395911
    -261.8685940
    -261.8685940
    -261.8685940
    -261.8639675
    -261.8639674
    -261.8639673
    -261.8639674
    -261.8639674
                                                  


 PROGRAM * CI (Multireference internally contracted CI)     Authors: H.-J. Werner, P.J. Knowles, 1987


 Diagonal elements of H will be replaced by values from variable HLSDIAG


   ******************************
   *** Spin-orbit calculation ***
   ******************************


   Spin-orbit matrix elements
   ==========================

 Wavefunction restored from record  5203.2  Symmetry=2  S= 0.5  NSTATE=   3

 Original energies:   -262.070807   -262.070807   -262.070807
 Replaced energies:   -262.139591   -262.139591   -262.139591

 Wavefunction restored from record  5303.2  Symmetry=2  S= 1.5  NSTATE=   8

 Original energies:   -261.806559   -261.806559   -261.806559   -261.801570   -261.801570   -261.801570   -261.801570   -261.801570
 Replaced energies:   -261.868594   -261.868594   -261.868594   -261.863968   -261.863967   -261.863967   -261.863967   -261.863967



   Spin-orbit calculation in the basis of zeroth order wave functions
   ==================================================================

 Lowest unperturbed energy E0=  -262.13959108

 Wigner-Eckart theorem used for 23 matrix elements

 No symmetry adapted basis set used to set up the SO-matrix


 Spin-Orbit Matrix (CM-1)
 ========================

   Nr   State  S   Sz        1          2          3          4          5          6          7          8          9         10

    1   1.2  0.5  0.5       0.00       0.00       0.00      -0.00    7113.32      -0.00     -46.72       5.15    1360.77      -1.31
                            0.00       0.00       0.00      -0.00      -0.00   -7113.32    -146.65   -1353.71       0.08      -0.12

    2   2.2  0.5  0.5       0.00       0.01       0.00   -7113.32      -0.00      -0.00   -1344.33     145.63     -46.71       0.07
                           -0.00       0.00    7113.32       0.00       0.00      -0.00       0.00      -0.00       0.00   -1677.45

    3   3.2  0.5  0.5       0.00       0.00       0.01       0.00       0.00       0.00       0.00      -0.00       0.00    -578.66
                           -0.00   -7113.32       0.00    7113.32       0.00       0.00   -1344.36     145.64     -46.71      -0.07

    4   1.2  0.5 -0.5      -0.00   -7113.32       0.00       0.00       0.00       0.00       0.00       0.00       0.00       0.00
                            0.00      -0.00   -7113.32      -0.00      -0.00      -0.00       0.00       0.00       0.00       0.00

    5   2.2  0.5 -0.5    7113.32      -0.00       0.00       0.00       0.01       0.00       0.00       0.00       0.00       0.00
                            0.00      -0.00      -0.00       0.00      -0.00   -7113.32       0.00       0.00       0.00       0.00

    6   3.2  0.5 -0.5      -0.00      -0.00       0.00       0.00       0.00       0.01       0.00       0.00       0.00       0.00
                         7113.32       0.00      -0.00       0.00    7113.32      -0.00       0.00       0.00       0.00       0.00

    7   1.2  1.5  1.5     -46.72   -1344.33       0.00       0.00       0.00       0.00   59476.99       0.00       0.00       0.00
                          146.65      -0.00    1344.36      -0.00      -0.00      -0.00       0.00     126.60     394.72    3004.49

    8   2.2  1.5  1.5       5.15     145.63      -0.00       0.00       0.00       0.00       0.00   59476.99       0.00       0.00
                         1353.71       0.00    -145.64      -0.00      -0.00      -0.00    -126.60       0.00    3643.65    -329.11

    9   3.2  1.5  1.5    1360.77     -46.71       0.00       0.00       0.00       0.00       0.00       0.00   59476.98       0.00
                           -0.08      -0.00      46.71      -0.00      -0.00      -0.00    -394.72   -3643.65      -0.00     104.06

   10   4.2  1.5  1.5      -1.31       0.07    -578.66       0.00       0.00       0.00       0.00       0.00       0.00   60492.38
                            0.12    1677.45       0.07      -0.00      -0.00      -0.00   -3004.49     329.11    -104.06      -0.00

   11   5.2  1.5  1.5      -0.29      -0.33   -1603.19       0.00       0.00       0.00       0.00       0.00       0.00       0.00
                            0.13     300.73      -0.33      -0.00      -0.00      -0.00    3561.59    -385.04     124.11       1.50

   12   6.2  1.5  1.5      61.87      43.98      -0.24       0.00       0.00       0.00       0.00       0.00       0.00       0.00
                        -1472.67       0.23      43.98      -0.00      -0.00      -0.00     120.84    -184.75   -4053.68    -165.10

   13   7.2  1.5  1.5   -1459.80    -196.33       0.85       0.00       0.00       0.00       0.00       0.00       0.00       0.00
                          -67.26      -1.52    -196.33      -0.00      -0.00      -0.00     441.23    3996.38    -185.33     751.98

   14   8.2  1.5  1.5    -199.24    1452.12      -0.22       0.00       0.00       0.00       0.00       0.00       0.00       0.00
                           35.51      -0.22    1452.12      -0.00      -0.00      -0.00      56.95     545.80      97.74   -5558.67

   15   1.2  1.5  0.5       0.00       0.00       0.00     -26.98    -776.15       0.00       0.00      -0.13   -2104.92      96.93
                            0.00     169.34     -53.61      84.67      -0.00     776.17      -0.00    2115.97      -8.00      91.27

   16   2.2  1.5  0.5       0.00       0.00       0.00       2.97      84.08      -0.00       0.13      -0.00     228.03     914.09
                            0.00    1563.17       5.91     781.57       0.00     -84.08   -2115.97       0.00     -72.65      -9.94

   17   3.2  1.5  0.5       0.00       0.00       0.00     785.64     -26.97       0.00    2104.92    -228.03      -0.00      -0.02
                           -0.00      -0.10    1561.48      -0.05      -0.00      26.97       8.00      72.65       0.00   -2663.68

   18   4.2  1.5  0.5       0.00       0.00       0.00      -0.76       0.04    -334.09     -96.93    -914.09       0.02       0.00
                         1268.79      -0.14       1.50       0.07     968.48       0.04     -91.27       9.94    2663.68      -0.00

   19   5.2  1.5  0.5       0.00       0.00       0.00      -0.17      -0.19    -925.60    -273.87   -2532.11       0.71      -0.48
                        -1503.89      -0.15       0.33       0.08     173.63      -0.19     -16.12       2.31     477.10       3.85

   20   6.2  1.5  0.5       0.00       0.00       0.00      35.72      25.39      -0.14     -95.38       9.95     -73.70    3981.93
[...]

   36    6.2  1.5 -1.5  -0.089304918   0.041430213   0.311075635   0.010482736   0.052813048   0.012331046
                        -0.011140440   0.004745714   0.200855737  -0.000468976  -0.198754111  -0.000063685

   37    7.2  1.5 -1.5   0.005439579  -0.016799432  -0.197987884  -0.049228703   0.197262908  -0.055051982
                        -0.089758681   0.038310640   0.309199193  -0.000293848   0.051561205   0.000330743

   38    8.2  1.5 -1.5   0.042883366   0.088714225  -0.035424808   0.367181815   0.025074050   0.407177321
                        -0.011832291   0.004955452   0.035720599  -0.000046477   0.012990369   0.000000745


 Composition of spin-orbit eigenvectors
 ======================================

   Nr   State  S   Sz       1        2        3        4        5        6        7        8        9       10

    1    1.2  0.5  0.5  62.108%   0.000%   4.374%   0.039%   0.034%  33.133%   0.000%   0.000%   0.000%   0.000%
    2    2.2  0.5  0.5   0.000%  33.171%   0.298%  33.050%  33.137%   0.034%   0.000%   0.000%   0.000%   0.000%
    3    3.2  0.5  0.5   0.000%   4.499%   0.553%  61.465%  33.140%   0.034%   0.000%   0.000%   0.000%   0.000%
    4    1.2  0.5 -0.5   0.000%  62.108%   0.039%   4.374%  33.133%   0.034%   0.000%   0.000%   0.000%   0.000%
    5    2.2  0.5 -0.5  33.171%   0.000%  33.050%   0.298%   0.034%  33.137%   0.000%   0.000%   0.000%   0.000%
    6    3.2  0.5 -0.5   4.499%   0.000%  61.465%   0.553%   0.034%  33.140%   0.000%   0.000%   0.000%   0.000%
    7    1.2  1.5  1.5   0.000%   0.004%   0.001%   0.060%   0.000%   0.000%  19.916%   3.860%   0.015%   0.246%
    8    2.2  1.5  1.5   0.020%   0.000%   0.001%   0.001%   0.000%   0.017%   0.360%   4.480%   0.265%  11.575%
    9    3.2  1.5  1.5   0.021%   0.000%   0.001%   0.000%   0.000%   0.018%   0.288%   0.818%   0.784%  33.252%
   10    4.2  1.5  1.5   0.000%   0.018%   0.000%   0.004%   0.049%   0.000%   5.524%   1.338%   0.627%   0.021%
   11    5.2  1.5  1.5   0.000%   0.004%   0.000%   0.018%   0.035%   0.000%   4.643%   1.073%   0.317%   0.007%
   12    6.2  1.5  1.5   0.021%   0.000%   0.001%   0.000%   0.000%   0.021%   0.009%   0.001%   0.298%  11.190%
   13    7.2  1.5  1.5   0.020%   0.000%   0.001%   0.000%   0.001%   0.020%   0.391%   1.383%   0.002%   0.239%
   14    8.2  1.5  1.5   0.000%   0.020%   0.000%   0.001%   0.081%   0.001%   0.134%   0.103%   0.917%   0.046%
   15    1.2  1.5  0.5   0.007%   0.001%   0.001%   0.000%   0.000%   0.023%   0.290%   3.486%   0.664%  16.087%
   16    2.2  1.5  0.5   0.000%   0.041%   0.000%   0.010%   0.006%   0.000%   9.243%   1.540%   3.454%   0.467%
   17    3.2  1.5  0.5   0.000%   0.016%   0.000%   0.035%   0.006%   0.000%  22.000%   5.208%   4.563%   0.118%
   18    4.2  1.5  0.5   0.004%   0.000%   0.018%   0.000%   0.000%   0.035%   1.361%   5.734%   0.022%   1.026%
   19    5.2  1.5  0.5   0.018%   0.000%   0.004%   0.000%   0.000%   0.049%   0.494%   2.211%   0.105%   4.499%
   20    6.2  1.5  0.5   0.000%   0.001%   0.000%   0.021%   0.062%   0.000%   0.008%   0.002%   1.935%   0.031%
   21    7.2  1.5  0.5   0.000%   0.001%   0.000%   0.020%   0.061%   0.000%   1.145%   0.454%   1.872%   0.222%
   22    8.2  1.5  0.5   0.001%   0.000%   0.020%   0.001%   0.001%   0.000%   0.596%   1.908%   0.220%   4.915%
   23    1.2  1.5 -0.5   0.001%   0.007%   0.000%   0.001%   0.023%   0.000%   3.486%   0.290%  16.087%   0.664%
   24    2.2  1.5 -0.5   0.041%   0.000%   0.010%   0.000%   0.000%   0.006%   1.540%   9.243%   0.467%   3.454%
   25    3.2  1.5 -0.5   0.016%   0.000%   0.035%   0.000%   0.000%   0.006%   5.208%  22.000%   0.118%   4.563%
   26    4.2  1.5 -0.5   0.000%   0.004%   0.000%   0.018%   0.035%   0.000%   5.734%   1.361%   1.026%   0.022%
   27    5.2  1.5 -0.5   0.000%   0.018%   0.000%   0.004%   0.049%   0.000%   2.211%   0.494%   4.499%   0.105%
   28    6.2  1.5 -0.5   0.001%   0.000%   0.021%   0.000%   0.000%   0.062%   0.002%   0.008%   0.031%   1.935%
   29    7.2  1.5 -0.5   0.001%   0.000%   0.020%   0.000%   0.000%   0.061%   0.454%   1.145%   0.222%   1.872%
   30    8.2  1.5 -0.5   0.000%   0.001%   0.001%   0.020%   0.000%   0.001%   1.908%   0.596%   4.915%   0.220%
   31    1.2  1.5 -1.5   0.004%   0.000%   0.060%   0.001%   0.000%   0.000%   3.860%  19.916%   0.246%   0.015%
   32    2.2  1.5 -1.5   0.000%   0.020%   0.001%   0.001%   0.017%   0.000%   4.480%   0.360%  11.575%   0.265%
   33    3.2  1.5 -1.5   0.000%   0.021%   0.000%   0.001%   0.018%   0.000%   0.818%   0.288%  33.252%   0.784%
   34    4.2  1.5 -1.5   0.018%   0.000%   0.004%   0.000%   0.000%   0.049%   1.338%   5.524%   0.021%   0.627%
   35    5.2  1.5 -1.5   0.004%   0.000%   0.018%   0.000%   0.000%   0.035%   1.073%   4.643%   0.007%   0.317%
   36    6.2  1.5 -1.5   0.000%   0.021%   0.000%   0.001%   0.021%   0.000%   0.001%   0.009%  11.190%   0.298%
   37    7.2  1.5 -1.5   0.000%   0.020%   0.000%   0.001%   0.020%   0.001%   1.383%   0.391%   0.239%   0.002%
   38    8.2  1.5 -1.5   0.020%   0.000%   0.001%   0.000%   0.001%   0.081%   0.103%   0.134%   0.046%   0.917%

   Nr   State  S   Sz      11       12       13       14       15       16       17       18       19       20

    1    1.2  0.5  0.5   0.000%   0.000%   0.000%   0.000%   0.000%   0.000%   0.000%   0.000%   0.000%   0.000%
    2    2.2  0.5  0.5   0.000%   0.000%   0.000%   0.000%   0.000%   0.000%   0.000%   0.000%   0.000%   0.000%
    3    3.2  0.5  0.5   0.000%   0.000%   0.000%   0.000%   0.000%   0.000%   0.000%   0.000%   0.000%   0.000%
    4    1.2  0.5 -0.5   0.000%   0.000%   0.000%   0.000%   0.000%   0.000%   0.000%   0.000%   0.000%   0.000%
    5    2.2  0.5 -0.5   0.000%   0.000%   0.000%   0.000%   0.000%   0.000%   0.000%   0.000%   0.000%   0.000%
    6    3.2  0.5 -0.5   0.000%   0.000%   0.000%   0.000%   0.000%   0.000%   0.000%   0.000%   0.000%   0.000%
    7    1.2  1.5  1.5   0.626%   4.070%   0.000%   0.000%   0.000%   0.000%   0.000%   0.000%   0.000%   0.000%
    8    2.2  1.5  1.5  21.481%   1.034%   0.000%   0.000%   0.000%   0.000%   0.000%   0.000%   0.000%   0.000%
    9    3.2  1.5  1.5   4.072%   0.092%   0.000%   0.000%   0.000%   0.000%   0.000%   0.000%   0.000%   0.000%
   10    4.2  1.5  1.5   0.000%   0.014%   0.014%   0.128%  40.011%   0.015%   0.081%   0.006%   1.635%   0.033%
   11    5.2  1.5  1.5   0.101%   3.442%   0.903%   8.155%   6.903%   0.001%  11.812%   4.371%   5.811%   0.118%
   12    6.2  1.5  1.5   0.090%   0.012%   0.200%   0.022%   0.002%   1.324%   2.568%   9.074%   0.438%  20.673%
   13    7.2  1.5  1.5   8.992%   0.437%  10.930%   1.090%   0.707%   0.119%   0.282%   0.728%   0.537%  20.200%
   14    8.2  1.5  1.5   0.324%   1.093%   0.127%   0.203%  36.851%   0.020%   9.808%   3.367%   0.254%   0.480%
   15    1.2  1.5  0.5  20.748%   1.483%   0.000%   0.000%   0.000%   0.000%   0.000%   0.000%   0.000%   0.000%
   16    2.2  1.5  0.5   1.328%  16.261%   0.000%   0.000%   0.000%   0.000%   0.000%   0.000%   0.000%   0.000%
   17    3.2  1.5  0.5   0.009%   0.286%   0.000%   0.000%   0.000%   0.000%   0.000%   0.000%   0.000%   0.000%
   18    4.2  1.5  0.5   1.385%   0.053%   3.066%   0.336%   0.024%   4.273%   6.580%  19.756%   0.096%   3.945%
   19    5.2  1.5  0.5   0.208%   0.007%  34.694%   3.781%   0.000%   0.030%   0.138%   0.356%   0.062%   2.861%
   20    6.2  1.5  0.5   0.158%   3.373%   0.077%   0.728%   7.646%   0.009%  22.305%   7.542%   7.250%   0.142%
   21    7.2  1.5  0.5   0.058%   1.911%   3.424%  31.465%   1.857%   0.001%   0.831%   0.285%   7.417%   0.128%
   22    8.2  1.5  0.5   6.699%   0.153%   0.089%   0.569%   0.056%   0.151%   0.015%   0.094%   0.148%  27.772%
   23    1.2  1.5 -0.5   1.483%  20.748%   0.000%   0.000%   0.000%   0.000%   0.000%   0.000%   0.000%   0.000%
   24    2.2  1.5 -0.5  16.261%   1.328%   0.000%   0.000%   0.000%   0.000%   0.000%   0.000%   0.000%   0.000%
   25    3.2  1.5 -0.5   0.286%   0.009%   0.000%   0.000%   0.000%   0.000%   0.000%   0.000%   0.000%   0.000%
   26    4.2  1.5 -0.5   0.053%   1.385%   0.336%   3.066%   4.273%   0.024%  19.756%   6.580%   3.945%   0.096%
   27    5.2  1.5 -0.5   0.007%   0.208%   3.781%  34.694%   0.030%   0.000%   0.356%   0.138%   2.861%   0.062%
   28    6.2  1.5 -0.5   3.373%   0.158%   0.728%   0.077%   0.009%   7.646%   7.542%  22.305%   0.142%   7.250%
   29    7.2  1.5 -0.5   1.911%   0.058%  31.465%   3.424%   0.001%   1.857%   0.285%   0.831%   0.128%   7.417%
   30    8.2  1.5 -0.5   0.153%   6.699%   0.569%   0.089%   0.151%   0.056%   0.094%   0.015%  27.772%   0.148%
   31    1.2  1.5 -1.5   4.070%   0.626%   0.000%   0.000%   0.000%   0.000%   0.000%   0.000%   0.000%   0.000%
   32    2.2  1.5 -1.5   1.034%  21.481%   0.000%   0.000%   0.000%   0.000%   0.000%   0.000%   0.000%   0.000%
   33    3.2  1.5 -1.5   0.092%   4.072%   0.000%   0.000%   0.000%   0.000%   0.000%   0.000%   0.000%   0.000%
   34    4.2  1.5 -1.5   0.014%   0.000%   0.128%   0.014%   0.015%  40.011%   0.006%   0.081%   0.033%   1.635%
   35    5.2  1.5 -1.5   3.442%   0.101%   8.155%   0.903%   0.001%   6.903%   4.371%  11.812%   0.118%   5.811%
   36    6.2  1.5 -1.5   0.012%   0.090%   0.022%   0.200%   1.324%   0.002%   9.074%   2.568%  20.673%   0.438%
   37    7.2  1.5 -1.5   0.437%   8.992%   1.090%  10.930%   0.119%   0.707%   0.728%   0.282%  20.200%   0.537%
   38    8.2  1.5 -1.5   1.093%   0.324%   0.203%   0.127%   0.020%  36.851%   3.367%   9.808%   0.480%   0.254%

   Nr   State  S   Sz      21       22       23       24       25       26       27       28       29       30

    1    1.2  0.5  0.5   0.001%   0.000%   0.008%   0.000%   0.000%   0.000%   0.000%   0.000%   0.000%   0.000%
    2    2.2  0.5  0.5   0.000%   0.004%   0.000%   0.004%   0.000%   0.000%   0.000%   0.000%   0.000%   0.000%
    3    3.2  0.5  0.5   0.000%   0.008%   0.000%   0.001%   0.000%   0.000%   0.000%   0.000%   0.000%   0.000%
    4    1.2  0.5 -0.5   0.000%   0.001%   0.000%   0.008%   0.000%   0.000%   0.000%   0.000%   0.000%   0.000%
    5    2.2  0.5 -0.5   0.004%   0.000%   0.004%   0.000%   0.000%   0.000%   0.000%   0.000%   0.000%   0.000%
    6    3.2  0.5 -0.5   0.008%   0.000%   0.001%   0.000%   0.000%   0.000%   0.000%   0.000%   0.000%   0.000%
    7    1.2  1.5  1.5   0.659%  39.781%   0.167%   3.213%   0.000%   0.271%   7.824%   0.386%   0.344%   0.099%
    8    2.2  1.5  1.5   1.249%   0.297%  13.502%   0.025%   0.004%  20.991%   0.336%   2.818%   0.005%   8.394%
    9    3.2  1.5  1.5   1.082%   0.048%  13.630%   0.006%   0.004%  21.212%   0.033%   0.635%   0.009%  14.988%
   10    4.2  1.5  1.5   0.020%   0.882%   0.000%   4.364%   1.756%   0.000%  16.309%   0.376%   2.044%   0.001%
   11    5.2  1.5  1.5   0.092%   4.271%   0.000%   0.901%   1.250%   0.000%  10.745%   0.256%   0.025%   0.002%
   12    6.2  1.5  1.5   0.381%   0.005%   4.872%   0.008%   0.002%   0.752%   0.001%   0.033%   0.008%  25.046%
   13    7.2  1.5  1.5   0.376%   0.010%   4.795%   0.084%   0.050%   0.743%   0.210%   7.525%   0.018%   4.083%
   14    8.2  1.5  1.5   0.008%   0.379%   0.091%   4.788%   2.955%   0.009%   0.918%   0.170%   0.998%   0.088%
   15    1.2  1.5  0.5   0.297%   0.158%   4.470%   0.363%   0.110%  27.941%   0.182%   2.520%   0.004%   2.733%
   16    2.2  1.5  0.5   0.181%   5.974%   0.077%  27.801%   6.972%   0.355%   2.613%   0.185%   0.111%   0.046%
   17    3.2  1.5  0.5   0.515%  23.421%   0.007%  10.397%   7.082%   0.024%  10.729%   0.249%   1.775%   0.002%
   18    4.2  1.5  0.5   4.271%   0.093%   0.901%   0.000%   0.000%   1.250%   0.465%  19.264%   0.007%   3.736%
   19    5.2  1.5  0.5   0.881%   0.020%   4.364%   0.000%   0.000%   1.756%   0.148%   5.910%   0.004%   8.622%
   20    6.2  1.5  0.5   0.068%   4.811%   0.001%   0.386%   2.253%   0.000%   0.304%   0.018%   1.595%   0.013%
   21    7.2  1.5  0.5   0.131%   4.748%   0.006%   0.380%   2.214%   0.000%   4.995%   0.190%   2.518%   0.419%
   22    8.2  1.5  0.5   4.785%   0.094%   0.380%   0.007%   0.042%   0.000%   0.165%   3.488%   0.122%  22.141%
   23    1.2  1.5 -0.5   0.158%   0.297%   0.363%   4.470%  27.941%   0.110%   2.520%   0.182%   2.733%   0.004%
   24    2.2  1.5 -0.5   5.974%   0.181%  27.801%   0.077%   0.355%   6.972%   0.185%   2.613%   0.046%   0.111%
   25    3.2  1.5 -0.5  23.421%   0.515%  10.397%   0.007%   0.024%   7.082%   0.249%  10.729%   0.002%   1.775%
   26    4.2  1.5 -0.5   0.093%   4.271%   0.000%   0.901%   1.250%   0.000%  19.264%   0.465%   3.736%   0.007%
   27    5.2  1.5 -0.5   0.020%   0.881%   0.000%   4.364%   1.756%   0.000%   5.910%   0.148%   8.622%   0.004%
   28    6.2  1.5 -0.5   4.811%   0.068%   0.386%   0.001%   0.000%   2.253%   0.018%   0.304%   0.013%   1.595%
   29    7.2  1.5 -0.5   4.748%   0.131%   0.380%   0.006%   0.000%   2.214%   0.190%   4.995%   0.419%   2.518%
   30    8.2  1.5 -0.5   0.094%   4.785%   0.007%   0.380%   0.000%   0.042%   3.488%   0.165%  22.141%   0.122%
   31    1.2  1.5 -1.5  39.781%   0.659%   3.213%   0.167%   0.271%   0.000%   0.386%   7.824%   0.099%   0.344%
   32    2.2  1.5 -1.5   0.297%   1.249%   0.025%  13.502%  20.991%   0.004%   2.818%   0.336%   8.394%   0.005%
   33    3.2  1.5 -1.5   0.048%   1.082%   0.006%  13.630%  21.212%   0.004%   0.635%   0.033%  14.988%   0.009%
   34    4.2  1.5 -1.5   0.882%   0.020%   4.364%   0.000%   0.000%   1.756%   0.376%  16.309%   0.001%   2.044%
   35    5.2  1.5 -1.5   4.271%   0.092%   0.901%   0.000%   0.000%   1.250%   0.256%  10.745%   0.002%   0.025%
   36    6.2  1.5 -1.5   0.005%   0.381%   0.008%   4.872%   0.752%   0.002%   0.033%   0.001%  25.046%   0.008%
   37    7.2  1.5 -1.5   0.010%   0.376%   0.084%   4.795%   0.743%   0.050%   7.525%   0.210%   4.083%   0.018%
   38    8.2  1.5 -1.5   0.379%   0.008%   4.788%   0.091%   0.009%   2.955%   0.170%   0.918%   0.088%   0.998%

   Nr   State  S   Sz      31       32       33       34       35       36       37       38

    1    1.2  0.5  0.5   0.000%   0.000%   0.001%   0.008%   0.000%   0.130%   0.000%   0.163%
    2    2.2  0.5  0.5   0.000%   0.000%   0.059%   0.011%   0.069%   0.000%   0.162%   0.000%
    3    3.2  0.5  0.5   0.000%   0.000%   0.109%   0.020%   0.009%   0.000%   0.161%   0.000%
    4    1.2  0.5 -0.5   0.000%   0.000%   0.008%   0.001%   0.130%   0.000%   0.163%   0.000%
    5    2.2  0.5 -0.5   0.000%   0.000%   0.011%   0.059%   0.000%   0.069%   0.000%   0.162%
    6    3.2  0.5 -0.5   0.000%   0.000%   0.020%   0.109%   0.000%   0.009%   0.000%   0.161%
    7    1.2  1.5  1.5   0.064%   2.742%  12.075%   2.425%   1.039%   0.064%   0.000%   0.048%
    8    2.2  1.5  1.5   4.033%   0.045%   0.370%   0.146%   0.013%   4.835%   0.000%   3.701%
    9    3.2  1.5  1.5   0.006%   0.004%   0.078%   0.290%   0.001%   4.886%   0.000%   3.740%
   10    4.2  1.5  1.5   0.000%   0.139%   2.247%   0.409%  12.060%   0.000%   9.876%   0.000%
   11    5.2  1.5  1.5   0.020%  12.977%  10.196%   1.863%   2.662%   0.000%   7.025%   0.000%
   12    6.2  1.5  1.5   3.958%   0.040%   0.174%   0.810%   0.011%  13.711%   0.015%   4.229%
   13    7.2  1.5  1.5  16.668%   0.191%   0.175%   0.809%   0.242%  13.480%   0.303%   4.157%
   14    8.2  1.5  1.5   0.410%   3.976%   0.789%   0.198%  13.482%   0.253%  16.579%   0.080%
   15    1.2  1.5  0.5  11.392%   0.220%   0.005%   0.148%   0.118%   1.614%   0.016%   4.921%
   16    2.2  1.5  0.5   0.217%   9.707%   1.991%   0.317%   9.795%   0.018%   1.232%   0.058%
   17    3.2  1.5  0.5   0.011%   0.069%   7.092%   1.291%   3.846%   0.002%   1.242%   0.006%
   18    4.2  1.5  0.5   0.549%   0.003%   1.853%  10.196%   0.000%   2.656%   0.000%   7.040%
   19    5.2  1.5  0.5   4.172%   0.012%   0.410%   2.252%   0.000%  12.047%   0.000%   9.882%
   20    6.2  1.5  0.5   0.056%  11.821%  11.297%   2.423%   0.986%   0.001%  12.677%   0.000%
   21    7.2  1.5  0.5   0.124%   5.954%  11.297%   2.438%   0.966%   0.017%  12.449%   0.000%
   22    8.2  1.5  0.5  10.366%   0.053%   2.749%  10.977%   0.018%   0.967%   0.239%   0.000%
   23    1.2  1.5 -0.5   0.220%  11.392%   0.148%   0.005%   1.614%   0.118%   4.921%   0.016%
   24    2.2  1.5 -0.5   9.707%   0.217%   0.317%   1.991%   0.018%   9.795%   0.058%   1.232%
   25    3.2  1.5 -0.5   0.069%   0.011%   1.291%   7.092%   0.002%   3.846%   0.006%   1.242%
   26    4.2  1.5 -0.5   0.003%   0.549%  10.196%   1.853%   2.656%   0.000%   7.040%   0.000%
   27    5.2  1.5 -0.5   0.012%   4.172%   2.252%   0.410%  12.047%   0.000%   9.882%   0.000%
   28    6.2  1.5 -0.5  11.821%   0.056%   2.423%  11.297%   0.001%   0.986%   0.000%  12.677%
   29    7.2  1.5 -0.5   5.954%   0.124%   2.438%  11.297%   0.017%   0.966%   0.000%  12.449%
   30    8.2  1.5 -0.5   0.053%  10.366%  10.977%   2.749%   0.967%   0.018%   0.000%   0.239%
   31    1.2  1.5 -1.5   2.742%   0.064%   2.425%  12.075%   0.064%   1.039%   0.048%   0.000%
   32    2.2  1.5 -1.5   0.045%   4.033%   0.146%   0.370%   4.835%   0.013%   3.701%   0.000%
   33    3.2  1.5 -1.5   0.004%   0.006%   0.290%   0.078%   4.886%   0.001%   3.740%   0.000%
   34    4.2  1.5 -1.5   0.139%   0.000%   0.409%   2.247%   0.000%  12.060%   0.000%   9.876%
   35    5.2  1.5 -1.5  12.977%   0.020%   1.863%  10.196%   0.000%   2.662%   0.000%   7.025%
   36    6.2  1.5 -1.5   0.040%   3.958%   0.810%   0.174%  13.711%   0.011%   4.229%   0.015%
   37    7.2  1.5 -1.5   0.191%  16.668%   0.809%   0.175%  13.480%   0.242%   4.157%   0.303%
   38    8.2  1.5 -1.5   3.976%   0.410%   0.198%   0.789%   0.253%  13.482%   0.080%  16.579%


 Property matrices transformed in SO basis (not sym. adapted)
 ============================================================

 No matrix element <i|DMX|i> larger than 5E-7
 No matrix element <i|DMX|1> larger than 5E-7

 No matrix element <i|DMY|i> larger than 5E-7
 No matrix element <i|DMY|1> larger than 5E-7

 No matrix element <i|DMZ|i> larger than 5E-7
 No matrix element <i|DMZ|1> larger than 5E-7


 **********************************************************************************************************************************
 DATASETS  * FILE   NREC   LENGTH (MB)   RECORD NAMES
              1      21       39.05       500      610      700      900      950      970     1000      129      960     1100   
                                          VAR    BASINP    GEOM    SYMINP    ZMAT    AOBASIS   BASIS     P2S    ABASIS      S 
                                         1400     1410     1420     1200     1210     1080     1700     1600     1650     1380   
                                           T        V       ECP      H0       H01     AOSYM    OPER      SMH    MOLCAS    JKOP   
                                         1700(1)
                                         OPER   

              2       7      495.94       700     1000      520     2100     2140     5203     5303   
                                         GEOM     BASIS   MCVARS     RHF     MCSCF    MRCI     MRCI   

 PROGRAMS   *        TOTAL        CI        CI        CI     MULTI   RHF-SCF       INT
 CPU TIMES  *     10722.41   8697.99   1605.91    414.06      2.64      0.10      1.42
 REAL TIME  *     10888.14 SEC
 DISK USED  *       535.08 MB (local),        4.22 GB (total)
 SF USED    *         4.09 GB
 GA USED    *         0.00 MB       (max)       0.00 MB       (current)
 **********************************************************************************************************************************

 CI/USERDEF energy=   -261.806670694039

              CI              CI           MULTI         RHF-SCF
   -261.80156996   -262.07080654   -261.09915371   -261.43869824
 **********************************************************************************************************************************
 Molpro calculation terminated with 1 warning(s)
