
 Working directory              : /wrk/irikura/molpro.7n0mIn091D/
 Global scratch directory       : /wrk/irikura/molpro.7n0mIn091D/
 Wavefunction directory         : /home/irikura/wfu/
 Main file repository           : /wrk/irikura/molpro.7n0mIn091D/

 id        : nistki

 Nodes            nprocs
 pn112695.nist.gov   16
 GA implementation: MPI file
 GA implementation (serial work in mppx): MPI file

 Using customized tuning parameters: mindgm=1; mindgv=20; mindgc=4; mindgr=1; noblas=0; minvec=7
 default implementation of scratch files=sf  


 Variables initialized (1040), CPU time= 0.01 sec
 ***,At SO-CI
                                                                                 ! active space (5/6)
                                                                                 ! additional diffuse spdf functions
 memory,2000,M;
 
 gprint,orbitals,civector;
                                                                                 !gthresh,energy=1.d-10,coeff=1.d-8;
 
 symmetry,xyz
 geometry={At};
 
 basis={
 ecp,at,ECP60MDF;
 spdfgh,at,aug-cc-pwCVQZ-PP;C; spdf,1,even,nprim=1,ratio=3.0;
 }
 
 {rhf;wf,charge=-1}
 
 NDOUB=27
 NQUAR=17
 
 {multi
     occ,7,9
     closed,7,3
     wf,charge=0,sym=2,spin=1;state,NDOUB;
     wf,charge=0,sym=2,spin=3;state,NQUAR;
     expec2,lxx,lyy,lzz;
 }
 table, energy, ll
 title, Energies and &lt;L**2&gt; values
 
 core,0,0
 
 {ci;wf,sym=2,spin=1;state,NDOUB; save,5203.2}
 hlsdiag = energd4
 {ci;wf,sym=2,spin=3;state,NQUAR; save,5303.2}
 hlsdiag(NDOUB+1) = energd4
 
 table,hlsdiag
 
 {ci;hlsmat,ecp,5203.2,5303.2;print,vls=0,hls=0}                                 !compute and diagonalize SO matrix
 Commands initialized (846), CPU time= 0.02 sec, 717 directives.
 Default parameters read. Elapsed time= 0.21 sec

 Checking input...
 Passed
1


                                         ***  PROGRAM SYSTEM MOLPRO  ***
                                       Copyright, TTI GmbH Stuttgart, 2015
                                    Version 2023.2 linked Fri Sep 22 03:27:09 2023


 **********************************************************************************************************************************
 LABEL *   At SO-CI                                                                                                                                                      
  (32 PROC) 64 bit mpp version                                                           DATE: 02-Jan-25          TIME: 13:07:06  
 **********************************************************************************************************************************

 SHA1:             3c61bfe44d37c8635c785372c339f5cbdd4e4b59
 **********************************************************************************************************************************

 Memory per process:      2000 MW
 Total memory per node:  32000 MW

 GA preallocation disabled
 GA check disabled

 Variable memory set to 2000.0 MW


 ZSYMEL=XYZ

 SETTING BASIS          =    USERDEF


 Recomputing integrals since basis changed


 Using spherical harmonics

 Library entry At   ECP ECP60MDF                 selected for group  1
 Library entry AT     S AUG-CC-PWCVQZ-PP     selected for orbital group  1
 Even tempered At S diffuse               selected for group 1    nprim= 1    centre=  0.010    ratio= 3.000    dratio= 1.000
 Library entry AT     P AUG-CC-PWCVQZ-PP     selected for orbital group  1
 Even tempered At P diffuse               selected for group 1    nprim= 1    centre=  0.008    ratio= 3.000    dratio= 1.000
 Library entry AT     D AUG-CC-PWCVQZ-PP     selected for orbital group  1
 Even tempered At D diffuse               selected for group 1    nprim= 1    centre=  0.018    ratio= 3.000    dratio= 1.000
 Library entry AT     F AUG-CC-PWCVQZ-PP     selected for orbital group  1
 Even tempered At F diffuse               selected for group 1    nprim= 1    centre=  0.040    ratio= 3.000    dratio= 1.000
 Library entry AT     G AUG-CC-PWCVQZ-PP     selected for orbital group  1
 Library entry AT     H AUG-CC-PWCVQZ-PP     selected for orbital group  1


 PROGRAM * SEWARD (Integral evaluation for generally contracted gaussian basis sets)     Author: Roland Lindh, 1990

 Geometry written to block  1 of record 700

 Orientation using atomic masses  
 Molecule type: Atom
 User-specified symmetry elements: XYZ
 Symmetry elements: XYZ
 Rotational constants:       0.0000000      0.0000000      0.0000000 GHz  (calculated with average atomic masses)

 Point group  Ci  



 ATOMIC COORDINATES

 NR  ATOM    CHARGE       X              Y              Z

   1  AT     25.00    0.000000000    0.000000000    0.000000000

 NUCLEAR CHARGE:                   25
 NUMBER OF PRIMITIVE AOS:         314
 NUMBER OF SYMMETRY AOS:          243
 NUMBER OF CONTRACTIONS:          185   (   92Ag  +   93Au  )
 NUMBER OF INNER CORE ORBITALS:     0   (    0Ag  +    0Au  )
 NUMBER OF OUTER CORE ORBITALS:     9   (    6Ag  +    3Au  )
 NUMBER OF VALENCE ORBITALS:        4   (    1Ag  +    3Au  )


 LX: Ag           LY: Ag           LZ: Ag 


 NUCLEAR REPULSION ENERGY    0.00000000

 EXTRA SYMMETRY OF AOS IN SYMMETRY 1:   1 1 1 1 1 1 1 1 1 1   1 2 3 4 5 6 2 3 4 5   6 2 3 4 5 6 2 3 4 5   6 2 3 4 5 6 2 3 4 5
                                        6 2 3 4 5 6 2 3 4 5   6 2 3 4 5 6 7 8 910  1112131415 7 8 91011  12131415 7 8 9101112
                                       131415 7 8 910111213  1415
 EXTRA SYMMETRY OF AOS IN SYMMETRY 2:   1 2 3 1 2 3 1 2 3 1   2 3 1 2 3 1 2 3 1 2   3 1 2 3 1 2 3 1 2 3   1 2 3 4 5 6 7 8 910
                                        4 5 6 7 8 910 4 5 6   7 8 910 4 5 6 7 8 9  10 4 5 6 7 8 910 4 5   6 7 8 910 4 5 6 7 8
                                        9101112131415161718  192021


 Eigenvalues of metric

         1 0.235E-05 0.327E-03 0.327E-03 0.327E-03 0.327E-03 0.327E-03 0.431E-03 0.126E-02
         2 0.116E-05 0.116E-05 0.116E-05 0.381E-03 0.381E-03 0.381E-03 0.368E-02 0.368E-02


 Contracted 2-electron integrals neglected if value below      1.0D-12
 AO integral compression algorithm  1   Integral accuracy      1.0D-12

     165.675 MB (compressed) written to integral file ( 15.4%)

     Node minimum: 5.767 MB, node maximum: 17.564 MB


 NUMBER OF SORTED TWO-ELECTRON INTEGRALS:    4674546.     BUFFER LENGTH:  32768
 NUMBER OF SEGMENTS:   1  SEGMENT LENGTH:    4674546      RECORD LENGTH: 524288

 Memory used in sort:       5.23 MW

 SORT1 READ   134353782. AND WROTE      861817. INTEGRALS IN      3 RECORDS. CPU TIME:     0.65 SEC, REAL TIME:     0.67 SEC
 SORT2 READ    13879740. AND WROTE    74805201. INTEGRALS IN    704 RECORDS. CPU TIME:     0.10 SEC, REAL TIME:     0.12 SEC

 Node minimum:     4669686.  Node maximum:     4689006. integrals

 OPERATOR DM      FOR CENTER  0  COORDINATES:    0.000000    0.000000    0.000000


 **********************************************************************************************************************************
 DATASETS  * FILE   NREC   LENGTH (MB)   RECORD NAMES
              1      19       29.52       500      610      700      900      950      970     1000      129      960     1100   
                                          VAR    BASINP    GEOM    SYMINP    ZMAT    AOBASIS   BASIS     P2S    ABASIS      S 
                                         1400     1410     1420     1200     1210     1080     1700     1600     1650   
                                           T        V       ECP      H0       H01     AOSYM    OPER      SMH    MOLCAS    

 PROGRAMS   *        TOTAL       INT
 CPU TIMES  *         2.89      2.54
 REAL TIME  *         4.13 SEC
 DISK USED  *        29.89 MB (local),      783.67 MB (total)
 GA USED    *         0.00 MB       (max)       0.00 MB       (current)
 **********************************************************************************************************************************


 Program * Restricted Hartree-Fock

 Orbital guess generated from atomic densities.

 Initial occupancy:   7   6

 NELEC=   26   SYM=1   MS2= 0   THRE=1.0D-08   THRD=3.2D-06   THRG=3.2D-06  HFMA2=F  DIIS_START=2   DIIS_MAX=10   DIIS_INCORE=F

 Level shifts:    0.00 (CLOSED)    0.00 (OPEN)    0.30 (GAP_MIN)

 ITER           ETOT              DE          GRAD        DDIFF     DIIS  NEXP   TIME(IT)  TIME(TOT)  DIAG
   1     -261.41333349    -261.41333349     0.00D+00     0.77D-01     0     0       0.02      0.05    start
   2     -261.43616147      -0.02282798     0.33D-02     0.63D-02     1     0       0.03      0.08    diag
   3     -261.43852196      -0.00236049     0.19D-02     0.16D-02     2     0       0.02      0.10    diag
   4     -261.43902731      -0.00050534     0.36D-03     0.71D-03     3     0       0.03      0.13    diag
   5     -261.43912393      -0.00009662     0.13D-03     0.36D-03     4     0       0.02      0.15    diag
   6     -261.43913340      -0.00000947     0.32D-04     0.15D-03     5     0       0.03      0.18    diag
   7     -261.43913387      -0.00000047     0.64D-05     0.39D-04     6     0       0.03      0.21    diag
   8     -261.43913389      -0.00000002     0.14D-05     0.70D-05     7     0       0.02      0.23    fixocc
   9     -261.43913390      -0.00000000     0.30D-06     0.32D-05     8     0       0.03      0.26    diag
  10     -261.43913390      -0.00000000     0.59D-07     0.31D-06     9     0       0.02      0.28    diag/orth
  11     -261.43913390      -0.00000000     0.17D-07     0.35D-07     0     0       0.03      0.31    diag

 Final occupancy:   7   6

 !RHF STATE 1.1 Energy               -261.439133895359
  RHF One-electron energy            -461.393585021304
  RHF Two-electron energy             199.954451125945
  RHF Kinetic energy                   82.729310301901
  RHF Nuclear energy                    0.000000000000
  RHF Virial quotient                  -3.160175431673

 !RHF STATE 1.1 Dipole moment           0.00000000     0.00000000     0.00000000
 Dipole moment /Debye                   0.00000000     0.00000000     0.00000000

 ELECTRON ORBITALS
 =================

  Orbital  Occupation    Energy    Cen Mu Typ  Coefficients
    1.1     2.00000    -7.53204     1  1  s    1.00163
    2.1     2.00000    -1.54348     1  1  d0   0.63098    1  1  d2+  0.77484
    3.1     2.00000    -1.54348     1  1  d2-  0.90196    1  1  d1-  0.42834
    4.1     2.00000    -1.54348     1  1  d2- -0.42769    1  1  d1-  0.88376
    5.1     2.00000    -1.54348     1  1  d0   0.77485    1  1  d2+ -0.63098
    6.1     2.00000    -1.54348     1  1  d1+  0.98105
    7.1     2.00000    -0.67783     1  2  s    0.97685
    1.2     2.00000    -4.82203     1  1  pz   0.99996
    2.2     2.00000    -4.82203     1  1  px   0.99996
    3.2     2.00000    -4.82203     1  1  py   0.99996
    4.2     2.00000    -0.11634     1  2  px   0.91949
    5.2     2.00000    -0.11634     1  2  pz   0.91949
    6.2     2.00000    -0.11634     1  2  py   0.91949


 HOMO      6.2    -0.116340 =      -3.1658eV
 LUMO      7.2     0.090582 =       2.4648eV
 LUMO-HOMO         0.206921 =       5.6306eV

 Orbitals saved in record  2100.2


 **********************************************************************************************************************************
 DATASETS  * FILE   NREC   LENGTH (MB)   RECORD NAMES
              1      19       29.52       500      610      700      900      950      970     1000      129      960     1100   
                                          VAR    BASINP    GEOM    SYMINP    ZMAT    AOBASIS   BASIS     P2S    ABASIS      S 
                                         1400     1410     1420     1200     1210     1080     1700     1600     1650   
                                           T        V       ECP      H0       H01     AOSYM    OPER      SMH    MOLCAS    

              2       4        0.67       700     1000      520     2100   
                                         GEOM     BASIS   MCVARS     RHF  

 PROGRAMS   *        TOTAL   RHF-SCF       INT
 CPU TIMES  *         3.26      0.36      2.54
 REAL TIME  *         5.58 SEC
 DISK USED  *        31.48 MB (local),      809.01 MB (total)
 GA USED    *         0.00 MB       (max)       0.00 MB       (current)
 **********************************************************************************************************************************
 SETTING NDOUB          =        27.00000000                                  
 SETTING NQUAR          =        17.00000000                                  

 PROGRAM * MULTI (Direct Multiconfiguration SCF)       Authors: P.J. Knowles, H.-J. Werner (1984)
                                                                D.A. Kreplin, P.J. Knowles, H.-J. Werner (2019)

 Number of closed-shell orbitals:  10 (    7    3)
 Number of active  orbitals:        6 (    0    6)
 Number of external orbitals:     169 (   85   84)

 State symmetry 1

 Number of active electrons:   5    Spin symmetry=Doublet   Space symmetry=2
 Number of states:            27
 Number of CSFs:             210   (300 determinants, 300 intermediate states)

 State symmetry 2

 Number of active electrons:   5    Spin symmetry=Quartet   Space symmetry=2
 Number of states:            17
 Number of CSFs:              84   (90 determinants, 90 intermediate states)

 Molecular orbitals read from record     2100.2  Type=RHF/CANONICAL  
 *** IN SYMMETRY 1 ORBITAL  2 SYMMETRY CONTAMINATION OF 0.450D+00 HAS BEEN REMOVED
 *** IN SYMMETRY 1 ORBITAL  3 SYMMETRY CONTAMINATION OF 0.343D+00 HAS BEEN REMOVED
 *** IN SYMMETRY 1 ORBITAL  4 SYMMETRY CONTAMINATION OF 0.410D+00 HAS BEEN REMOVED
 *** IN SYMMETRY 1 ORBITAL  5 SYMMETRY CONTAMINATION OF 0.450D+00 HAS BEEN REMOVED
 *** IN SYMMETRY 1 ORBITAL  6 SYMMETRY CONTAMINATION OF 0.191D+00 HAS BEEN REMOVED

 EXTRA SYMMETRY OF MOS IN SYMMETRY 1:   1 5 3 6 2 4 1 1 2 4   6 3 5 1 2 3 5 6 4 1   2 4 6 5 31415 7 812  131011 9 1 2 4 6 3 5
                                       12 815141310 711 9 2   6 4 3 5 11514 81213  10 711 9 6 4 3 5 2 1  1514 812 711 91310 6
                                        4 5 3 2 1 6 5 4 3 2   1 1
 *** IN SYMMETRY 2 ORBITAL  1 SYMMETRY CONTAMINATION OF 0.282D-02 HAS BEEN REMOVED
 *** IN SYMMETRY 2 ORBITAL  2 SYMMETRY CONTAMINATION OF 0.142D-02 HAS BEEN REMOVED
 *** IN SYMMETRY 2 ORBITAL  3 SYMMETRY CONTAMINATION OF 0.323D-02 HAS BEEN REMOVED
 *** IN SYMMETRY 2 ORBITAL  7 SYMMETRY CONTAMINATION OF 0.496D-04 HAS BEEN REMOVED
 *** IN SYMMETRY 2 ORBITAL  9 SYMMETRY CONTAMINATION OF 0.496D-04 HAS BEEN REMOVED
 EXTRA SYMMETRY OF MOS IN SYMMETRY 2:   3 1 2 1 3 2 3 1 2 3   1 2 810 9 7 4 5 6 3   2 1 810 5 4 6 9 7 3   1 2 5 4 810 6 7 910
                                        8 5 4 6 7 9 2 1 310   8 6 5 4 7 916141915  17182012211311 3 1 2   6 7 910 8 5 4 1 2 3
                                        6 5 4 7 910 8 3 1 2   3 1 2

 Wavefunction dump at record             2140.2

 Convergence thresholds  0.10E-04 (gradient)  0.10E-05 (energy)

 Weight factors for state symmetry  1:    0.02273   0.02273   0.02273   0.02273   0.02273   0.02273   0.02273   0.02273
                                          0.02273   0.02273   0.02273   0.02273   0.02273   0.02273   0.02273   0.02273
                                          0.02273   0.02273   0.02273   0.02273   0.02273   0.02273   0.02273   0.02273
                                          0.02273   0.02273   0.02273
 Weight factors for state symmetry  2:    0.02273   0.02273   0.02273   0.02273   0.02273   0.02273   0.02273   0.02273
                                          0.02273   0.02273   0.02273   0.02273   0.02273   0.02273   0.02273   0.02273
                                          0.02273
 
 Number of orbital rotations:  1369  ( 18 closed/active, 847 closed/virtual, 0 active/active, 504 active/virtual )
 Total number of variables:    10999
 
 Second-order MCSCF: L-BFGS accelerated
 
 ITER  MIC  NCI  NEG     ENERGY(VAR)    ENERGY(PROJ) ENERGY CHANGE       GRAD(0)  GRAD(ORB)   GRAD(CI)      STEP      TIME
   1    8   14    3   -260.87903557    -261.02996516   -0.15092958    0.41473383 0.00006930 0.00000000  0.13E+01      1.40
   2    7   12    0   -261.02658737    -261.02848770   -0.00190033    0.02939796 0.00000061 0.00000000  0.23E+00      2.71
   3    9   18    0   -261.02848198    -261.02848203   -0.00000005    0.00009001 0.00000001 0.00000000  0.15E-02      4.15
   4    8   16    0   -261.02848203    -261.02848203    0.00000000    0.00000001 0.00000001 0.00000000  0.20E-06      5.37

 CONVERGENCE REACHED!  Final gradient:    0.00000001 ( 0.11E-07)
                       Final energy:   -261.02848203
 
 Results for state 1.2 Doublet
 =============================
 !MCSCF STATE 1.2 Doublet Energy              -261.336749121978
 Nuclear energy                                  0.00000000
 Kinetic energy                                 83.32379755
 One electron energy                          -455.98813896
 Two electron energy                           194.65138984
 Virial ratio                                    4.13639989
 
 !MCSCF STATE 1.2 Doublet Dipole moment          0.00000000     0.00000000     0.00000000
 Dipole moment /Debye                            0.00000000     0.00000000     0.00000000
 
 Results for state 2.2 Doublet
 =============================
 !MCSCF STATE 2.2 Doublet Energy              -261.336749121780
 Nuclear energy                                  0.00000000
 Kinetic energy                                 83.32379756
 One electron energy                          -455.98813897
 Two electron energy                           194.65138985
 Virial ratio                                    4.13639989
 
 !MCSCF STATE 2.2 Doublet Dipole moment          0.00000000     0.00000000     0.00000000
 Dipole moment /Debye                            0.00000000     0.00000000     0.00000000
 
 Results for state 3.2 Doublet
 =============================
 !MCSCF STATE 3.2 Doublet Energy              -261.336749121062
 Nuclear energy                                  0.00000000
 Kinetic energy                                 83.32379757
 One electron energy                          -455.98813900
 Two electron energy                           194.65138988
 Virial ratio                                    4.13639989
 
 !MCSCF STATE 3.2 Doublet Dipole moment          0.00000000     0.00000000     0.00000000
 Dipole moment /Debye                            0.00000000     0.00000000     0.00000000
 
 Results for state 4.2 Doublet
 =============================
 !MCSCF STATE 4.2 Doublet Energy              -261.097899550482
 Nuclear energy                                  0.00000000
 Kinetic energy                                 82.58765435
 One electron energy                          -449.91459137
 Two electron energy                           188.81669182
 Virial ratio                                    4.16146404
 
 !MCSCF STATE 4.2 Doublet Dipole moment          0.00000000     0.00000000     0.00000000
 Dipole moment /Debye                            0.00000000     0.00000000     0.00000000
 
 Results for state 5.2 Doublet
 =============================
 !MCSCF STATE 5.2 Doublet Energy              -261.097899550469
 Nuclear energy                                  0.00000000
 Kinetic energy                                 82.58765435
 One electron energy                          -449.91459137
 Two electron energy                           188.81669182
 Virial ratio                                    4.16146404
 
 !MCSCF STATE 5.2 Doublet Dipole moment          0.00000000     0.00000000     0.00000000
 Dipole moment /Debye                            0.00000000     0.00000000     0.00000000
 
 Results for state 6.2 Doublet
 =============================
 !MCSCF STATE 6.2 Doublet Energy              -261.097899550211
 Nuclear energy                                  0.00000000
 Kinetic energy                                 82.58765435
 One electron energy                          -449.91459140
 Two electron energy                           188.81669185
 Virial ratio                                    4.16146404
 
 !MCSCF STATE 6.2 Doublet Dipole moment          0.00000000     0.00000000     0.00000000
 Dipole moment /Debye                            0.00000000     0.00000000     0.00000000
 
 Results for state 7.2 Doublet
 =============================
 !MCSCF STATE 7.2 Doublet Energy              -261.097899550089
 Nuclear energy                                  0.00000000
 Kinetic energy                                 82.58765436
 One electron energy                          -449.91459142
 Two electron energy                           188.81669186
 Virial ratio                                    4.16146404
 
 !MCSCF STATE 7.2 Doublet Dipole moment          0.00000000     0.00000000     0.00000000
 Dipole moment /Debye                            0.00000000     0.00000000     0.00000000
 
 Results for state 8.2 Doublet
 =============================
 !MCSCF STATE 8.2 Doublet Energy              -261.097899550033
 Nuclear energy                                  0.00000000
 Kinetic energy                                 82.58765436
 One electron energy                          -449.91459142
 Two electron energy                           188.81669187
 Virial ratio                                    4.16146404
 
 !MCSCF STATE 8.2 Doublet Dipole moment          0.00000000     0.00000000     0.00000000
 Dipole moment /Debye                            0.00000000     0.00000000     0.00000000
 
 Results for state 9.2 Doublet
 =============================
 !MCSCF STATE 9.2 Doublet Energy              -261.091856069346
 Nuclear energy                                  0.00000000
 Kinetic energy                                 82.58343358
 One electron energy                          -449.90064781
 Two electron energy                           188.80879174
 Virial ratio                                    4.16155244
 
 !MCSCF STATE 9.2 Doublet Dipole moment          0.00000000     0.00000000     0.00000000
 Dipole moment /Debye                            0.00000000     0.00000000     0.00000000
 
 Results for state 10.2 Doublet
 ==============================
 !MCSCF STATE 10.2 Doublet Energy             -261.090470316785
 Nuclear energy                                  0.00000000
 Kinetic energy                                 82.66269972
 One electron energy                          -450.23891140
 Two electron energy                           189.14844108
 Virial ratio                                    4.15850403
 
 !MCSCF STATE 10.2 Doublet Dipole moment         0.00000000     0.00000000     0.00000000
 Dipole moment /Debye                            0.00000000     0.00000000     0.00000000
 
 Results for state 11.2 Doublet
 ==============================
 !MCSCF STATE 11.2 Doublet Energy             -261.090470316269
 Nuclear energy                                  0.00000000
 Kinetic energy                                 82.66269972
 One electron energy                          -450.23891142
 Two electron energy                           189.14844111
 Virial ratio                                    4.15850403
 
 !MCSCF STATE 11.2 Doublet Dipole moment         0.00000000     0.00000000     0.00000000
 Dipole moment /Debye                            0.00000000     0.00000000     0.00000000
 
 Results for state 12.2 Doublet
 ==============================
 !MCSCF STATE 12.2 Doublet Energy             -261.090470316038
 Nuclear energy                                  0.00000000
 Kinetic energy                                 82.66269972
 One electron energy                          -450.23891144
 Two electron energy                           189.14844112
 Virial ratio                                    4.15850403
 
 !MCSCF STATE 12.2 Doublet Dipole moment         0.00000000     0.00000000     0.00000000
 Dipole moment /Debye                            0.00000000     0.00000000     0.00000000
 
 Results for state 13.2 Doublet
 ==============================
 !MCSCF STATE 13.2 Doublet Energy             -261.054646730655
 Nuclear energy                                  0.00000000
 Kinetic energy                                 82.56468472
 One electron energy                          -449.83561448
 Two electron energy                           188.78096775
 Virial ratio                                    4.16181970
 
 !MCSCF STATE 13.2 Doublet Dipole moment         0.00000000     0.00000000     0.00000000
 Dipole moment /Debye                            0.00000000     0.00000000     0.00000000
 
 Results for state 14.2 Doublet
 ==============================
 !MCSCF STATE 14.2 Doublet Energy             -261.054646730654
 Nuclear energy                                  0.00000000
 Kinetic energy                                 82.56468472
 One electron energy                          -449.83561448
 Two electron energy                           188.78096775
 Virial ratio                                    4.16181970
 
 !MCSCF STATE 14.2 Doublet Dipole moment         0.00000000     0.00000000     0.00000000
 Dipole moment /Debye                            0.00000000     0.00000000     0.00000000
 
 Results for state 15.2 Doublet
 ==============================
 !MCSCF STATE 15.2 Doublet Energy             -261.054646730381
 Nuclear energy                                  0.00000000
 Kinetic energy                                 82.56468473
 One electron energy                          -449.83561452
 Two electron energy                           188.78096779
 Virial ratio                                    4.16181970
 
 !MCSCF STATE 15.2 Doublet Dipole moment         0.00000000     0.00000000     0.00000000
 Dipole moment /Debye                            0.00000000     0.00000000     0.00000000
 
 Results for state 16.2 Doublet
 ==============================
 !MCSCF STATE 16.2 Doublet Energy             -261.054646730367
 Nuclear energy                                  0.00000000
 Kinetic energy                                 82.56468473
 One electron energy                          -449.83561453
 Two electron energy                           188.78096780
 Virial ratio                                    4.16181970
 
 !MCSCF STATE 16.2 Doublet Dipole moment         0.00000000     0.00000000     0.00000000
 Dipole moment /Debye                            0.00000000     0.00000000     0.00000000
 
 Results for state 17.2 Doublet
 ==============================
 !MCSCF STATE 17.2 Doublet Energy             -261.054646730239
 Nuclear energy                                  0.00000000
 Kinetic energy                                 82.56468473
 One electron energy                          -449.83561454
 Two electron energy                           188.78096781
 Virial ratio                                    4.16181970
 
 !MCSCF STATE 17.2 Doublet Dipole moment         0.00000000     0.00000000     0.00000000
 Dipole moment /Debye                            0.00000000     0.00000000     0.00000000
 
 Results for state 18.2 Doublet
 ==============================
 !MCSCF STATE 18.2 Doublet Energy             -261.054646730148
 Nuclear energy                                  0.00000000
 Kinetic energy                                 82.56468474
 One electron energy                          -449.83561456
 Two electron energy                           188.78096783
 Virial ratio                                    4.16181970
 
 !MCSCF STATE 18.2 Doublet Dipole moment         0.00000000     0.00000000     0.00000000
 Dipole moment /Debye                            0.00000000     0.00000000     0.00000000
 
 Results for state 19.2 Doublet
 ==============================
 !MCSCF STATE 19.2 Doublet Energy             -261.054646730124
 Nuclear energy                                  0.00000000
 Kinetic energy                                 82.56468474
 One electron energy                          -449.83561456
 Two electron energy                           188.78096783
 Virial ratio                                    4.16181970
 
 !MCSCF STATE 19.2 Doublet Dipole moment         0.00000000     0.00000000     0.00000000
 Dipole moment /Debye                            0.00000000     0.00000000     0.00000000
 
 Results for state 20.2 Doublet
 ==============================
 !MCSCF STATE 20.2 Doublet Energy             -261.048220657506
 Nuclear energy                                  0.00000000
 Kinetic energy                                 82.70174635
 One electron energy                          -450.37716352
 Two electron energy                           189.32894286
 Virial ratio                                    4.15650191
 
 !MCSCF STATE 20.2 Doublet Dipole moment         0.00000000     0.00000000     0.00000000
 Dipole moment /Debye                            0.00000000     0.00000000     0.00000000
 
 Results for state 21.2 Doublet
 ==============================
 !MCSCF STATE 21.2 Doublet Energy             -261.048220657489
 Nuclear energy                                  0.00000000
 Kinetic energy                                 82.70174635
 One electron energy                          -450.37716352
 Two electron energy                           189.32894286
 Virial ratio                                    4.15650191
 
 !MCSCF STATE 21.2 Doublet Dipole moment         0.00000000     0.00000000     0.00000000
 Dipole moment /Debye                            0.00000000     0.00000000     0.00000000
 
 Results for state 22.2 Doublet
 ==============================
 !MCSCF STATE 22.2 Doublet Energy             -261.048220657470
 Nuclear energy                                  0.00000000
 Kinetic energy                                 82.70174635
 One electron energy                          -450.37716353
 Two electron energy                           189.32894287
 Virial ratio                                    4.15650191
 
 !MCSCF STATE 22.2 Doublet Dipole moment         0.00000000     0.00000000     0.00000000
 Dipole moment /Debye                            0.00000000     0.00000000     0.00000000
 
 Results for state 23.2 Doublet
 ==============================
 !MCSCF STATE 23.2 Doublet Energy             -261.046799531717
 Nuclear energy                                  0.00000000
 Kinetic energy                                 82.57075406
 One electron energy                          -449.85699741
 Two electron energy                           188.81019788
 Virial ratio                                    4.16149226
 
 !MCSCF STATE 23.2 Doublet Dipole moment         0.00000000     0.00000000     0.00000000
 Dipole moment /Debye                            0.00000000     0.00000000     0.00000000
 
 Results for state 24.2 Doublet
 ==============================
 !MCSCF STATE 24.2 Doublet Energy             -261.046799531637
 Nuclear energy                                  0.00000000
 Kinetic energy                                 82.57075406
 One electron energy                          -449.85699741
 Two electron energy                           188.81019788
 Virial ratio                                    4.16149226
 
 !MCSCF STATE 24.2 Doublet Dipole moment         0.00000000     0.00000000     0.00000000
 Dipole moment /Debye                            0.00000000     0.00000000     0.00000000
 
 Results for state 25.2 Doublet
 ==============================
 !MCSCF STATE 25.2 Doublet Energy             -261.046799531482
 Nuclear energy                                  0.00000000
 Kinetic energy                                 82.57075406
 One electron energy                          -449.85699743
 Two electron energy                           188.81019790
 Virial ratio                                    4.16149226
 
 !MCSCF STATE 25.2 Doublet Dipole moment         0.00000000     0.00000000     0.00000000
 Dipole moment /Debye                            0.00000000     0.00000000     0.00000000
 
 Results for state 26.2 Doublet
 ==============================
 !MCSCF STATE 26.2 Doublet Energy             -261.046799531127
 Nuclear energy                                  0.00000000
 Kinetic energy                                 82.57075406
 One electron energy                          -449.85699746
 Two electron energy                           188.81019793
 Virial ratio                                    4.16149226
 
 !MCSCF STATE 26.2 Doublet Dipole moment         0.00000000     0.00000000     0.00000000
 Dipole moment /Debye                            0.00000000     0.00000000     0.00000000
 
 Results for state 27.2 Doublet
 ==============================
 !MCSCF STATE 27.2 Doublet Energy             -261.046799531114
 Nuclear energy                                  0.00000000
 Kinetic energy                                 82.57075406
 One electron energy                          -449.85699746
 Two electron energy                           188.81019793
 Virial ratio                                    4.16149226
 
 !MCSCF STATE 27.2 Doublet Dipole moment         0.00000000     0.00000000     0.00000000
 Dipole moment /Debye                            0.00000000     0.00000000     0.00000000
 
 Results for state 1.2 Quartet
 =============================
 !MCSCF STATE 1.2 Quartet Energy              -261.106527666842
 Nuclear energy                                  0.00000000
 Kinetic energy                                 82.56362630
 One electron energy                          -449.83062847
 Two electron energy                           188.72410081
 Virial ratio                                    4.16248861
 
 !MCSCF STATE 1.2 Quartet Dipole moment          0.00000000     0.00000000     0.00000000
 Dipole moment /Debye                            0.00000000     0.00000000     0.00000000
 
 Results for state 2.2 Quartet
 =============================
 !MCSCF STATE 2.2 Quartet Energy              -261.106527666836
 Nuclear energy                                  0.00000000
 Kinetic energy                                 82.56362630
 One electron energy                          -449.83062848
 Two electron energy                           188.72410082
 Virial ratio                                    4.16248861
 
 !MCSCF STATE 2.2 Quartet Dipole moment          0.00000000     0.00000000     0.00000000
 Dipole moment /Debye                            0.00000000     0.00000000     0.00000000
 
 Results for state 3.2 Quartet
 =============================
 !MCSCF STATE 3.2 Quartet Energy              -261.106527666801
 Nuclear energy                                  0.00000000
 Kinetic energy                                 82.56362630
 One electron energy                          -449.83062845
 Two electron energy                           188.72410078
 Virial ratio                                    4.16248861
 
 !MCSCF STATE 3.2 Quartet Dipole moment          0.00000000     0.00000000     0.00000000
 Dipole moment /Debye                            0.00000000     0.00000000     0.00000000
 
 Results for state 4.2 Quartet
 =============================
 !MCSCF STATE 4.2 Quartet Energy              -261.100609223334
 Nuclear energy                                  0.00000000
 Kinetic energy                                 82.57206328
 One electron energy                          -449.86088790
 Two electron energy                           188.76027868
 Virial ratio                                    4.16209380
 
 !MCSCF STATE 4.2 Quartet Dipole moment          0.00000000     0.00000000     0.00000000
 Dipole moment /Debye                            0.00000000     0.00000000     0.00000000
 
 Results for state 5.2 Quartet
 =============================
 !MCSCF STATE 5.2 Quartet Energy              -261.100609223327
 Nuclear energy                                  0.00000000
 Kinetic energy                                 82.57206328
 One electron energy                          -449.86088790
 Two electron energy                           188.76027868
 Virial ratio                                    4.16209380
 
 !MCSCF STATE 5.2 Quartet Dipole moment          0.00000000     0.00000000     0.00000000
 Dipole moment /Debye                            0.00000000     0.00000000     0.00000000
 
 Results for state 6.2 Quartet
 =============================
 !MCSCF STATE 6.2 Quartet Energy              -261.100609223191
 Nuclear energy                                  0.00000000
 Kinetic energy                                 82.57206328
 One electron energy                          -449.86088793
 Two electron energy                           188.76027871
 Virial ratio                                    4.16209380
 
 !MCSCF STATE 6.2 Quartet Dipole moment          0.00000000     0.00000000     0.00000000
 Dipole moment /Debye                            0.00000000     0.00000000     0.00000000
 
 Results for state 7.2 Quartet
 =============================
 !MCSCF STATE 7.2 Quartet Energy              -261.100609223115
 Nuclear energy                                  0.00000000
 Kinetic energy                                 82.57206328
 One electron energy                          -449.86088794
 Two electron energy                           188.76027872
 Virial ratio                                    4.16209380
 
 !MCSCF STATE 7.2 Quartet Dipole moment          0.00000000     0.00000000     0.00000000
 Dipole moment /Debye                            0.00000000     0.00000000     0.00000000
 
 Results for state 8.2 Quartet
 =============================
 !MCSCF STATE 8.2 Quartet Energy              -261.100609223086
 Nuclear energy                                  0.00000000
 Kinetic energy                                 82.57206328
 One electron energy                          -449.86088795
 Two electron energy                           188.76027873
 Virial ratio                                    4.16209380
 
 !MCSCF STATE 8.2 Quartet Dipole moment          0.00000000     0.00000000     0.00000000
 Dipole moment /Debye                            0.00000000     0.00000000     0.00000000
 
 Results for state 9.2 Quartet
 =============================
 !MCSCF STATE 9.2 Quartet Energy              -261.091958689347
 Nuclear energy                                  0.00000000
 Kinetic energy                                 82.58209121
 One electron energy                          -449.89520788
 Two electron energy                           188.80324919
 Virial ratio                                    4.16160508
 
 !MCSCF STATE 9.2 Quartet Dipole moment          0.00000000     0.00000000     0.00000000
 Dipole moment /Debye                            0.00000000     0.00000000     0.00000000
 
 Results for state 10.2 Quartet
 ==============================
 !MCSCF STATE 10.2 Quartet Energy             -260.721297054170
 Nuclear energy                                  0.00000000
 Kinetic energy                                 81.63518685
 One electron energy                          -442.94034769
 Two electron energy                           182.21905064
 Virial ratio                                    4.19373676
 
 !MCSCF STATE 10.2 Quartet Dipole moment         0.00000000     0.00000000     0.00000000
 Dipole moment /Debye                            0.00000000     0.00000000     0.00000000
 
 Results for state 11.2 Quartet
 ==============================
 !MCSCF STATE 11.2 Quartet Energy             -260.721297053745
 Nuclear energy                                  0.00000000
 Kinetic energy                                 81.63518685
 One electron energy                          -442.94034766
 Two electron energy                           182.21905061
 Virial ratio                                    4.19373676
 
 !MCSCF STATE 11.2 Quartet Dipole moment         0.00000000     0.00000000     0.00000000
 Dipole moment /Debye                            0.00000000     0.00000000     0.00000000
 
 Results for state 12.2 Quartet
 ==============================
 !MCSCF STATE 12.2 Quartet Energy             -260.721297052729
 Nuclear energy                                  0.00000000
 Kinetic energy                                 81.63518684
 One electron energy                          -442.94034758
 Two electron energy                           182.21905053
 Virial ratio                                    4.19373676
 
 !MCSCF STATE 12.2 Quartet Dipole moment         0.00000000     0.00000000     0.00000000
 Dipole moment /Debye                            0.00000000     0.00000000     0.00000000
 
 Results for state 13.2 Quartet
 ==============================
 !MCSCF STATE 13.2 Quartet Energy             -260.710106271982
 Nuclear energy                                  0.00000000
 Kinetic energy                                 81.61332778
 One electron energy                          -442.86870232
 Two electron energy                           182.15859605
 Virial ratio                                    4.19445504
 
 !MCSCF STATE 13.2 Quartet Dipole moment         0.00000000     0.00000000     0.00000000
 Dipole moment /Debye                            0.00000000     0.00000000     0.00000000
 
 Results for state 14.2 Quartet
 ==============================
 !MCSCF STATE 14.2 Quartet Energy             -260.710106271747
 Nuclear energy                                  0.00000000
 Kinetic energy                                 81.61332778
 One electron energy                          -442.86870231
 Two electron energy                           182.15859604
 Virial ratio                                    4.19445504
 
 !MCSCF STATE 14.2 Quartet Dipole moment         0.00000000     0.00000000     0.00000000
 Dipole moment /Debye                            0.00000000     0.00000000     0.00000000
 
 Results for state 15.2 Quartet
 ==============================
 !MCSCF STATE 15.2 Quartet Energy             -260.710106271335
 Nuclear energy                                  0.00000000
 Kinetic energy                                 81.61332777
 One electron energy                          -442.86870228
 Two electron energy                           182.15859601
 Virial ratio                                    4.19445504
 
 !MCSCF STATE 15.2 Quartet Dipole moment         0.00000000     0.00000000     0.00000000
 Dipole moment /Debye                            0.00000000     0.00000000     0.00000000
 
 Results for state 16.2 Quartet
 ==============================
 !MCSCF STATE 16.2 Quartet Energy             -260.710106270324
 Nuclear energy                                  0.00000000
 Kinetic energy                                 81.61332777
 One electron energy                          -442.86870220
 Two electron energy                           182.15859593
 Virial ratio                                    4.19445504
 
 !MCSCF STATE 16.2 Quartet Dipole moment         0.00000000     0.00000000     0.00000000
 Dipole moment /Debye                            0.00000000     0.00000000     0.00000000
 
 Results for state 17.2 Quartet
 ==============================
 !MCSCF STATE 17.2 Quartet Energy             -260.710106270291
 Nuclear energy                                  0.00000000
 Kinetic energy                                 81.61332777
 One electron energy                          -442.86870220
 Two electron energy                           182.15859593
 Virial ratio                                    4.19445504
 
 !MCSCF STATE 17.2 Quartet Dipole moment         0.00000000     0.00000000     0.00000000
 Dipole moment /Debye                            0.00000000     0.00000000     0.00000000
 
 State-averaged charge density matrix saved on record 2140.2 (density set 1)
 
 No non-zero expectation values
 
 Expectation values for two-electron operators:
 
 ? Warning
 ? Transition properties are only calculated between states of the same symmetry
 ? The problem occurs in mu_properties_expec2

 !MCSCF expec      <1.2 Doublet|LXLX|1.2 Doublet>     0.999999999999
 !MCSCF expec      <2.2 Doublet|LXLX|2.2 Doublet>     1.000000000000
 !MCSCF expec      <3.2 Doublet|LXLX|3.2 Doublet>     0.000000000002
 !MCSCF expec      <4.2 Doublet|LXLX|4.2 Doublet>     3.898470686357
 !MCSCF expec      <5.2 Doublet|LXLX|5.2 Doublet>     3.999999995513
 !MCSCF expec      <6.2 Doublet|LXLX|6.2 Doublet>     0.999999999996
 !MCSCF expec      <7.2 Doublet|LXLX|7.2 Doublet>     0.999999992977
 !MCSCF expec      <8.2 Doublet|LXLX|8.2 Doublet>     0.101539382921
 !MCSCF expec      <9.2 Doublet|LXLX|9.2 Doublet>     0.000000000006
 !MCSCF expec    <10.2 Doublet|LXLX|10.2 Doublet>     0.000000000011
 !MCSCF expec    <11.2 Doublet|LXLX|11.2 Doublet>     0.999999999998
 !MCSCF expec    <12.2 Doublet|LXLX|12.2 Doublet>     0.999999999998
 !MCSCF expec    <13.2 Doublet|LXLX|13.2 Doublet>     8.959425159688
 !MCSCF expec    <14.2 Doublet|LXLX|14.2 Doublet>     8.972805094570
 !MCSCF expec    <15.2 Doublet|LXLX|15.2 Doublet>     3.777094350732
 !MCSCF expec    <16.2 Doublet|LXLX|16.2 Doublet>     4.000000004709
 !MCSCF expec    <17.2 Doublet|LXLX|17.2 Doublet>     1.040571915644
 !MCSCF expec    <18.2 Doublet|LXLX|18.2 Doublet>     1.027190749289
 !MCSCF expec    <19.2 Doublet|LXLX|19.2 Doublet>     0.222919482708
 !MCSCF expec    <20.2 Doublet|LXLX|20.2 Doublet>     1.000000000012
 !MCSCF expec    <21.2 Doublet|LXLX|21.2 Doublet>     0.999999917373
 !MCSCF expec    <22.2 Doublet|LXLX|22.2 Doublet>     0.000000066940
 !MCSCF expec    <23.2 Doublet|LXLX|23.2 Doublet>     0.090010773795
 !MCSCF expec    <24.2 Doublet|LXLX|24.2 Doublet>     0.999999995455
 !MCSCF expec    <25.2 Doublet|LXLX|25.2 Doublet>     1.000000000004
 !MCSCF expec    <26.2 Doublet|LXLX|26.2 Doublet>     3.999999463637
 !MCSCF expec    <27.2 Doublet|LXLX|27.2 Doublet>     3.909988379538
 !MCSCF expec      <1.2 Quartet|LXLX|1.2 Quartet>     0.999999999995
 !MCSCF expec      <2.2 Quartet|LXLX|2.2 Quartet>     0.999999855509
 !MCSCF expec      <3.2 Quartet|LXLX|3.2 Quartet>     0.000000103615
 !MCSCF expec      <4.2 Quartet|LXLX|4.2 Quartet>     3.872113522164
 !MCSCF expec      <5.2 Quartet|LXLX|5.2 Quartet>     3.999999987726
 !MCSCF expec      <6.2 Quartet|LXLX|6.2 Quartet>     0.999999999995
 !MCSCF expec      <7.2 Quartet|LXLX|7.2 Quartet>     1.000000003692
 !MCSCF expec      <8.2 Quartet|LXLX|8.2 Quartet>     0.127891728879
 !MCSCF expec      <9.2 Quartet|LXLX|9.2 Quartet>     0.000000000006
 !MCSCF expec    <10.2 Quartet|LXLX|10.2 Quartet>     0.999999999979
 !MCSCF expec    <11.2 Quartet|LXLX|11.2 Quartet>     0.999999999991
 !MCSCF expec    <12.2 Quartet|LXLX|12.2 Quartet>     0.000000000031
 !MCSCF expec    <13.2 Quartet|LXLX|13.2 Quartet>     0.080577589721
 !MCSCF expec    <14.2 Quartet|LXLX|14.2 Quartet>     1.000000000054
 !MCSCF expec    <15.2 Quartet|LXLX|15.2 Quartet>     0.999999999991
 !MCSCF expec    <16.2 Quartet|LXLX|16.2 Quartet>     3.999999999842
 !MCSCF expec    <17.2 Quartet|LXLX|17.2 Quartet>     3.919422919975
 
 !MCSCF expec      <1.2 Doublet|LYLY|1.2 Doublet>     0.000000000002
 !MCSCF expec      <2.2 Doublet|LYLY|2.2 Doublet>     1.000000000000
 !MCSCF expec      <3.2 Doublet|LYLY|3.2 Doublet>     1.000000000000
 !MCSCF expec      <4.2 Doublet|LYLY|4.2 Doublet>     0.505919032700
 !MCSCF expec      <5.2 Doublet|LYLY|5.2 Doublet>     0.999999998990
 !MCSCF expec      <6.2 Doublet|LYLY|6.2 Doublet>     0.999999999996
 !MCSCF expec      <7.2 Doublet|LYLY|7.2 Doublet>     3.999999990575
 !MCSCF expec      <8.2 Doublet|LYLY|8.2 Doublet>     3.494102261940
 !MCSCF expec      <9.2 Doublet|LYLY|9.2 Doublet>     0.000000000006
 !MCSCF expec    <10.2 Doublet|LYLY|10.2 Doublet>     0.999999999996
 !MCSCF expec    <11.2 Doublet|LYLY|11.2 Doublet>     0.999999999997
 !MCSCF expec    <12.2 Doublet|LYLY|12.2 Doublet>     0.000000000019
 !MCSCF expec    <13.2 Doublet|LYLY|13.2 Doublet>     1.229950132227
 !MCSCF expec    <14.2 Doublet|LYLY|14.2 Doublet>     1.298369032012
 !MCSCF expec    <15.2 Doublet|LYLY|15.2 Doublet>     2.334585197860
 !MCSCF expec    <16.2 Doublet|LYLY|16.2 Doublet>     3.999999989561
 !MCSCF expec    <17.2 Doublet|LYLY|17.2 Doublet>     2.770040384762
 !MCSCF expec    <18.2 Doublet|LYLY|18.2 Doublet>     8.701617439363
 !MCSCF expec    <19.2 Doublet|LYLY|19.2 Doublet>     7.665459814623
 !MCSCF expec    <20.2 Doublet|LYLY|20.2 Doublet>     1.000000000012
 !MCSCF expec    <21.2 Doublet|LYLY|21.2 Doublet>     0.000000082644
 !MCSCF expec    <22.2 Doublet|LYLY|22.2 Doublet>     0.999999933128
 !MCSCF expec    <23.2 Doublet|LYLY|23.2 Doublet>     3.468760956769
 !MCSCF expec    <24.2 Doublet|LYLY|24.2 Doublet>     3.999999997046
 !MCSCF expec    <25.2 Doublet|LYLY|25.2 Doublet>     1.000000000004
 !MCSCF expec    <26.2 Doublet|LYLY|26.2 Doublet>     0.999997209488
 !MCSCF expec    <27.2 Doublet|LYLY|27.2 Doublet>     0.531238656079
 !MCSCF expec      <1.2 Quartet|LYLY|1.2 Quartet>     0.999999999995
 !MCSCF expec      <2.2 Quartet|LYLY|2.2 Quartet>     0.000000144507
 !MCSCF expec      <3.2 Quartet|LYLY|3.2 Quartet>     0.999999896391
 !MCSCF expec      <4.2 Quartet|LYLY|4.2 Quartet>     0.454522870977
 !MCSCF expec      <5.2 Quartet|LYLY|5.2 Quartet>     0.999999955176
 !MCSCF expec      <6.2 Quartet|LYLY|6.2 Quartet>     1.000000000003
 !MCSCF expec      <7.2 Quartet|LYLY|7.2 Quartet>     3.999999996126
 !MCSCF expec      <8.2 Quartet|LYLY|8.2 Quartet>     3.545486628332
 !MCSCF expec      <9.2 Quartet|LYLY|9.2 Quartet>     0.000000000006
 !MCSCF expec    <10.2 Quartet|LYLY|10.2 Quartet>     0.000000000030
 !MCSCF expec    <11.2 Quartet|LYLY|11.2 Quartet>     0.999999999991
 !MCSCF expec    <12.2 Quartet|LYLY|12.2 Quartet>     0.999999999977
 !MCSCF expec    <13.2 Quartet|LYLY|13.2 Quartet>     3.446397148780
 !MCSCF expec    <14.2 Quartet|LYLY|14.2 Quartet>     3.999999999779
 !MCSCF expec    <15.2 Quartet|LYLY|15.2 Quartet>     0.999999999991
 !MCSCF expec    <16.2 Quartet|LYLY|16.2 Quartet>     1.000000000060
 !MCSCF expec    <17.2 Quartet|LYLY|17.2 Quartet>     0.553604103674
 
 !MCSCF expec      <1.2 Doublet|LZLZ|1.2 Doublet>     1.000000000000
 !MCSCF expec      <2.2 Doublet|LZLZ|2.2 Doublet>     0.000000000002
 !MCSCF expec      <3.2 Doublet|LZLZ|3.2 Doublet>     1.000000000000
 !MCSCF expec      <4.2 Doublet|LZLZ|4.2 Doublet>     1.595610280907
 !MCSCF expec      <5.2 Doublet|LZLZ|5.2 Doublet>     1.000000005462
 !MCSCF expec      <6.2 Doublet|LZLZ|6.2 Doublet>     3.999999999973
 !MCSCF expec      <7.2 Doublet|LZLZ|7.2 Doublet>     1.000000016412
 !MCSCF expec      <8.2 Doublet|LZLZ|8.2 Doublet>     2.404358355103
 !MCSCF expec      <9.2 Doublet|LZLZ|9.2 Doublet>     0.000000000006
 !MCSCF expec    <10.2 Doublet|LZLZ|10.2 Doublet>     0.999999999997
 !MCSCF expec    <11.2 Doublet|LZLZ|11.2 Doublet>     0.000000000010
 !MCSCF expec    <12.2 Doublet|LZLZ|12.2 Doublet>     0.999999999987
 !MCSCF expec    <13.2 Doublet|LZLZ|13.2 Doublet>     1.810624708032
 !MCSCF expec    <14.2 Doublet|LZLZ|14.2 Doublet>     1.728825873365
 !MCSCF expec    <15.2 Doublet|LZLZ|15.2 Doublet>     5.888320451355
 !MCSCF expec    <16.2 Doublet|LZLZ|16.2 Doublet>     4.000000005677
 !MCSCF expec    <17.2 Doublet|LZLZ|17.2 Doublet>     8.189387699541
 !MCSCF expec    <18.2 Doublet|LZLZ|18.2 Doublet>     2.271191811295
 !MCSCF expec    <19.2 Doublet|LZLZ|19.2 Doublet>     4.111620702616
 !MCSCF expec    <20.2 Doublet|LZLZ|20.2 Doublet>     0.000000000005
 !MCSCF expec    <21.2 Doublet|LZLZ|21.2 Doublet>     1.000000000012
 !MCSCF expec    <22.2 Doublet|LZLZ|22.2 Doublet>     0.999999999961
 !MCSCF expec    <23.2 Doublet|LZLZ|23.2 Doublet>     2.441228269436
 !MCSCF expec    <24.2 Doublet|LZLZ|24.2 Doublet>     1.000000007498
 !MCSCF expec    <25.2 Doublet|LZLZ|25.2 Doublet>     3.999999999991
 !MCSCF expec    <26.2 Doublet|LZLZ|26.2 Doublet>     1.000003326875
 !MCSCF expec    <27.2 Doublet|LZLZ|27.2 Doublet>     1.558772964383
 !MCSCF expec      <1.2 Quartet|LZLZ|1.2 Quartet>     0.000000000009
 !MCSCF expec      <2.2 Quartet|LZLZ|2.2 Quartet>     0.999999999984
 !MCSCF expec      <3.2 Quartet|LZLZ|3.2 Quartet>     0.999999999994
 !MCSCF expec      <4.2 Quartet|LZLZ|4.2 Quartet>     1.673363606823
 !MCSCF expec      <5.2 Quartet|LZLZ|5.2 Quartet>     1.000000057063
 !MCSCF expec      <6.2 Quartet|LZLZ|6.2 Quartet>     3.999999999966
 !MCSCF expec      <7.2 Quartet|LZLZ|7.2 Quartet>     1.000000000147
 !MCSCF expec      <8.2 Quartet|LZLZ|8.2 Quartet>     2.326621642753
 !MCSCF expec      <9.2 Quartet|LZLZ|9.2 Quartet>     0.000000000006
 !MCSCF expec    <10.2 Quartet|LZLZ|10.2 Quartet>     0.999999999991
 !MCSCF expec    <11.2 Quartet|LZLZ|11.2 Quartet>     0.000000000017
 !MCSCF expec    <12.2 Quartet|LZLZ|12.2 Quartet>     0.999999999991
 !MCSCF expec    <13.2 Quartet|LZLZ|13.2 Quartet>     2.473025261427
 !MCSCF expec    <14.2 Quartet|LZLZ|14.2 Quartet>     1.000000000095
 !MCSCF expec    <15.2 Quartet|LZLZ|15.2 Quartet>     3.999999999947
 !MCSCF expec    <16.2 Quartet|LZLZ|16.2 Quartet>     1.000000000026
 !MCSCF expec    <17.2 Quartet|LZLZ|17.2 Quartet>     1.526972976280
 
 !MCSCF expec      <1.2 Doublet|L**2|1.2 Doublet>     2.000000000002
 !MCSCF expec      <2.2 Doublet|L**2|2.2 Doublet>     2.000000000002
 !MCSCF expec      <3.2 Doublet|L**2|3.2 Doublet>     2.000000000002
 !MCSCF expec      <4.2 Doublet|L**2|4.2 Doublet>     5.999999999965
 !MCSCF expec      <5.2 Doublet|L**2|5.2 Doublet>     5.999999999965
 !MCSCF expec      <6.2 Doublet|L**2|6.2 Doublet>     5.999999999965
 !MCSCF expec      <7.2 Doublet|L**2|7.2 Doublet>     5.999999999965
 !MCSCF expec      <8.2 Doublet|L**2|8.2 Doublet>     5.999999999965
 !MCSCF expec      <9.2 Doublet|L**2|9.2 Doublet>     0.000000000018
 !MCSCF expec    <10.2 Doublet|L**2|10.2 Doublet>     2.000000000004
 !MCSCF expec    <11.2 Doublet|L**2|11.2 Doublet>     2.000000000004
 !MCSCF expec    <12.2 Doublet|L**2|12.2 Doublet>     2.000000000004
 !MCSCF expec    <13.2 Doublet|L**2|13.2 Doublet>    11.999999999947
 !MCSCF expec    <14.2 Doublet|L**2|14.2 Doublet>    11.999999999947
 !MCSCF expec    <15.2 Doublet|L**2|15.2 Doublet>    11.999999999947
 !MCSCF expec    <16.2 Doublet|L**2|16.2 Doublet>    11.999999999947
 !MCSCF expec    <17.2 Doublet|L**2|17.2 Doublet>    11.999999999947
 !MCSCF expec    <18.2 Doublet|L**2|18.2 Doublet>    11.999999999947
 !MCSCF expec    <19.2 Doublet|L**2|19.2 Doublet>    11.999999999947
 !MCSCF expec    <20.2 Doublet|L**2|20.2 Doublet>     2.000000000029
 !MCSCF expec    <21.2 Doublet|L**2|21.2 Doublet>     2.000000000029
 !MCSCF expec    <22.2 Doublet|L**2|22.2 Doublet>     2.000000000029
 !MCSCF expec    <23.2 Doublet|L**2|23.2 Doublet>     6.000000000000
 !MCSCF expec    <24.2 Doublet|L**2|24.2 Doublet>     6.000000000000
 !MCSCF expec    <25.2 Doublet|L**2|25.2 Doublet>     6.000000000000
 !MCSCF expec    <26.2 Doublet|L**2|26.2 Doublet>     6.000000000000
 !MCSCF expec    <27.2 Doublet|L**2|27.2 Doublet>     6.000000000000
 !MCSCF expec      <1.2 Quartet|L**2|1.2 Quartet>     2.000000000000
 !MCSCF expec      <2.2 Quartet|L**2|2.2 Quartet>     2.000000000000
 !MCSCF expec      <3.2 Quartet|L**2|3.2 Quartet>     2.000000000000
 !MCSCF expec      <4.2 Quartet|L**2|4.2 Quartet>     5.999999999964
 !MCSCF expec      <5.2 Quartet|L**2|5.2 Quartet>     5.999999999964
 !MCSCF expec      <6.2 Quartet|L**2|6.2 Quartet>     5.999999999964
 !MCSCF expec      <7.2 Quartet|L**2|7.2 Quartet>     5.999999999964
 !MCSCF expec      <8.2 Quartet|L**2|8.2 Quartet>     5.999999999964
 !MCSCF expec      <9.2 Quartet|L**2|9.2 Quartet>     0.000000000018
 !MCSCF expec    <10.2 Quartet|L**2|10.2 Quartet>     1.999999999999
 !MCSCF expec    <11.2 Quartet|L**2|11.2 Quartet>     1.999999999999
 !MCSCF expec    <12.2 Quartet|L**2|12.2 Quartet>     1.999999999999
 !MCSCF expec    <13.2 Quartet|L**2|13.2 Quartet>     5.999999999929
 !MCSCF expec    <14.2 Quartet|L**2|14.2 Quartet>     5.999999999929
 !MCSCF expec    <15.2 Quartet|L**2|15.2 Quartet>     5.999999999929
 !MCSCF expec    <16.2 Quartet|L**2|16.2 Quartet>     5.999999999929
 !MCSCF expec    <17.2 Quartet|L**2|17.2 Quartet>     5.999999999929
 
 EXTRA SYMMETRY OF MOS IN SYMMETRY 1:   1 3 5 6 4 2 1 1 3 5   6 4 2 1 3 5 6 4 2 1   3 5 6 4 2 113101415   81211 7 9 5 3 6 4 2
                                       13101415 81211 9 7 5   3 6 4 2 113101514 8  1211 9 7 3 5 6 4 2 1  13101514 81211 9 7 5
                                        3 6 4 2 1 5 3 6 4 2   1 1
 EXTRA SYMMETRY OF MOS IN SYMMETRY 2:   2 1 3 3 1 2 3 1 2 1   2 3 7 9 810 5 4 6 2   1 3 7 9 810 5 4 6 2   1 3 7 9 810 5 4 6 7
                                        9 810 5 4 6 2 1 3 9   710 8 5 4 618201517  14162113121119 2 1 3   7 910 8 5 4 6 2 1 3
                                        7 910 8 5 4 6 3 2 1   3 2 1
 
  NATURAL ORBITALS (STATE AVERAGED)
  =================================

  Orbital  Occupation    Energy    Cen Mu Typ  Coefficients
    1.1     2.00000    -8.03529     1  1  s    0.99945
    2.1     2.00000    -2.04524     1  1  d2-  1.00205
    3.1     2.00000    -2.04524     1  1  d2+  1.00205
    4.1     2.00000    -2.04524     1  1  d1-  1.00205
    5.1     2.00000    -2.04524     1  1  d1+  1.00205
    6.1     2.00000    -2.04524     1  1  d0   1.00205
    7.1     2.00000    -1.12160     1  2  s    1.02885
    1.2     2.00000    -5.32485     1  1  py   1.00012
    2.2     2.00000    -5.32485     1  1  px   1.00012
    3.2     2.00000    -5.32485     1  1  pz   1.00012
    4.2     1.29515    -0.44134     1  2  pz   1.08591
    5.2     1.29515    -0.44134     1  2  px   1.08591
    6.2     1.29515    -0.44134     1  2  py   1.08591
    7.2     0.37151     0.00389     1  2  pz  -0.25944    1 10  pz   0.79564    1 11  pz   0.33269
    8.2     0.37151     0.00389     1  2  px  -0.25944    1 10  px   0.79564    1 11  px   0.33269
    9.2     0.37151     0.00389     1  2  py  -0.25944    1 10  py   0.79564    1 11  py   0.33269
 
 Natural orbital dump (state averaged) at molpro section 2140.2 (Orbital set 2)
 
 Transform the CI vectors
 
 CI Coefficients of symmetry 2 (Doublet)
 =======================================

 State:              1               2               3               4               5               6               7
 2a2000        -0.00000080     -0.00000000      0.97840473      0.00000000     -0.00000000     -0.00000000     -0.00000000
 a22000        -0.00000003      0.97840473      0.00000000     -0.00000000     -0.00000000     -0.00000001     -0.00000000
 22a000         0.97840473      0.00000003      0.00000080      0.00000000      0.00000000      0.00000000     -0.00000001
 a2a0b0        -0.00000000     -0.00000000      0.00000000      0.10618879      0.00002976     -0.00000091     -0.00008199
 aa200b        -0.00000000      0.00000000      0.00000000      0.62294469      0.00020763     -0.00000534     -0.00002540
 2020a0        -0.00000005     -0.00000000      0.06184326      0.00000000     -0.00000000     -0.00000000     -0.00000000
 a2a00b        -0.00000000      0.10532100      0.00000000      0.00000495     -0.00000047      0.57722309      0.00000004
 a2ab00        -0.10532100     -0.00000000     -0.00000009      0.00000408      0.00002087      0.00000004     -0.57722306
 2aa00b        -0.00000009     -0.00000000      0.10532100     -0.00019439      0.57722301      0.00000047      0.00002086
 aa2b00         0.00000009     -0.00000000     -0.10532100     -0.00019439      0.57722297      0.00000047      0.00002086
 2aa0b0        -0.10532101     -0.00000000     -0.00000009     -0.00000408     -0.00002087     -0.00000004      0.57722297
 aa20b0        -0.00000000      0.10532101     -0.00000000     -0.00000495      0.00000047     -0.57722296     -0.00000004
 202a00         0.00000000     -0.01042828     -0.00000000     -0.00000009      0.00000001     -0.01009999     -0.00000000
 20200a        -0.01042828     -0.00000000     -0.00000001      0.00000007      0.00000037      0.00000000     -0.01009999
 02200a        -0.01042828     -0.00000000     -0.00000001     -0.00000007     -0.00000037     -0.00000000      0.01010000
 220a00         0.00000000     -0.01042828      0.00000000      0.00000009     -0.00000001      0.01010000      0.00000000
 0220a0         0.00000001      0.00000000     -0.01042828      0.00000340     -0.01009999     -0.00000001     -0.00000037
 2200a0         0.00000001     -0.00000000     -0.01042828     -0.00000340      0.01010000      0.00000001      0.00000037
 a2b0a0         0.00000000      0.00000000     -0.00000000     -0.04312341     -0.00001151      0.00000037      0.00004127
 b2a0a0         0.00000000      0.00000000     -0.00000000     -0.06306539     -0.00001825      0.00000054      0.00004072
 ab200a        -0.00000000     -0.00000000     -0.00000000     -0.31506431     -0.00010511      0.00000270      0.00001149
 ba200a         0.00000000     -0.00000000     -0.00000000     -0.30788038     -0.00010252      0.00000264      0.00001391
 22000a         0.06184326      0.00000000      0.00000005      0.00000000      0.00000000     -0.00000000     -0.00000001
 2aab00         0.00000000      0.00000000      0.00000000     -0.51675586     -0.00017787      0.00000443     -0.00005659
 ba20a0         0.00000000     -0.01652473      0.00000000      0.00000252     -0.00000024      0.29366147      0.00000002
 ab20a0         0.00000000     -0.08879628     -0.00000000      0.00000243     -0.00000023      0.28356149      0.00000002
 2ab0a0         0.01652473      0.00000000      0.00000001      0.00000207      0.00001062      0.00000002     -0.29366148
 2ba0a0         0.08879628      0.00000000      0.00000007      0.00000200      0.00001025      0.00000002     -0.28356149
 022a00        -0.00000000      0.06184326      0.00000000     -0.00000000      0.00000000     -0.00000001     -0.00000000
 a2b00a         0.00000000     -0.08879627     -0.00000000     -0.00000243      0.00000023     -0.28356154     -0.00000002
 b2a00a         0.00000000     -0.01652473     -0.00000000     -0.00000252      0.00000024     -0.29366155     -0.00000002
 a2ba00         0.01652473      0.00000000      0.00000001     -0.00000207     -0.00001062     -0.00000002      0.29366154
 b2aa00         0.08879627      0.00000000      0.00000007     -0.00000200     -0.00001025     -0.00000002      0.28356153
 2ab00a         0.00000007      0.00000000     -0.08879627      0.00009550     -0.28356150     -0.00000023     -0.00001025
 2ba00a         0.00000001      0.00000000     -0.01652473      0.00009890     -0.29366150     -0.00000024     -0.00001061
 2baa00        -0.00000000     -0.00000000     -0.00000000      0.26475696      0.00009101     -0.00000227      0.00002736
 ba2a00        -0.00000007     -0.00000000      0.08879627      0.00009550     -0.28356149     -0.00000023     -0.00001025
 2aba00        -0.00000000     -0.00000000     -0.00000000      0.25199890      0.00008686     -0.00000216      0.00002923
 ab2a00        -0.00000001      0.00000000      0.01652473      0.00009890     -0.29366148     -0.00000024     -0.00001061
 
 Energy:     -261.33674912   -261.33674912   -261.33674912   -261.09789955   -261.09789955   -261.09789955   -261.09789955

 State:              8               9              10              11              12              13              14
 2a2000        -0.00000000      0.00000000     -0.14230282     -0.00000015     -0.00000021      0.00000000     -0.00000000
 a22000        -0.00000000     -0.00000000      0.00000015     -0.14230282      0.00000018      0.00000000     -0.00000000
 22a000        -0.00000000      0.00000000     -0.00000021      0.00000018      0.14230282     -0.00000000     -0.00000000
 a2a0b0         0.65800642     -0.47139416     -0.00000000      0.00000000      0.00000000      0.00000000      0.00000000
 aa200b         0.23704105      0.47139408      0.00000000     -0.00000000      0.00000000      0.00000000      0.00000000
 2020a0        -0.00000000      0.00000000     -0.19532028     -0.00000020     -0.00000028     -0.00000049     -0.00000099
 a2a00b         0.00000000      0.00000000     -0.00000055      0.53919869     -0.00000067     -0.00000000      0.00000000
 a2ab00        -0.00007258      0.00000000     -0.00000078      0.00000067      0.53919871     -0.00000000     -0.00000000
 2aa00b         0.00000527     -0.00000000      0.53919874      0.00000055      0.00000078     -0.00000000      0.00000000
 aa2b00         0.00000527     -0.00000000     -0.53919878     -0.00000055     -0.00000078      0.00000000     -0.00000000
 2aa0b0         0.00007258      0.00000000     -0.00000078      0.00000067      0.53919880     -0.00000000     -0.00000000
 aa20b0        -0.00000000      0.00000000     -0.00000055      0.53919882     -0.00000067     -0.00000000      0.00000000
 202a00        -0.00000000      0.00000000     -0.00000006      0.05393273     -0.00000007      0.00000270     -0.03010122
 20200a        -0.00000127      0.00000000      0.00000008     -0.00000007     -0.05393273     -0.03676789      0.00000074
 02200a         0.00000127     -0.00000000      0.00000008     -0.00000007     -0.05393273     -0.48942469     -0.00004663
 220a00         0.00000000      0.00000000     -0.00000006      0.05393273     -0.00000007     -0.00004687      0.50656087
 0220a0        -0.00000009      0.00000000      0.05393273      0.00000006      0.00000008      0.00000149      0.00000026
 2200a0         0.00000009     -0.00000000      0.05393273      0.00000006      0.00000008     -0.00000100      0.00000072
 a2b0a0        -0.33061233      0.23569708      0.00000000     -0.00000000     -0.00000000      0.00001075      0.00000206
 b2a0a0        -0.32739410      0.23569708      0.00000000     -0.00000000     -0.00000000     -0.00001075     -0.00000206
 ab200a        -0.10908083     -0.23569704     -0.00000000      0.00000000     -0.00000000      0.00001075      0.00000206
 ba200a        -0.12796021     -0.23569704     -0.00000000      0.00000000     -0.00000000     -0.00001075     -0.00000206
 22000a        -0.00000000      0.00000000     -0.00000028      0.00000024      0.19532029      0.52619259      0.00004589
 2aab00         0.42096546      0.47139411     -0.00000000     -0.00000000     -0.00000000     -0.00000000     -0.00000000
 ba20a0         0.00000000     -0.00000000      0.00000041     -0.39422592      0.00000049      0.00000270     -0.03010121
 ab20a0         0.00000000     -0.00000000      0.00000015     -0.14497290      0.00000018     -0.00000270      0.03010121
 2ab0a0        -0.00003693     -0.00000000      0.00000057     -0.00000049     -0.39422591      0.03676788     -0.00000074
 2ba0a0        -0.00003566     -0.00000000      0.00000021     -0.00000018     -0.14497289     -0.03676788      0.00000074
 022a00         0.00000000     -0.00000000      0.00000020     -0.19532029      0.00000024      0.00004418     -0.47645965
 a2b00a        -0.00000000     -0.00000000      0.00000015     -0.14497284      0.00000018      0.00004687     -0.50656089
 b2a00a        -0.00000000     -0.00000000      0.00000041     -0.39422585      0.00000049     -0.00004687      0.50656089
 a2ba00         0.00003693     -0.00000000      0.00000057     -0.00000049     -0.39422586      0.48942468      0.00004663
 b2aa00         0.00003566     -0.00000000      0.00000021     -0.00000018     -0.14497285     -0.48942467     -0.00004663
 2ab00a        -0.00000259      0.00000000     -0.14497287     -0.00000015     -0.00000021      0.00000100     -0.00000072
 2ba00a        -0.00000268      0.00000000     -0.39422587     -0.00000041     -0.00000057     -0.00000100      0.00000072
 2baa00        -0.20265215     -0.23569705      0.00000000      0.00000000      0.00000000     -0.00001075     -0.00000206
 ba2a00        -0.00000259      0.00000000      0.14497288      0.00000015      0.00000021      0.00000149      0.00000026
 2aba00        -0.21831330     -0.23569705      0.00000000      0.00000000      0.00000000      0.00001075      0.00000206
 ab2a00        -0.00000268      0.00000000      0.39422589      0.00000041      0.00000057     -0.00000149     -0.00000026
 
 Energy:     -261.09789955   -261.09185607   -261.09047032   -261.09047032   -261.09047032   -261.05464673   -261.05464673

 State:             15              16              17              18              19              20              21
 2a2000        -0.00000000     -0.00000000     -0.00000000     -0.00000000      0.00000001     -0.00000000      0.00004232
 a22000        -0.00000000      0.00000000     -0.00000000      0.00000001     -0.00000000     -0.14722928      0.00000000
 22a000         0.00000000      0.00000000     -0.00000001     -0.00000000     -0.00000000     -0.00000000     -0.14722927
 a2a0b0        -0.00000000     -0.00000000      0.00000000      0.00000000      0.00000000     -0.00000000     -0.00000000
 aa200b        -0.00000000      0.00000000      0.00000000     -0.00000000      0.00000000      0.00000000     -0.00000000
 2020a0        -0.14926618     -0.00002311     -0.00001383      0.00000028      0.61444047      0.00000000     -0.00014784
 a2a00b         0.00000000     -0.00000000      0.00000000     -0.00000001      0.00000000      0.17524195     -0.00000000
 a2ab00         0.00000000      0.00000000     -0.00000001     -0.00000000     -0.00000000     -0.00000000     -0.17524194
 2aa00b         0.00000000      0.00000000      0.00000000      0.00000000     -0.00000001      0.00000000     -0.00005038
 aa2b00        -0.00000000     -0.00000000     -0.00000000     -0.00000000      0.00000001     -0.00000000      0.00005038
 2aa0b0         0.00000000      0.00000000     -0.00000001     -0.00000000     -0.00000000     -0.00000000     -0.17524195
 aa20b0         0.00000000     -0.00000000      0.00000000     -0.00000001      0.00000000      0.17524196     -0.00000000
 202a00        -0.00000021      0.00000015     -0.00000005      0.51540175     -0.00000033     -0.21338974      0.00000000
 20200a         0.00000384     -0.00000073     -0.51496910      0.00000018     -0.00001069     -0.00000000     -0.21338977
 02200a        -0.00000262      0.00001343      0.16434263     -0.00000014      0.00000267     -0.00000000     -0.21339003
 220a00        -0.00000042     -0.00000255      0.00000404     -0.09970505      0.00000076     -0.21339009      0.00000000
 0220a0        -0.32198652     -0.00008614      0.00000587     -0.00000037     -0.40357115      0.00000000      0.00006134
 2200a0         0.47125270      0.00010925      0.00000797      0.00000010     -0.21086933     -0.00000000      0.00006134
 a2b0a0        -0.00009845      0.40815513     -0.00000134      0.00000000     -0.00000857      0.00000000     -0.00000000
 b2a0a0         0.00009845     -0.40815513      0.00000134     -0.00000000      0.00000857      0.00000000      0.00000000
 ab200a        -0.00009845      0.40815517     -0.00000134      0.00000000     -0.00000857     -0.00000000     -0.00000000
 ba200a         0.00009845     -0.40815517      0.00000134     -0.00000000      0.00000857     -0.00000000      0.00000000
 22000a        -0.00000123     -0.00001271      0.35062648     -0.00000004      0.00000802      0.00000000      0.51427382
 2aab00         0.00000000     -0.00000000     -0.00000000     -0.00000000     -0.00000000      0.00000000      0.00000000
 ba20a0        -0.00000021      0.00000015     -0.00000005      0.51540171     -0.00000033      0.27621087     -0.00000000
 ab20a0         0.00000021     -0.00000015      0.00000005     -0.51540170      0.00000033     -0.45145282      0.00000000
 2ab0a0        -0.00000384      0.00000073      0.51496905     -0.00000018      0.00001069     -0.00000000     -0.27621088
 2ba0a0         0.00000384     -0.00000073     -0.51496904      0.00000018     -0.00001069      0.00000000      0.45145283
 022a00         0.00000062      0.00000241     -0.00000398     -0.41569670     -0.00000043      0.51427386     -0.00000000
 a2b00a         0.00000042      0.00000255     -0.00000404      0.09970507     -0.00000076     -0.45145293      0.00000000
 b2a00a        -0.00000042     -0.00000255      0.00000404     -0.09970506      0.00000076      0.27621098     -0.00000000
 a2ba00         0.00000262     -0.00001343     -0.16434263      0.00000014     -0.00000267     -0.00000000     -0.27621097
 b2aa00        -0.00000262      0.00001343      0.16434264     -0.00000014      0.00000267      0.00000000      0.45145291
 2ab00a        -0.47125275     -0.00010925     -0.00000797     -0.00000010      0.21086937     -0.00000000      0.00012978
 2ba00a         0.47125275      0.00010925      0.00000797      0.00000010     -0.21086936      0.00000000     -0.00007940
 2baa00         0.00009845     -0.40815516      0.00000134     -0.00000000      0.00000857     -0.00000000     -0.00000000
 ba2a00        -0.32198653     -0.00008614      0.00000587     -0.00000037     -0.40357120     -0.00000000     -0.00012978
 2aba00        -0.00009845      0.40815516     -0.00000134      0.00000000     -0.00000857     -0.00000000      0.00000000
 ab2a00         0.32198653      0.00008614     -0.00000587      0.00000037      0.40357119      0.00000000      0.00007940
 
 Energy:     -261.05464673   -261.05464673   -261.05464673   -261.05464673   -261.05464673   -261.04822066   -261.04822066

 State:             22              23              24              25              26              27
 2a2000        -0.14722927     -0.00000000     -0.00000000      0.00000000     -0.00000001     -0.00000000
 a22000         0.00000000     -0.00000000      0.00000000     -0.00000004      0.00000000      0.00000000
 22a000        -0.00004232     -0.00000000      0.00000003     -0.00000000      0.00000000     -0.00000000
 a2a0b0         0.00000000     -0.01155271     -0.00000095      0.00000000      0.00000424     -0.00175284
 aa200b         0.00000000     -0.00425835     -0.00000034      0.00000000      0.00002653     -0.01088133
 2020a0         0.51427389      0.00000000      0.00000000     -0.00000000      0.00000003      0.00000000
 a2a00b        -0.00000000     -0.00000000     -0.00000000     -0.01011940      0.00000000      0.00000000
 a2ab00        -0.00005038      0.00000083     -0.01011941      0.00000000     -0.00000010     -0.00000001
 2aa00b         0.17524194      0.00000003      0.00000010     -0.00000000     -0.01011940     -0.00002469
 aa2b00        -0.17524194      0.00000003      0.00000010     -0.00000000     -0.01011943     -0.00002469
 2aa0b0        -0.00005038     -0.00000083      0.01011948     -0.00000000      0.00000010      0.00000001
 aa20b0        -0.00000000      0.00000000      0.00000000      0.01011949     -0.00000000     -0.00000000
 202a00        -0.00000000     -0.00000015     -0.00000013     -0.57719316      0.00000000      0.00000000
 20200a        -0.00006134     -0.00004759      0.57719314     -0.00000013      0.00000565      0.00000068
 02200a        -0.00006134      0.00004759     -0.57719306      0.00000013     -0.00000565     -0.00000068
 220a00         0.00000000      0.00000015      0.00000013      0.57719306     -0.00000000     -0.00000000
 0220a0        -0.21338989      0.00000162      0.00000565     -0.00000000     -0.57719142     -0.00140802
 2200a0        -0.21338998     -0.00000162     -0.00000565      0.00000000      0.57719140      0.00140802
 a2b0a0        -0.00000000     -0.08080780     -0.00000733      0.00000002     -0.00139445      0.57153670
 b2a0a0         0.00000000      0.09236051      0.00000828     -0.00000002      0.00139021     -0.56978386
 ab200a         0.00000000      0.53962899      0.00004473     -0.00000014      0.00050137     -0.20490560
 ba200a        -0.00000000     -0.53537065     -0.00004439      0.00000014     -0.00052790      0.21578693
 22000a         0.00014784      0.00000000     -0.00000010      0.00000000      0.00000000      0.00000000
 2aab00        -0.00000000     -0.00729436     -0.00000061      0.00000000     -0.00002229      0.00912849
 ba20a0         0.00000000      0.00000007      0.00000006      0.28353692     -0.00000000     -0.00000000
 ab20a0        -0.00000000     -0.00000007     -0.00000006     -0.29365641      0.00000000      0.00000000
 2ab0a0        -0.00007940     -0.00002338      0.28353690     -0.00000006      0.00000277      0.00000034
 2ba0a0         0.00012978      0.00002421     -0.29365638      0.00000006     -0.00000287     -0.00000035
 022a00        -0.00000000      0.00000000     -0.00000000      0.00000013      0.00000000      0.00000000
 a2b00a         0.00000000      0.00000007      0.00000006      0.29365616     -0.00000000     -0.00000000
 b2a00a        -0.00000000     -0.00000007     -0.00000006     -0.28353676      0.00000000      0.00000000
 a2ba00        -0.00007940      0.00002338     -0.28353679      0.00000006     -0.00000277     -0.00000034
 b2aa00         0.00012978     -0.00002421      0.29365620     -0.00000006      0.00000287      0.00000035
 2ab00a        -0.45145284     -0.00000082     -0.00000287      0.00000000      0.29365536      0.00071635
 2ba00a         0.27621091      0.00000079      0.00000277     -0.00000000     -0.28353596     -0.00069167
 2baa00        -0.00000000      0.45456287      0.00003707     -0.00000012     -0.00086655      0.35574972
 ba2a00         0.45145282     -0.00000082     -0.00000287      0.00000000      0.29365542      0.00071635
 2aba00         0.00000000     -0.44726851     -0.00003645      0.00000011      0.00088884     -0.36487821
 ab2a00        -0.27621088      0.00000079      0.00000277     -0.00000000     -0.28353600     -0.00069167
 
 Energy:     -261.04822066   -261.04679953   -261.04679953   -261.04679953   -261.04679953   -261.04679953
 
 
 CI Coefficients of symmetry 2 (Quartet)
 =======================================

 State:              1               2               3               4               5               6               7
 aaa020        -0.00000000     -0.00000000     -0.00000000      0.00256817      0.00000073     -0.00000002      0.00000005
 a2a0a0        -0.00000000      0.00000000     -0.00000000      0.14596695      0.00004158     -0.00000124      0.00000301
 aa200a         0.00000000      0.00000000      0.00000000      0.76856317      0.00022947     -0.00000068      0.00000711
 aaa002        -0.00000000     -0.00000000     -0.00000000     -0.01352226     -0.00000404      0.00000001     -0.00000013
 aa20a0         0.70681576     -0.00000002      0.00000002      0.00000025     -0.00000071      0.70697310      0.00000002
 2aa0a0         0.00000002      0.70681571      0.00026867      0.00000597      0.00001782      0.00000002     -0.70697309
 aa2a00        -0.00000002     -0.00026867      0.70681574     -0.00021176      0.70697304      0.00000071      0.00001782
 a2aa00         0.00000002      0.70681578      0.00026867     -0.00000597     -0.00001782     -0.00000002      0.70697303
 2aa00a         0.00000002      0.00026867     -0.70681576     -0.00021176      0.70697302      0.00000071      0.00001782
 a2a00a         0.70681584     -0.00000002      0.00000002     -0.00000025      0.00000071     -0.70697302     -0.00000002
 aaa0ba        -0.01490121      0.00000000     -0.00000000      0.00000000     -0.00000001      0.01243863      0.00000000
 aaaab0         0.00000000      0.01490121      0.00000566     -0.00000011     -0.00000031     -0.00000000      0.01243863
 aaab0a         0.00000000      0.00000566     -0.01490121     -0.00000373      0.01243863      0.00000001      0.00000031
 aaaa0b         0.00000000      0.00000566     -0.01490121      0.00000373     -0.01243863     -0.00000001     -0.00000031
 aaaba0         0.00000000      0.01490121      0.00000566      0.00000011      0.00000031      0.00000000     -0.01243863
 aaa0ab        -0.01490121      0.00000000     -0.00000000     -0.00000000      0.00000001     -0.01243863     -0.00000000
 aaa200         0.00000000      0.00000000      0.00000000      0.01095409      0.00000331      0.00000001      0.00000007
 2aaa00        -0.00000000     -0.00000000     -0.00000000     -0.62259620     -0.00018789     -0.00000057     -0.00000409
 aabaa0        -0.00000000     -0.00899651     -0.00000342     -0.00000000     -0.00000000     -0.00000000      0.00000000
[...]
   11   11.2  0.5  0.5   0.000%   0.000%   0.000%   0.000%   0.000%   0.000%   0.000%   0.018%   0.000%   0.003%
   12   12.2  0.5  0.5   0.000%   0.000%   0.000%   0.000%   0.000%   0.000%   0.000%   0.000%   0.000%   0.000%
   13   13.2  0.5  0.5   0.000%   0.000%   0.000%   0.000%   0.000%   0.000%   0.000%   0.000%   0.000%   0.000%
   14   14.2  0.5  0.5   0.000%   0.000%   0.000%   0.000%   0.000%   0.000%   0.000%   0.000%   0.000%   0.000%
   15   15.2  0.5  0.5   0.000%   0.000%   0.000%   0.000%   0.000%   0.000%   0.000%   0.000%   0.000%   0.000%
   16   16.2  0.5  0.5   0.000%   0.000%   0.000%   0.000%   0.000%   0.000%   0.000%   0.000%   0.000%   0.000%
   17   17.2  0.5  0.5   0.000%   0.000%   0.000%   0.000%   0.000%   0.000%   0.000%   0.000%   0.000%   0.000%
   18   18.2  0.5  0.5   0.000%   0.000%   0.000%   0.000%   0.000%   0.000%   0.000%   0.000%   0.000%   0.000%
   19   19.2  0.5  0.5   0.000%   0.000%   0.000%   0.000%   0.000%   0.000%   0.000%   0.000%   0.000%   0.000%
   20   20.2  0.5  0.5   0.000%   0.000%   0.000%   0.000%   0.000%   0.000%   0.000%   0.000%   0.000%   0.000%
   21   21.2  0.5  0.5   0.000%   0.000%   0.000%   0.000%   0.000%   0.000%   0.000%   0.000%   0.000%   0.000%
   22   22.2  0.5  0.5   0.000%   0.000%   0.000%   0.000%   0.000%   0.000%   0.000%   0.000%   0.000%   0.000%
   23   23.2  0.5  0.5   0.000%   0.000%   0.000%   0.000%   0.000%   0.000%   0.000%   0.000%   0.000%   0.000%
   24   24.2  0.5  0.5   0.000%   0.000%   0.000%   0.000%   0.000%   0.000%   0.000%   0.000%   0.000%   0.000%
   25   25.2  0.5  0.5   0.000%   0.000%   0.000%   0.000%   0.000%   0.000%   0.000%   0.000%   0.000%   0.000%
   26   26.2  0.5  0.5   0.000%   0.000%   0.000%   0.000%   0.000%   0.000%   0.000%   0.000%   0.000%   0.000%
   27   27.2  0.5  0.5   0.000%   0.000%   0.000%   0.000%   0.000%   0.000%   0.000%   0.000%   0.000%   0.000%
   28    1.2  0.5 -0.5   0.000%   0.000%   0.000%   0.000%   0.000%   0.000%   0.000%   0.000%   0.000%   0.000%
   29    2.2  0.5 -0.5   0.000%   0.000%   0.000%   0.000%   0.000%   0.000%   0.000%   0.000%   0.000%   0.000%
   30    3.2  0.5 -0.5   0.000%   0.000%   0.000%   0.000%   0.000%   0.000%   0.000%   0.000%   0.000%   0.000%
   31    4.2  0.5 -0.5   0.000%   0.001%   0.000%   0.017%   0.000%   0.000%   0.012%   0.000%   0.003%   0.000%
   32    5.2  0.5 -0.5   0.004%   0.000%   0.011%   0.000%   0.003%   0.000%   0.000%   0.005%   0.000%   0.009%
   33    6.2  0.5 -0.5   0.000%   0.013%   0.000%   0.000%   0.000%   0.004%   0.002%   0.000%   0.012%   0.000%
   34    7.2  0.5 -0.5   0.004%   0.000%   0.001%   0.000%   0.001%   0.012%   0.001%   0.005%   0.007%   0.000%
   35    8.2  0.5 -0.5   0.006%   0.001%   0.001%   0.000%   0.005%   0.006%   0.001%   0.008%   0.005%   0.000%
   36    9.2  0.5 -0.5   0.000%   0.000%   0.000%   0.000%   0.000%   0.000%   0.000%   0.013%   0.000%   0.008%
   37   10.2  0.5 -0.5   0.000%   0.000%   0.000%   0.000%   0.000%   0.000%   0.000%   0.000%   0.000%   0.021%
   38   11.2  0.5 -0.5   0.000%   0.000%   0.000%   0.000%   0.000%   0.000%   0.018%   0.000%   0.003%   0.000%
   39   12.2  0.5 -0.5   0.000%   0.000%   0.000%   0.000%   0.000%   0.000%   0.000%   0.000%   0.000%   0.000%
   40   13.2  0.5 -0.5   0.000%   0.000%   0.000%   0.000%   0.000%   0.000%   0.000%   0.000%   0.000%   0.000%
   41   14.2  0.5 -0.5   0.000%   0.000%   0.000%   0.000%   0.000%   0.000%   0.000%   0.000%   0.000%   0.000%
   42   15.2  0.5 -0.5   0.000%   0.000%   0.000%   0.000%   0.000%   0.000%   0.000%   0.000%   0.000%   0.000%
   43   16.2  0.5 -0.5   0.000%   0.000%   0.000%   0.000%   0.000%   0.000%   0.000%   0.000%   0.000%   0.000%
   44   17.2  0.5 -0.5   0.000%   0.000%   0.000%   0.000%   0.000%   0.000%   0.000%   0.000%   0.000%   0.000%
   45   18.2  0.5 -0.5   0.000%   0.000%   0.000%   0.000%   0.000%   0.000%   0.000%   0.000%   0.000%   0.000%
   46   19.2  0.5 -0.5   0.000%   0.000%   0.000%   0.000%   0.000%   0.000%   0.000%   0.000%   0.000%   0.000%
   47   20.2  0.5 -0.5   0.000%   0.000%   0.000%   0.000%   0.000%   0.000%   0.000%   0.000%   0.000%   0.000%
   48   21.2  0.5 -0.5   0.000%   0.000%   0.000%   0.000%   0.000%   0.000%   0.000%   0.000%   0.000%   0.000%
   49   22.2  0.5 -0.5   0.000%   0.000%   0.000%   0.000%   0.000%   0.000%   0.000%   0.000%   0.000%   0.000%
   50   23.2  0.5 -0.5   0.000%   0.000%   0.000%   0.000%   0.000%   0.000%   0.000%   0.000%   0.000%   0.000%
   51   24.2  0.5 -0.5   0.000%   0.000%   0.000%   0.000%   0.000%   0.000%   0.000%   0.000%   0.000%   0.000%
   52   25.2  0.5 -0.5   0.000%   0.000%   0.000%   0.000%   0.000%   0.000%   0.000%   0.000%   0.000%   0.000%
   53   26.2  0.5 -0.5   0.000%   0.000%   0.000%   0.000%   0.000%   0.000%   0.000%   0.000%   0.000%   0.000%
   54   27.2  0.5 -0.5   0.000%   0.000%   0.000%   0.000%   0.000%   0.000%   0.000%   0.000%   0.000%   0.000%
   55    1.2  1.5  1.5   0.005%   0.000%   0.001%   0.000%   0.006%   0.000%   0.000%   0.005%   0.000%   0.001%
   56    2.2  1.5  1.5   0.000%   0.005%   0.000%   0.001%   0.000%   0.003%   0.003%   0.000%   0.016%   0.000%
   57    3.2  1.5  1.5   0.003%   0.000%   0.001%   0.000%   0.008%   0.000%   0.000%   0.005%   0.000%   0.001%
   58    4.2  1.5  1.5   0.000%   0.000%   0.000%   0.000%   0.000%   0.000%   0.000%   0.009%   0.000%   0.002%
   59    5.2  1.5  1.5   0.000%   0.000%   0.000%   0.000%   0.000%   0.000%   0.000%   0.009%   0.000%   0.002%
   60    6.2  1.5  1.5   0.000%   0.000%   0.000%   0.000%   0.000%   0.000%   0.009%   0.000%   0.002%   0.000%
   61    7.2  1.5  1.5   0.000%   0.001%   0.000%   0.000%   0.000%   0.000%   0.003%   0.000%   0.008%   0.000%
   62    8.2  1.5  1.5   0.000%   0.000%   0.000%   0.000%   0.000%   0.000%   0.008%   0.000%   0.003%   0.000%
   63    9.2  1.5  1.5   0.000%   0.000%   0.000%   0.000%   0.000%   0.000%   0.000%   0.000%   0.001%   0.000%
   64   10.2  1.5  1.5   1.772%   0.008%   0.301%   0.001%   2.031%   0.040%   0.001%   0.526%   0.000%   0.092%
   65   11.2  1.5  1.5   0.008%   1.725%   0.001%   0.237%   0.021%   1.056%   0.271%   0.000%   1.580%   0.001%
   66   12.2  1.5  1.5   1.101%   0.005%   0.385%   0.002%   2.609%   0.051%   0.001%   0.530%   0.000%   0.089%
   67   13.2  1.5  1.5   3.027%   0.014%  16.879%   0.072%  17.096%   0.336%   0.023%  16.685%   0.002%   2.793%
   68   14.2  1.5  1.5  13.567%   0.064%  15.599%   0.066%   7.978%   0.156%   0.023%  16.549%   0.002%   2.918%
   69   15.2  1.5  1.5   0.002%   0.425%   0.031%   7.318%   0.004%   0.194%  16.341%   0.023%   2.808%   0.002%
   70   16.2  1.5  1.5   0.088%  18.736%   0.001%   0.125%   0.219%  11.175%  15.535%   0.021%   3.732%   0.003%
   71   17.2  1.5  1.5   0.041%   8.664%   0.046%  10.959%   0.109%   5.558%   3.720%   0.005%  15.550%   0.010%
   72    1.2  1.5  0.5   0.000%   0.002%   0.000%   0.006%   0.000%   0.001%   0.013%   0.000%   0.001%   0.000%
   73    2.2  1.5  0.5   0.001%   0.000%   0.012%   0.000%   0.000%   0.000%   0.000%   0.002%   0.000%   0.000%
   74    3.2  1.5  0.5   0.000%   0.006%   0.000%   0.001%   0.000%   0.003%   0.003%   0.000%   0.011%   0.000%
   75    4.2  1.5  0.5   0.000%   0.000%   0.000%   0.000%   0.000%   0.000%   0.002%   0.000%   0.009%   0.000%
   76    5.2  1.5  0.5   0.000%   0.000%   0.000%   0.000%   0.000%   0.000%   0.002%   0.000%   0.009%   0.000%
   77    6.2  1.5  0.5   0.000%   0.000%   0.000%   0.000%   0.001%   0.000%   0.000%   0.002%   0.000%   0.009%
   78    7.2  1.5  0.5   0.000%   0.000%   0.000%   0.000%   0.000%   0.000%   0.000%   0.008%   0.000%   0.003%
   79    8.2  1.5  0.5   0.001%   0.000%   0.000%   0.000%   0.000%   0.000%   0.000%   0.003%   0.000%   0.008%
   80    9.2  1.5  0.5   0.000%   0.000%   0.000%   0.000%   0.000%   0.000%   0.000%   0.001%   0.000%   0.000%
   81   10.2  1.5  0.5   0.004%   0.797%   0.009%   2.087%   0.010%   0.509%   1.295%   0.002%   0.144%   0.000%
   82   11.2  1.5  0.5   0.241%   0.001%   4.151%   0.018%   0.110%   0.002%   0.000%   0.178%   0.000%   0.030%
   83   12.2  1.5  0.5   0.009%   1.923%   0.002%   0.365%   0.022%   1.096%   0.287%   0.000%   1.153%   0.001%
   84   13.2  1.5  0.5   0.000%   0.006%   0.075%  17.706%   0.000%   0.003%   2.882%   0.004%  16.397%   0.011%
   85   14.2  1.5  0.5   0.015%   3.227%   0.054%  12.732%   0.034%   1.735%   2.764%   0.004%  16.495%   0.011%
   86   15.2  1.5  0.5   0.102%   0.000%   1.403%   0.006%  44.861%   0.880%   0.004%   2.871%   0.011%  16.715%
   87   16.2  1.5  0.5  23.666%   0.111%   1.278%   0.005%   0.312%   0.006%   0.005%   3.732%   0.010%  15.559%
   88   17.2  1.5  0.5  20.498%   0.096%   7.996%   0.034%   1.698%   0.033%   0.021%  15.544%   0.003%   3.724%
   89    1.2  1.5 -0.5   0.002%   0.000%   0.006%   0.000%   0.001%   0.000%   0.000%   0.013%   0.000%   0.001%
   90    2.2  1.5 -0.5   0.000%   0.001%   0.000%   0.012%   0.000%   0.000%   0.002%   0.000%   0.000%   0.000%
   91    3.2  1.5 -0.5   0.006%   0.000%   0.001%   0.000%   0.003%   0.000%   0.000%   0.003%   0.000%   0.011%
   92    4.2  1.5 -0.5   0.000%   0.000%   0.000%   0.000%   0.000%   0.000%   0.000%   0.002%   0.000%   0.009%
   93    5.2  1.5 -0.5   0.000%   0.000%   0.000%   0.000%   0.000%   0.000%   0.000%   0.002%   0.000%   0.009%
   94    6.2  1.5 -0.5   0.000%   0.000%   0.000%   0.000%   0.000%   0.001%   0.002%   0.000%   0.009%   0.000%
   95    7.2  1.5 -0.5   0.000%   0.000%   0.000%   0.000%   0.000%   0.000%   0.008%   0.000%   0.003%   0.000%
   96    8.2  1.5 -0.5   0.000%   0.001%   0.000%   0.000%   0.000%   0.000%   0.003%   0.000%   0.008%   0.000%
   97    9.2  1.5 -0.5   0.000%   0.000%   0.000%   0.000%   0.000%   0.000%   0.001%   0.000%   0.000%   0.000%
   98   10.2  1.5 -0.5   0.797%   0.004%   2.087%   0.009%   0.509%   0.010%   0.002%   1.295%   0.000%   0.144%
   99   11.2  1.5 -0.5   0.001%   0.241%   0.018%   4.151%   0.002%   0.110%   0.178%   0.000%   0.030%   0.000%
  100   12.2  1.5 -0.5   1.923%   0.009%   0.365%   0.002%   1.096%   0.022%   0.000%   0.287%   0.001%   1.153%
  101   13.2  1.5 -0.5   0.006%   0.000%  17.706%   0.075%   0.003%   0.000%   0.004%   2.882%   0.011%  16.397%
  102   14.2  1.5 -0.5   3.227%   0.015%  12.732%   0.054%   1.735%   0.034%   0.004%   2.764%   0.011%  16.495%
  103   15.2  1.5 -0.5   0.000%   0.102%   0.006%   1.403%   0.880%  44.861%   2.871%   0.004%  16.715%   0.011%
  104   16.2  1.5 -0.5   0.111%  23.666%   0.005%   1.278%   0.006%   0.312%   3.732%   0.005%  15.559%   0.010%
  105   17.2  1.5 -0.5   0.096%  20.498%   0.034%   7.996%   0.033%   1.698%  15.544%   0.021%   3.724%   0.003%
  106    1.2  1.5 -1.5   0.000%   0.005%   0.000%   0.001%   0.000%   0.006%   0.005%   0.000%   0.001%   0.000%
  107    2.2  1.5 -1.5   0.005%   0.000%   0.001%   0.000%   0.003%   0.000%   0.000%   0.003%   0.000%   0.016%
  108    3.2  1.5 -1.5   0.000%   0.003%   0.000%   0.001%   0.000%   0.008%   0.005%   0.000%   0.001%   0.000%
  109    4.2  1.5 -1.5   0.000%   0.000%   0.000%   0.000%   0.000%   0.000%   0.009%   0.000%   0.002%   0.000%
  110    5.2  1.5 -1.5   0.000%   0.000%   0.000%   0.000%   0.000%   0.000%   0.009%   0.000%   0.002%   0.000%
  111    6.2  1.5 -1.5   0.000%   0.000%   0.000%   0.000%   0.000%   0.000%   0.000%   0.009%   0.000%   0.002%
  112    7.2  1.5 -1.5   0.001%   0.000%   0.000%   0.000%   0.000%   0.000%   0.000%   0.003%   0.000%   0.008%
  113    8.2  1.5 -1.5   0.000%   0.000%   0.000%   0.000%   0.000%   0.000%   0.000%   0.008%   0.000%   0.003%
  114    9.2  1.5 -1.5   0.000%   0.000%   0.000%   0.000%   0.000%   0.000%   0.000%   0.000%   0.000%   0.001%
  115   10.2  1.5 -1.5   0.008%   1.772%   0.001%   0.301%   0.040%   2.031%   0.526%   0.001%   0.092%   0.000%
  116   11.2  1.5 -1.5   1.725%   0.008%   0.237%   0.001%   1.056%   0.021%   0.000%   0.271%   0.001%   1.580%
  117   12.2  1.5 -1.5   0.005%   1.101%   0.002%   0.385%   0.051%   2.609%   0.530%   0.001%   0.089%   0.000%
  118   13.2  1.5 -1.5   0.014%   3.027%   0.072%  16.879%   0.336%  17.096%  16.685%   0.023%   2.793%   0.002%
  119   14.2  1.5 -1.5   0.064%  13.567%   0.066%  15.599%   0.156%   7.978%  16.549%   0.023%   2.918%   0.002%
  120   15.2  1.5 -1.5   0.425%   0.002%   7.318%   0.031%   0.194%   0.004%   0.023%  16.341%   0.002%   2.808%
  121   16.2  1.5 -1.5  18.736%   0.088%   0.125%   0.001%  11.175%   0.219%   0.021%  15.535%   0.003%   3.732%
  122   17.2  1.5 -1.5   8.664%   0.041%  10.959%   0.046%   5.558%   0.109%   0.005%   3.720%   0.010%  15.550%

   Nr   State  S   Sz     121      122

    1    1.2  0.5  0.5   0.000%   0.000%
    2    2.2  0.5  0.5   0.000%   0.000%
    3    3.2  0.5  0.5   0.000%   0.000%
    4    4.2  0.5  0.5   0.000%   0.000%
    5    5.2  0.5  0.5   0.000%   0.000%
    6    6.2  0.5  0.5   0.000%   0.000%
    7    7.2  0.5  0.5   0.000%   0.000%
    8    8.2  0.5  0.5   0.000%   0.000%
    9    9.2  0.5  0.5   0.000%   0.016%
   10   10.2  0.5  0.5   0.000%   0.016%
   11   11.2  0.5  0.5   0.016%   0.000%
   12   12.2  0.5  0.5   0.001%   0.000%
   13   13.2  0.5  0.5   0.000%   0.000%
   14   14.2  0.5  0.5   0.000%   0.000%
   15   15.2  0.5  0.5   0.000%   0.000%
   16   16.2  0.5  0.5   0.000%   0.000%
   17   17.2  0.5  0.5   0.000%   0.000%
   18   18.2  0.5  0.5   0.000%   0.000%
   19   19.2  0.5  0.5   0.000%   0.000%
   20   20.2  0.5  0.5   0.000%   0.001%
   21   21.2  0.5  0.5   0.000%   0.001%
   22   22.2  0.5  0.5   0.001%   0.000%
   23   23.2  0.5  0.5   0.000%   0.000%
   24   24.2  0.5  0.5   0.000%   0.000%
   25   25.2  0.5  0.5   0.000%   0.000%
   26   26.2  0.5  0.5   0.000%   0.000%
   27   27.2  0.5  0.5   0.000%   0.000%
   28    1.2  0.5 -0.5   0.000%   0.000%
   29    2.2  0.5 -0.5   0.000%   0.000%
   30    3.2  0.5 -0.5   0.000%   0.000%
   31    4.2  0.5 -0.5   0.000%   0.000%
   32    5.2  0.5 -0.5   0.000%   0.000%
   33    6.2  0.5 -0.5   0.000%   0.000%
   34    7.2  0.5 -0.5   0.000%   0.000%
   35    8.2  0.5 -0.5   0.000%   0.000%
   36    9.2  0.5 -0.5   0.016%   0.000%
   37   10.2  0.5 -0.5   0.016%   0.000%
   38   11.2  0.5 -0.5   0.000%   0.016%
   39   12.2  0.5 -0.5   0.000%   0.001%
   40   13.2  0.5 -0.5   0.000%   0.000%
   41   14.2  0.5 -0.5   0.000%   0.000%
   42   15.2  0.5 -0.5   0.000%   0.000%
   43   16.2  0.5 -0.5   0.000%   0.000%
   44   17.2  0.5 -0.5   0.000%   0.000%
   45   18.2  0.5 -0.5   0.000%   0.000%
   46   19.2  0.5 -0.5   0.000%   0.000%
   47   20.2  0.5 -0.5   0.001%   0.000%
   48   21.2  0.5 -0.5   0.001%   0.000%
   49   22.2  0.5 -0.5   0.000%   0.001%
   50   23.2  0.5 -0.5   0.000%   0.000%
   51   24.2  0.5 -0.5   0.000%   0.000%
   52   25.2  0.5 -0.5   0.000%   0.000%
   53   26.2  0.5 -0.5   0.000%   0.000%
   54   27.2  0.5 -0.5   0.000%   0.000%
   55    1.2  1.5  1.5   0.003%   0.000%
   56    2.2  1.5  1.5   0.000%   0.000%
   57    3.2  1.5  1.5   0.003%   0.000%
   58    4.2  1.5  1.5   0.006%   0.000%
   59    5.2  1.5  1.5   0.006%   0.000%
   60    6.2  1.5  1.5   0.000%   0.024%
   61    7.2  1.5  1.5   0.000%   0.000%
   62    8.2  1.5  1.5   0.000%   0.024%
   63    9.2  1.5  1.5   0.000%   0.000%
   64   10.2  1.5  1.5   0.211%   0.000%
   65   11.2  1.5  1.5   0.000%   0.000%
   66   12.2  1.5  1.5   0.211%   0.000%
   67   13.2  1.5  1.5   4.923%   0.011%
   68   14.2  1.5  1.5   4.922%   0.011%
   69   15.2  1.5  1.5   0.042%  19.736%
   70   16.2  1.5  1.5   0.019%   8.665%
   71   17.2  1.5  1.5   0.024%  11.151%
   72    1.2  1.5  0.5   0.000%   0.001%
   73    2.2  1.5  0.5   0.004%   0.000%
   74    3.2  1.5  0.5   0.000%   0.001%
   75    4.2  1.5  0.5   0.000%   0.018%
   76    5.2  1.5  0.5   0.000%   0.018%
   77    6.2  1.5  0.5   0.000%   0.000%
   78    7.2  1.5  0.5   0.024%   0.000%
   79    8.2  1.5  0.5   0.000%   0.000%
   80    9.2  1.5  0.5   0.000%   0.000%
   81   10.2  1.5  0.5   0.000%   0.071%
   82   11.2  1.5  0.5   0.282%   0.001%
   83   12.2  1.5  0.5   0.000%   0.071%
   84   13.2  1.5  0.5   0.032%  14.781%
   85   14.2  1.5  0.5   0.032%  14.787%
   86   15.2  1.5  0.5   0.000%   0.000%
   87   16.2  1.5  0.5  11.131%   0.024%
   88   17.2  1.5  0.5   8.658%   0.019%
   89    1.2  1.5 -0.5   0.001%   0.000%
   90    2.2  1.5 -0.5   0.000%   0.004%
   91    3.2  1.5 -0.5   0.001%   0.000%
   92    4.2  1.5 -0.5   0.018%   0.000%
   93    5.2  1.5 -0.5   0.018%   0.000%
   94    6.2  1.5 -0.5   0.000%   0.000%
   95    7.2  1.5 -0.5   0.000%   0.024%
   96    8.2  1.5 -0.5   0.000%   0.000%
   97    9.2  1.5 -0.5   0.000%   0.000%
   98   10.2  1.5 -0.5   0.071%   0.000%
   99   11.2  1.5 -0.5   0.001%   0.282%
  100   12.2  1.5 -0.5   0.071%   0.000%
  101   13.2  1.5 -0.5  14.781%   0.032%
  102   14.2  1.5 -0.5  14.787%   0.032%
  103   15.2  1.5 -0.5   0.000%   0.000%
  104   16.2  1.5 -0.5   0.024%  11.131%
  105   17.2  1.5 -0.5   0.019%   8.658%
  106    1.2  1.5 -1.5   0.000%   0.003%
  107    2.2  1.5 -1.5   0.000%   0.000%
  108    3.2  1.5 -1.5   0.000%   0.003%
  109    4.2  1.5 -1.5   0.000%   0.006%
  110    5.2  1.5 -1.5   0.000%   0.006%
  111    6.2  1.5 -1.5   0.024%   0.000%
  112    7.2  1.5 -1.5   0.000%   0.000%
  113    8.2  1.5 -1.5   0.024%   0.000%
  114    9.2  1.5 -1.5   0.000%   0.000%
  115   10.2  1.5 -1.5   0.000%   0.211%
  116   11.2  1.5 -1.5   0.000%   0.000%
  117   12.2  1.5 -1.5   0.000%   0.211%
  118   13.2  1.5 -1.5   0.011%   4.923%
  119   14.2  1.5 -1.5   0.011%   4.922%
  120   15.2  1.5 -1.5  19.736%   0.042%
  121   16.2  1.5 -1.5   8.665%   0.019%
  122   17.2  1.5 -1.5  11.151%   0.024%


 Property matrices transformed in SO basis (not sym. adapted)
 ============================================================

 No matrix element <i|DMX|i> larger than 5E-7
 No matrix element <i|DMX|1> larger than 5E-7

 No matrix element <i|DMY|i> larger than 5E-7
 No matrix element <i|DMY|1> larger than 5E-7

 No matrix element <i|DMZ|i> larger than 5E-7
 No matrix element <i|DMZ|1> larger than 5E-7


 **********************************************************************************************************************************
 DATASETS  * FILE   NREC   LENGTH (MB)   RECORD NAMES
              1      21       57.06       500      610      700      900      950      970     1000      129      960     1100   
                                          VAR    BASINP    GEOM    SYMINP    ZMAT    AOBASIS   BASIS     P2S    ABASIS      S 
                                         1400     1410     1420     1200     1210     1080     1700     1600     1650     1380   
                                           T        V       ECP      H0       H01     AOSYM    OPER      SMH    MOLCAS    JKOP   
                                         1700(1)
                                         OPER   

              2       7    13370.87       700     1000      520     2100     2140     5203     5303   
                                         GEOM     BASIS   MCVARS     RHF     MCSCF    MRCI     MRCI   

 PROGRAMS   *        TOTAL        CI        CI        CI     MULTI   RHF-SCF       INT
 CPU TIMES  *   2117351.912068173.50  11074.78  38094.74      5.53      0.36      2.54
 REAL TIME  *   2139664.29 SEC
 DISK USED  *        13.11 GB (local),      210.11 GB (total)
 SF USED    *        89.43 GB
 GA USED    *         0.00 MB       (max)       0.00 MB       (current)
 **********************************************************************************************************************************

 CI/USERDEF energy=   -261.612757415582

              CI              CI           MULTI         RHF-SCF
   -261.53014138   -261.89170021   -260.72129705   -261.43913390
 **********************************************************************************************************************************
 Molpro calculation terminated with 1 warning(s)
