
 Working directory              : /wrk/irikura/molpro.ODqC2RrhRN/
 Global scratch directory       : /wrk/irikura/molpro.ODqC2RrhRN/
 Wavefunction directory         : /home/irikura/wfu/
 Main file repository           : /wrk/irikura/molpro.ODqC2RrhRN/

 id        : nistki

 Nodes            nprocs
 pn112695.nist.gov   16
 GA implementation: MPI file
 GA implementation (serial work in mppx): MPI file

 Using customized tuning parameters: mindgm=1; mindgv=20; mindgc=4; mindgr=1; noblas=0; minvec=7
 default implementation of scratch files=sf  


 Variables initialized (1040), CPU time= 0.02 sec
 ***,At SO-CI
                                                                                 ! active space (5/6)
                                                                                 ! additional diffuse spdf functions
                                                                                 ! uncontracted p basis functions
 memory,2000,M;
 
 gprint,orbitals,civector,basis;
 
 symmetry,xyz
 geometry={At};
 
 basis={
 ecp,at,ECP60MDF;
 p,at,aug-cc-pwCVQZ-PP
 sdfgh,at,aug-cc-pwCVQZ-PP;C; spdf,1,even,nprim=1,ratio=3.0;
 }
 
 {rhf;wf,charge=-1}
 
 NDOUB=12
 NQUAR=9
 
 {multi
     occ,7,9
     closed,7,3
     wf,charge=0,sym=2,spin=1;state,NDOUB;
     wf,charge=0,sym=2,spin=3;state,NQUAR;
     expec2,lxx,lyy,lzz;
 }
 table, energy, ll
 title, Energies and &lt;L**2&gt; values
 
 core,0,0
 
 {ci;wf,sym=2,spin=1;state,NDOUB; save,5203.2}
 hlsdiag = energd4
 {ci;wf,sym=2,spin=3;state,NQUAR; save,5303.2}
 hlsdiag(NDOUB+1) = energd4
 
 table,hlsdiag
 
 {ci;hlsmat,ecp,5203.2,5303.2;print,vls=0,hls=0}                                 !compute and diagonalize SO matrix
 Commands initialized (846), CPU time= 0.02 sec, 717 directives.
 Default parameters read. Elapsed time= 0.21 sec

 Checking input...
 Passed
1


                                         ***  PROGRAM SYSTEM MOLPRO  ***
                                       Copyright, TTI GmbH Stuttgart, 2015
                                    Version 2023.2 linked Fri Sep 22 03:27:09 2023


 **********************************************************************************************************************************
 LABEL *   At SO-CI                                                                                                                                                      
  (32 PROC) 64 bit mpp version                                                           DATE: 03-Feb-25          TIME: 10:55:27  
 **********************************************************************************************************************************

 SHA1:             3c61bfe44d37c8635c785372c339f5cbdd4e4b59
 **********************************************************************************************************************************

 Memory per process:      2000 MW
 Total memory per node:  32000 MW

 GA preallocation disabled
 GA check disabled

 Variable memory set to 2000.0 MW


 ZSYMEL=XYZ

 SETTING BASIS          =    USERDEF


 Recomputing integrals since basis changed


 Using spherical harmonics

 Library entry At   ECP ECP60MDF                 selected for group  1
 Library entry AT     S AUG-CC-PWCVQZ-PP     selected for orbital group  1
 Even tempered At S diffuse               selected for group 1    nprim= 1    centre=  0.010    ratio= 3.000    dratio= 1.000
 Library entry AT     P AUG-CC-PWCVQZ-PP     selected for orbital group  1
 Even tempered At P diffuse               selected for group 1    nprim= 1    centre=  0.008    ratio= 3.000    dratio= 1.000
 Library entry AT     D AUG-CC-PWCVQZ-PP     selected for orbital group  1
 Even tempered At D diffuse               selected for group 1    nprim= 1    centre=  0.018    ratio= 3.000    dratio= 1.000
 Library entry AT     F AUG-CC-PWCVQZ-PP     selected for orbital group  1
 Even tempered At F diffuse               selected for group 1    nprim= 1    centre=  0.040    ratio= 3.000    dratio= 1.000
 Library entry AT     G AUG-CC-PWCVQZ-PP     selected for orbital group  1
 Library entry AT     H AUG-CC-PWCVQZ-PP     selected for orbital group  1


 PROGRAM * SEWARD (Integral evaluation for generally contracted gaussian basis sets)     Author: Roland Lindh, 1990

 Geometry written to block  1 of record 700

 Orientation using atomic masses  
 Molecule type: Atom
 User-specified symmetry elements: XYZ
 Symmetry elements: XYZ
 Rotational constants:       0.0000000      0.0000000      0.0000000 GHz  (calculated with average atomic masses)

 Point group  Ci  



 ATOMIC COORDINATES

 NR  ATOM    CHARGE       X              Y              Z

   1  AT     25.00    0.000000000    0.000000000    0.000000000


          AT  CORE POTENTIAL

          h POTENTIAL

 POWERS             2
 EXPONENTIALS   1.000000    
 COEFFICIENTS   0.000000    

          s - h POTENTIAL

 POWERS             2              2              2
 EXPONENTIALS   30.20083       13.61231       8.529340    
 COEFFICIENTS   49.95716       283.2104       62.28105    

          p - h POTENTIAL

 POWERS             2              2              2              2
 EXPONENTIALS   10.85407       9.468229       7.031114       6.143858    
 COEFFICIENTS   71.98237       143.9035       4.871759       8.983059    

          d - h POTENTIAL

 POWERS             2              2              2              2
 EXPONENTIALS   8.313515       7.998965       5.179966       4.942226    
 COEFFICIENTS   36.36324       54.54897       9.776285       14.26475    

          f - h POTENTIAL

 POWERS             2              2              2              2
 EXPONENTIALS   5.812163       5.753715       2.513472       2.536261    
 COEFFICIENTS   19.87020       26.41645      0.9949700       1.490701    

          g - h POTENTIAL

 POWERS             2              2              2              2
 EXPONENTIALS   9.895778       9.737334       3.013331       3.097763    
 COEFFICIENTS  -22.22320      -26.71548     -0.3730440     -0.4859460    


          AT  SPIN-ORBIT POTENTIAL

          p POTENTIAL

 POWERS             2              2              2              2
 EXPONENTIALS   10.85407       9.468229       7.031114       6.143858    
 COEFFICIENTS  -143.9647       143.9035      -9.743517       8.983059    

          d POTENTIAL

 POWERS             2              2              2              2
 EXPONENTIALS   8.313515       7.998965       5.179966       4.942226    
 COEFFICIENTS  -36.36324       36.36598      -9.776285       9.509836    

          f POTENTIAL

 POWERS             2              2              2              2
 EXPONENTIALS   5.812163       5.753715       2.513472       2.536261    
 COEFFICIENTS  -13.24680       13.20823     -0.6633140      0.7453510    

          g POTENTIAL

 POWERS             2              2              2              2
 EXPONENTIALS   9.895778       9.737334       3.013331       3.097763    
 COEFFICIENTS   11.11160      -10.68619      0.1865220     -0.1943780    


 BASIS DATA

   Nr Sym  Nuc  Type         Exponents   Contraction coefficients

    1.1 Ag    1  1s        9090.280000     0.000035    0.000019    0.000000    0.000000    0.000000    0.000000
    2.1 Ag                 1373.070000     0.000242    0.000127    0.000000    0.000000    0.000000    0.000000
    3.1 Ag                  307.950000     0.000815    0.000456    0.000000    0.000000    0.000000    0.000000
    4.1 Ag                   48.017600     0.008465    0.003675    0.000000    0.000000    0.000000    0.000000
    5.1 Ag                   23.909900    -0.147333   -0.068206    0.000000    0.000000    0.000000    0.000000
    6.1 Ag                   14.933400     0.632415    0.317399    0.000000    0.000000    0.000000    0.000000
                              9.331710    -0.616406   -0.363749    0.000000    0.000000    0.000000    0.000000
                              5.832060    -0.619258   -0.272537    0.000000    0.000000    0.000000    0.000000
                              2.287870     0.785124    0.534432    0.000000    0.000000    0.000000    0.000000
                              1.249830     0.656121    0.612899    0.000000    0.000000    0.000000    0.000000
                              0.575368     0.086170   -0.063656    1.000000    0.000000    0.000000    0.000000
                              0.331459    -0.010246   -0.641725    0.000000    1.000000    0.000000    0.000000
                              0.163367     0.002712   -0.532364    0.000000    0.000000    1.000000    0.000000
                              0.076210    -0.000414   -0.104371    0.000000    0.000000    0.000000    1.000000
    7.1 Ag    1  1s           6.150500     1.000000
    8.1 Ag    1  1s           3.085100     1.000000
    9.1 Ag    1  1s           1.547500     1.000000
   10.1 Ag    1  1s           0.029700     1.000000
   11.1 Ag    1  1s           0.009900     1.000000
   12.1 Ag    1  3d0        183.913000     0.000097
                             54.513300     0.000729
                             15.751600     0.009468
                              7.024370    -0.090091
                              4.386740     0.056446
                              2.561580     0.283874
                              1.508820     0.366445
                              0.892151     0.284452
                              0.518170     0.144966
                              0.283732     0.042781
                              0.127000     0.004225
   13.1 Ag    1  3d2-       183.913000     0.000097
                             54.513300     0.000729
                             15.751600     0.009468
                              7.024370    -0.090091
                              4.386740     0.056446
                              2.561580     0.283874
                              1.508820     0.366445
                              0.892151     0.284452
                              0.518170     0.144966
                              0.283732     0.042781
                              0.127000     0.004225
   14.1 Ag    1  3d1+       183.913000     0.000097
                             54.513300     0.000729
                             15.751600     0.009468
                              7.024370    -0.090091
                              4.386740     0.056446
                              2.561580     0.283874
                              1.508820     0.366445
                              0.892151     0.284452
                              0.518170     0.144966
                              0.283732     0.042781
                              0.127000     0.004225
   15.1 Ag    1  3d2+       183.913000     0.000097
                             54.513300     0.000729
                             15.751600     0.009468
                              7.024370    -0.090091
                              4.386740     0.056446
                              2.561580     0.283874
                              1.508820     0.366445
                              0.892151     0.284452
                              0.518170     0.144966
                              0.283732     0.042781
                              0.127000     0.004225
   16.1 Ag    1  3d1-       183.913000     0.000097
                             54.513300     0.000729
                             15.751600     0.009468
                              7.024370    -0.090091
                              4.386740     0.056446
                              2.561580     0.283874
                              1.508820     0.366445
                              0.892151     0.284452
                              0.518170     0.144966
                              0.283732     0.042781
                              0.127000     0.004225
   17.1 Ag    1  3d0        183.913000     0.000000
                             54.513300     0.000000
                             15.751600     0.000000
                              7.024370     0.000000
                              4.386740     0.000000
                              2.561580     0.000000
                              1.508820     0.000000
                              0.892151     0.000000
                              0.518170     1.000000
                              0.283732     0.000000
                              0.127000     0.000000
   18.1 Ag    1  3d2-       183.913000     0.000000
                             54.513300     0.000000
                             15.751600     0.000000
                              7.024370     0.000000
                              4.386740     0.000000
                              2.561580     0.000000
                              1.508820     0.000000
                              0.892151     0.000000
                              0.518170     1.000000
                              0.283732     0.000000
                              0.127000     0.000000
   19.1 Ag    1  3d1+       183.913000     0.000000
                             54.513300     0.000000
                             15.751600     0.000000
                              7.024370     0.000000
                              4.386740     0.000000
                              2.561580     0.000000
                              1.508820     0.000000
                              0.892151     0.000000
                              0.518170     1.000000
                              0.283732     0.000000
                              0.127000     0.000000
   20.1 Ag    1  3d2+       183.913000     0.000000
                             54.513300     0.000000
                             15.751600     0.000000
                              7.024370     0.000000
                              4.386740     0.000000
                              2.561580     0.000000
                              1.508820     0.000000
                              0.892151     0.000000
                              0.518170     1.000000
                              0.283732     0.000000
                              0.127000     0.000000
   21.1 Ag    1  3d1-       183.913000     0.000000
                             54.513300     0.000000
                             15.751600     0.000000
                              7.024370     0.000000
                              4.386740     0.000000
                              2.561580     0.000000
                              1.508820     0.000000
                              0.892151     0.000000
                              0.518170     1.000000
                              0.283732     0.000000
                              0.127000     0.000000
   22.1 Ag    1  3d0        183.913000     0.000000
                             54.513300     0.000000
                             15.751600     0.000000
                              7.024370     0.000000
                              4.386740     0.000000
                              2.561580     0.000000
                              1.508820     0.000000
                              0.892151     0.000000
                              0.518170     0.000000
                              0.283732     1.000000
                              0.127000     0.000000
   23.1 Ag    1  3d2-       183.913000     0.000000
                             54.513300     0.000000
                             15.751600     0.000000
                              7.024370     0.000000
                              4.386740     0.000000
                              2.561580     0.000000
                              1.508820     0.000000
                              0.892151     0.000000
                              0.518170     0.000000
                              0.283732     1.000000
                              0.127000     0.000000
   24.1 Ag    1  3d1+       183.913000     0.000000
                             54.513300     0.000000
                             15.751600     0.000000
                              7.024370     0.000000
                              4.386740     0.000000
                              2.561580     0.000000
                              1.508820     0.000000
                              0.892151     0.000000
                              0.518170     0.000000
                              0.283732     1.000000
                              0.127000     0.000000
   25.1 Ag    1  3d2+       183.913000     0.000000
                             54.513300     0.000000
                             15.751600     0.000000
                              7.024370     0.000000
                              4.386740     0.000000
                              2.561580     0.000000
                              1.508820     0.000000
                              0.892151     0.000000
                              0.518170     0.000000
                              0.283732     1.000000
                              0.127000     0.000000
   26.1 Ag    1  3d1-       183.913000     0.000000
                             54.513300     0.000000
                             15.751600     0.000000
                              7.024370     0.000000
                              4.386740     0.000000
                              2.561580     0.000000
                              1.508820     0.000000
                              0.892151     0.000000
                              0.518170     0.000000
                              0.283732     1.000000
                              0.127000     0.000000
   27.1 Ag    1  3d0        183.913000     0.000000
                             54.513300     0.000000
                             15.751600     0.000000
                              7.024370     0.000000
                              4.386740     0.000000
                              2.561580     0.000000
                              1.508820     0.000000
                              0.892151     0.000000
                              0.518170     0.000000
                              0.283732     0.000000
                              0.127000     1.000000
   28.1 Ag    1  3d2-       183.913000     0.000000
                             54.513300     0.000000
                             15.751600     0.000000
                              7.024370     0.000000
                              4.386740     0.000000
                              2.561580     0.000000
                              1.508820     0.000000
                              0.892151     0.000000
                              0.518170     0.000000
                              0.283732     0.000000
                              0.127000     1.000000
   29.1 Ag    1  3d1+       183.913000     0.000000
                             54.513300     0.000000
                             15.751600     0.000000
                              7.024370     0.000000
                              4.386740     0.000000
                              2.561580     0.000000
                              1.508820     0.000000
                              0.892151     0.000000
                              0.518170     0.000000
                              0.283732     0.000000
                              0.127000     1.000000
   30.1 Ag    1  3d2+       183.913000     0.000000
                             54.513300     0.000000
                             15.751600     0.000000
                              7.024370     0.000000
                              4.386740     0.000000
                              2.561580     0.000000
                              1.508820     0.000000
                              0.892151     0.000000
                              0.518170     0.000000
                              0.283732     0.000000
                              0.127000     1.000000
   31.1 Ag    1  3d1-       183.913000     0.000000
                             54.513300     0.000000
                             15.751600     0.000000
                              7.024370     0.000000
                              4.386740     0.000000
                              2.561580     0.000000
                              1.508820     0.000000
                              0.892151     0.000000
                              0.518170     0.000000
                              0.283732     0.000000
                              0.127000     1.000000
   32.1 Ag    1  3d0          3.919100     1.000000
   33.1 Ag    1  3d2-         3.919100     1.000000
   34.1 Ag    1  3d1+         3.919100     1.000000
   35.1 Ag    1  3d2+         3.919100     1.000000
   36.1 Ag    1  3d1-         3.919100     1.000000
   37.1 Ag    1  3d0          2.049300     1.000000
   38.1 Ag    1  3d2-         2.049300     1.000000
   39.1 Ag    1  3d1+         2.049300     1.000000
   40.1 Ag    1  3d2+         2.049300     1.000000
   41.1 Ag    1  3d1-         2.049300     1.000000
   42.1 Ag    1  3d0          1.071600     1.000000
   43.1 Ag    1  3d2-         1.071600     1.000000
   44.1 Ag    1  3d1+         1.071600     1.000000
   45.1 Ag    1  3d2+         1.071600     1.000000
   46.1 Ag    1  3d1-         1.071600     1.000000
   47.1 Ag    1  3d0          0.054200     1.000000
   48.1 Ag    1  3d2-         0.054200     1.000000
   49.1 Ag    1  3d1+         0.054200     1.000000
   50.1 Ag    1  3d2+         0.054200     1.000000
   51.1 Ag    1  3d1-         0.054200     1.000000
   52.1 Ag    1  3d0          0.018067     1.000000
   53.1 Ag    1  3d2-         0.018067     1.000000
   54.1 Ag    1  3d1+         0.018067     1.000000
   55.1 Ag    1  3d2+         0.018067     1.000000
   56.1 Ag    1  3d1-         0.018067     1.000000
   57.1 Ag    1  5g0          0.436300     1.000000
   58.1 Ag    1  5g2-         0.436300     1.000000
   59.1 Ag    1  5g1+         0.436300     1.000000
   60.1 Ag    1  5g4+         0.436300     1.000000
   61.1 Ag    1  5g1-         0.436300     1.000000
   62.1 Ag    1  5g2+         0.436300     1.000000
   63.1 Ag    1  5g4-         0.436300     1.000000
   64.1 Ag    1  5g3+         0.436300     1.000000
   65.1 Ag    1  5g3-         0.436300     1.000000
   66.1 Ag    1  5g0          3.756600     1.000000
   67.1 Ag    1  5g2-         3.756600     1.000000
   68.1 Ag    1  5g1+         3.756600     1.000000
   69.1 Ag    1  5g4+         3.756600     1.000000
   70.1 Ag    1  5g1-         3.756600     1.000000
   71.1 Ag    1  5g2+         3.756600     1.000000
   72.1 Ag    1  5g4-         3.756600     1.000000
   73.1 Ag    1  5g3+         3.756600     1.000000
   74.1 Ag    1  5g3-         3.756600     1.000000
   75.1 Ag    1  5g0          1.215100     1.000000
   76.1 Ag    1  5g2-         1.215100     1.000000
   77.1 Ag    1  5g1+         1.215100     1.000000
   78.1 Ag    1  5g4+         1.215100     1.000000
   79.1 Ag    1  5g1-         1.215100     1.000000
   80.1 Ag    1  5g2+         1.215100     1.000000
   81.1 Ag    1  5g4-         1.215100     1.000000
   82.1 Ag    1  5g3+         1.215100     1.000000
   83.1 Ag    1  5g3-         1.215100     1.000000
   84.1 Ag    1  5g0          0.221700     1.000000
   85.1 Ag    1  5g2-         0.221700     1.000000
   86.1 Ag    1  5g1+         0.221700     1.000000
   87.1 Ag    1  5g4+         0.221700     1.000000
   88.1 Ag    1  5g1-         0.221700     1.000000
   89.1 Ag    1  5g2+         0.221700     1.000000
   90.1 Ag    1  5g4-         0.221700     1.000000
   91.1 Ag    1  5g3+         0.221700     1.000000
   92.1 Ag    1  5g3-         0.221700     1.000000
    1.2 Au    1  2px        124.602000     1.000000
    2.2 Au    1  2py        124.602000     1.000000
    3.2 Au    1  2pz        124.602000     1.000000
    4.2 Au    1  2px         20.889900     1.000000
    5.2 Au    1  2py         20.889900     1.000000
    6.2 Au    1  2pz         20.889900     1.000000
    7.2 Au    1  2px         13.058500     1.000000
    8.2 Au    1  2py         13.058500     1.000000
    9.2 Au    1  2pz         13.058500     1.000000
   10.2 Au    1  2px          8.160610     1.000000
   11.2 Au    1  2py          8.160610     1.000000
   12.2 Au    1  2pz          8.160610     1.000000
   13.2 Au    1  2px          5.098080     1.000000
   14.2 Au    1  2py          5.098080     1.000000
   15.2 Au    1  2pz          5.098080     1.000000
   16.2 Au    1  2px          2.378760     1.000000
   17.2 Au    1  2py          2.378760     1.000000
   18.2 Au    1  2pz          2.378760     1.000000
   19.2 Au    1  2px          1.237550     1.000000
   20.2 Au    1  2py          1.237550     1.000000
   21.2 Au    1  2pz          1.237550     1.000000
   22.2 Au    1  2px          0.608325     1.000000
   23.2 Au    1  2py          0.608325     1.000000
   24.2 Au    1  2pz          0.608325     1.000000
   25.2 Au    1  2px          0.289782     1.000000
   26.2 Au    1  2py          0.289782     1.000000
   27.2 Au    1  2pz          0.289782     1.000000
   28.2 Au    1  2px          0.130004     1.000000
   29.2 Au    1  2py          0.130004     1.000000
   30.2 Au    1  2pz          0.130004     1.000000
   31.2 Au    1  2px          0.056096     1.000000
   32.2 Au    1  2py          0.056096     1.000000
   33.2 Au    1  2pz          0.056096     1.000000
   34.2 Au    1  2px          3.309300     1.000000
   35.2 Au    1  2py          3.309300     1.000000
   36.2 Au    1  2pz          3.309300     1.000000
   37.2 Au    1  2px          2.071500     1.000000
   38.2 Au    1  2py          2.071500     1.000000
   39.2 Au    1  2pz          2.071500     1.000000
   40.2 Au    1  2px          1.296600     1.000000
   41.2 Au    1  2py          1.296600     1.000000
   42.2 Au    1  2pz          1.296600     1.000000
   43.2 Au    1  2px          0.022900     1.000000
   44.2 Au    1  2py          0.022900     1.000000
   45.2 Au    1  2pz          0.022900     1.000000
   46.2 Au    1  2px          0.007633     1.000000
   47.2 Au    1  2py          0.007633     1.000000
   48.2 Au    1  2pz          0.007633     1.000000
   49.2 Au    1  4f1+         0.538900     1.000000
   50.2 Au    1  4f1-         0.538900     1.000000
   51.2 Au    1  4f0          0.538900     1.000000
   52.2 Au    1  4f3+         0.538900     1.000000
   53.2 Au    1  4f2-         0.538900     1.000000
   54.2 Au    1  4f3-         0.538900     1.000000
   55.2 Au    1  4f2+         0.538900     1.000000
   56.2 Au    1  4f1+         0.228700     1.000000
   57.2 Au    1  4f1-         0.228700     1.000000
   58.2 Au    1  4f0          0.228700     1.000000
   59.2 Au    1  4f3+         0.228700     1.000000
   60.2 Au    1  4f2-         0.228700     1.000000
   61.2 Au    1  4f3-         0.228700     1.000000
   62.2 Au    1  4f2+         0.228700     1.000000
   63.2 Au    1  4f1+         3.459700     1.000000
   64.2 Au    1  4f1-         3.459700     1.000000
   65.2 Au    1  4f0          3.459700     1.000000
   66.2 Au    1  4f3+         3.459700     1.000000
   67.2 Au    1  4f2-         3.459700     1.000000
   68.2 Au    1  4f3-         3.459700     1.000000
   69.2 Au    1  4f2+         3.459700     1.000000
   70.2 Au    1  4f1+         2.031900     1.000000
   71.2 Au    1  4f1-         2.031900     1.000000
   72.2 Au    1  4f0          2.031900     1.000000
   73.2 Au    1  4f3+         2.031900     1.000000
   74.2 Au    1  4f2-         2.031900     1.000000
   75.2 Au    1  4f3-         2.031900     1.000000
   76.2 Au    1  4f2+         2.031900     1.000000
   77.2 Au    1  4f1+         1.193400     1.000000
   78.2 Au    1  4f1-         1.193400     1.000000
   79.2 Au    1  4f0          1.193400     1.000000
   80.2 Au    1  4f3+         1.193400     1.000000
   81.2 Au    1  4f2-         1.193400     1.000000
   82.2 Au    1  4f3-         1.193400     1.000000
   83.2 Au    1  4f2+         1.193400     1.000000
   84.2 Au    1  4f1+         0.121000     1.000000
   85.2 Au    1  4f1-         0.121000     1.000000
   86.2 Au    1  4f0          0.121000     1.000000
   87.2 Au    1  4f3+         0.121000     1.000000
   88.2 Au    1  4f2-         0.121000     1.000000
   89.2 Au    1  4f3-         0.121000     1.000000
   90.2 Au    1  4f2+         0.121000     1.000000
   91.2 Au    1  4f1+         0.040333     1.000000
   92.2 Au    1  4f1-         0.040333     1.000000
   93.2 Au    1  4f0          0.040333     1.000000
   94.2 Au    1  4f3+         0.040333     1.000000
   95.2 Au    1  4f2-         0.040333     1.000000
   96.2 Au    1  4f3-         0.040333     1.000000
   97.2 Au    1  4f2+         0.040333     1.000000
   98.2 Au    1  6h1+         1.310200     1.000000
   99.2 Au    1  6h1-         1.310200     1.000000
  100.2 Au    1  6h2+         1.310200     1.000000
  101.2 Au    1  6h3+         1.310200     1.000000
  102.2 Au    1  6h4-         1.310200     1.000000
  103.2 Au    1  6h3-         1.310200     1.000000
  104.2 Au    1  6h4+         1.310200     1.000000
  105.2 Au    1  6h5-         1.310200     1.000000
  106.2 Au    1  6h0          1.310200     1.000000
  107.2 Au    1  6h5+         1.310200     1.000000
  108.2 Au    1  6h2-         1.310200     1.000000

 NUCLEAR CHARGE:                   25
 NUMBER OF PRIMITIVE AOS:         314
 NUMBER OF SYMMETRY AOS:          243
 NUMBER OF CONTRACTIONS:          200   (   92Ag  +  108Au  )
 NUMBER OF INNER CORE ORBITALS:     0   (    0Ag  +    0Au  )
 NUMBER OF OUTER CORE ORBITALS:     9   (    6Ag  +    3Au  )
 NUMBER OF VALENCE ORBITALS:        4   (    1Ag  +    3Au  )


 LX: Ag           LY: Ag           LZ: Ag 


 NUCLEAR REPULSION ENERGY    0.00000000

 EXTRA SYMMETRY OF AOS IN SYMMETRY 1:   1 1 1 1 1 1 1 1 1 1   1 2 3 4 5 6 2 3 4 5   6 2 3 4 5 6 2 3 4 5   6 2 3 4 5 6 2 3 4 5
                                        6 2 3 4 5 6 2 3 4 5   6 2 3 4 5 6 7 8 910  1112131415 7 8 91011  12131415 7 8 9101112
                                       131415 7 8 910111213  1415
 EXTRA SYMMETRY OF AOS IN SYMMETRY 2:   1 2 3 1 2 3 1 2 3 1   2 3 1 2 3 1 2 3 1 2   3 1 2 3 1 2 3 1 2 3   1 2 3 1 2 3 1 2 3 1
                                        2 3 1 2 3 1 2 3 4 5   6 7 8 910 4 5 6 7 8   910 4 5 6 7 8 910 4   5 6 7 8 910 4 5 6 7
                                        8 910 4 5 6 7 8 910   4 5 6 7 8 910111213  1415161718192021


 Eigenvalues of metric

         1 0.235E-05 0.327E-03 0.327E-03 0.327E-03 0.327E-03 0.327E-03 0.431E-03 0.126E-02
         2 0.118E-07 0.118E-07 0.118E-07 0.466E-06 0.466E-06 0.466E-06 0.265E-04 0.265E-04


 Contracted 2-electron integrals neglected if value below      1.0D-16
 AO integral compression algorithm  1   Integral accuracy      1.0D-16

     323.224 MB (compressed) written to integral file ( 21.7%)

     Node minimum: 9.175 MB, node maximum: 28.836 MB


 NUMBER OF SORTED TWO-ELECTRON INTEGRALS:    6362974.     BUFFER LENGTH:  32768
 NUMBER OF SEGMENTS:   1  SEGMENT LENGTH:    6362974      RECORD LENGTH: 524288

 Memory used in sort:       6.92 MW

 SORT1 READ   186133289. AND WROTE     1185059. INTEGRALS IN      4 RECORDS. CPU TIME:     0.88 SEC, REAL TIME:     0.91 SEC
 SORT2 READ    19101264. AND WROTE   102019146. INTEGRALS IN   1072 RECORDS. CPU TIME:     0.22 SEC, REAL TIME:     0.25 SEC

 Node minimum:     6362340.  Node maximum:     6380426. integrals

 OPERATOR DM      FOR CENTER  0  COORDINATES:    0.000000    0.000000    0.000000


 **********************************************************************************************************************************
 DATASETS  * FILE   NREC   LENGTH (MB)   RECORD NAMES
              1      19       29.67       500      610      700      900      950      970     1000      129      960     1100   
                                          VAR    BASINP    GEOM    SYMINP    ZMAT    AOBASIS   BASIS     P2S    ABASIS      S 
                                         1400     1410     1420     1200     1210     1080     1700     1600     1650   
                                           T        V       ECP      H0       H01     AOSYM    OPER      SMH    MOLCAS    

 PROGRAMS   *        TOTAL       INT
 CPU TIMES  *         3.50      3.12
 REAL TIME  *         4.75 SEC
 DISK USED  *        30.04 MB (local),      993.50 MB (total)
 GA USED    *         0.00 MB       (max)       0.00 MB       (current)
 **********************************************************************************************************************************


 Program * Restricted Hartree-Fock


   Atom=AT basis=cc-pVTZ-PP        lmin=0  lmax=2

 Orbital guess generated from atomic densities.

 Initial occupancy:   7   6

 NELEC=   26   SYM=1   MS2= 0   THRE=1.0D-08   THRD=3.2D-06   THRG=3.2D-06  HFMA2=F  DIIS_START=2   DIIS_MAX=10   DIIS_INCORE=F

 Level shifts:    0.00 (CLOSED)    0.00 (OPEN)    0.30 (GAP_MIN)

 ITER           ETOT              DE          GRAD        DDIFF     DIIS  NEXP   TIME(IT)  TIME(TOT)  DIAG
   1     -261.41333730    -261.41333730     0.00D+00     0.67D-01     0     0       0.02      0.07    start
   2     -261.43616303      -0.02282573     0.32D-02     0.77D-02     1     0       0.04      0.11    diag
   3     -261.43852345      -0.00236042     0.19D-02     0.20D-02     2     0       0.03      0.14    diag
   4     -261.43902922      -0.00050577     0.35D-03     0.26D-02     3     0       0.04      0.18    diag
   5     -261.43912601      -0.00009679     0.12D-03     0.18D-02     4     0       0.03      0.21    diag
   6     -261.43913550      -0.00000949     0.31D-04     0.13D-03     5     0       0.04      0.25    diag
   7     -261.43913597      -0.00000047     0.62D-05     0.38D-03     6     0       0.03      0.28    diag
   8     -261.43913599      -0.00000003     0.13D-05     0.78D-04     7     0       0.04      0.32    fixocc
   9     -261.43913600      -0.00000000     0.29D-06     0.27D-04     8     0       0.03      0.35    diag
  10     -261.43913600      -0.00000000     0.57D-07     0.46D-05     9     0       0.03      0.38    diag/orth
  11     -261.43913600      -0.00000000     0.16D-07     0.26D-06     9     0       0.04      0.42    diag
  12     -261.43913600      -0.00000000     0.44D-09     0.78D-07     0     0       0.03      0.45    diag

 Final occupancy:   7   6

 !RHF STATE 1.1 Energy               -261.439135995662
  RHF One-electron energy            -461.393607665002
  RHF Two-electron energy             199.954471669340
  RHF Kinetic energy                   82.729304896983
  RHF Nuclear energy                    0.000000000000
  RHF Virial quotient                  -3.160175663524

 !RHF STATE 1.1 Dipole moment           0.00000000     0.00000000     0.00000000
 Dipole moment /Debye                   0.00000000     0.00000000     0.00000000

 ELECTRON ORBITALS
 =================

  Orbital  Occupation    Energy    Cen Mu Typ  Coefficients
    1.1     2.00000    -7.53203     1  1  s    1.00164
    2.1     2.00000    -1.54348     1  1  d0   0.93324    1  1  d2+  0.35719
    3.1     2.00000    -1.54348     1  1  d1-  0.99926
    4.1     2.00000    -1.54348     1  1  d1+  0.99926
    5.1     2.00000    -1.54348     1  1  d2-  0.99926
    6.1     2.00000    -1.54348     1  1  d0  -0.35719    1  1  d2+  0.93324
    7.1     2.00000    -0.67783     1  2  s    0.97678
    1.2     2.00000    -4.82202     1  4  px  -0.40180    1  6  px   0.30303    1  7  px   0.80016    1 13  px   0.27893
                                    1 14  px  -0.35312
    2.2     2.00000    -4.82202     1  4  pz  -0.40180    1  6  pz   0.30303    1  7  pz   0.80016    1 13  pz   0.27893
                                    1 14  pz  -0.35312
    3.2     2.00000    -4.82202     1  4  py  -0.40180    1  6  py   0.30303    1  7  py   0.80016    1 13  py   0.27893
                                    1 14  py  -0.35312
    4.2     2.00000    -0.11634     1  6  px  -0.30604    1  7  px  -0.32259    1  9  px   0.42282    1 10  px   0.43314
    5.2     2.00000    -0.11634     1  6  pz  -0.30604    1  7  pz  -0.32259    1  9  pz   0.42282    1 10  pz   0.43314
    6.2     2.00000    -0.11634     1  6  py  -0.30604    1  7  py  -0.32259    1  9  py   0.42282    1 10  py   0.43314


 HOMO      6.2    -0.116339 =      -3.1658eV
 LUMO      7.2     0.090439 =       2.4610eV
 LUMO-HOMO         0.206778 =       5.6267eV

 Orbitals saved in record  2100.2


 **********************************************************************************************************************************
 DATASETS  * FILE   NREC   LENGTH (MB)   RECORD NAMES
              1      19       29.67       500      610      700      900      950      970     1000      129      960     1100   
                                          VAR    BASINP    GEOM    SYMINP    ZMAT    AOBASIS   BASIS     P2S    ABASIS      S 
                                         1400     1410     1420     1200     1210     1080     1700     1600     1650   
                                           T        V       ECP      H0       H01     AOSYM    OPER      SMH    MOLCAS    

              2       4        0.71       700     1000      520     2100   
                                         GEOM     BASIS   MCVARS     RHF  

 PROGRAMS   *        TOTAL   RHF-SCF       INT
 CPU TIMES  *         3.97      0.48      3.12
 REAL TIME  *         6.36 SEC
 DISK USED  *        31.88 MB (local),     1022.92 MB (total)
 GA USED    *         0.00 MB       (max)       0.00 MB       (current)
 **********************************************************************************************************************************
 SETTING NDOUB          =        12.00000000                                  
 SETTING NQUAR          =         9.00000000                                  

 PROGRAM * MULTI (Direct Multiconfiguration SCF)       Authors: P.J. Knowles, H.-J. Werner (1984)
                                                                D.A. Kreplin, P.J. Knowles, H.-J. Werner (2019)

 Number of closed-shell orbitals:  10 (    7    3)
 Number of active  orbitals:        6 (    0    6)
 Number of external orbitals:     184 (   85   99)

 State symmetry 1

 Number of active electrons:   5    Spin symmetry=Doublet   Space symmetry=2
 Number of states:            12
 Number of CSFs:             210   (300 determinants, 300 intermediate states)

 State symmetry 2

 Number of active electrons:   5    Spin symmetry=Quartet   Space symmetry=2
 Number of states:             9
 Number of CSFs:              84   (90 determinants, 90 intermediate states)

 Molecular orbitals read from record     2100.2  Type=RHF/CANONICAL  
 *** IN SYMMETRY 1 ORBITAL  2 SYMMETRY CONTAMINATION OF 0.278D+00 HAS BEEN REMOVED
 *** IN SYMMETRY 1 ORBITAL  3 SYMMETRY CONTAMINATION OF 0.507D-02 HAS BEEN REMOVED
 *** IN SYMMETRY 1 ORBITAL  4 SYMMETRY CONTAMINATION OF 0.250D-02 HAS BEEN REMOVED
 *** IN SYMMETRY 1 ORBITAL  5 SYMMETRY CONTAMINATION OF 0.311D-02 HAS BEEN REMOVED
 *** IN SYMMETRY 1 ORBITAL  6 SYMMETRY CONTAMINATION OF 0.277D+00 HAS BEEN REMOVED

 EXTRA SYMMETRY OF MOS IN SYMMETRY 1:   1 2 6 4 3 5 1 1 5 3   4 6 2 1 2 6 3 4 5 1   3 5 6 4 21310151412  11 8 9 7 1 3 5 4 6 2
                                       121113141015 8 9 7 3   5 6 2 4 11112131410  15 8 9 7 3 5 6 4 2 1  11 7 9 81215141310 5
                                        2 6 4 3 1 5 2 6 4 3   1 1
 *** IN SYMMETRY 2 ORBITAL  2 SYMMETRY CONTAMINATION OF 0.106D-02 HAS BEEN REMOVED
 *** IN SYMMETRY 2 ORBITAL  3 SYMMETRY CONTAMINATION OF 0.106D-02 HAS BEEN REMOVED
 *** IN SYMMETRY 2 ORBITAL  4 SYMMETRY CONTAMINATION OF 0.201D-03 HAS BEEN REMOVED
 *** IN SYMMETRY 2 ORBITAL  5 SYMMETRY CONTAMINATION OF 0.104D-03 HAS BEEN REMOVED
 *** IN SYMMETRY 2 ORBITAL  6 SYMMETRY CONTAMINATION OF 0.123D-03 HAS BEEN REMOVED
 *** IN SYMMETRY 2 ORBITAL  8 SYMMETRY CONTAMINATION OF 0.434D-01 HAS BEEN REMOVED
 *** IN SYMMETRY 2 ORBITAL  9 SYMMETRY CONTAMINATION OF 0.434D-01 HAS BEEN REMOVED
 EXTRA SYMMETRY OF MOS IN SYMMETRY 2:   1 3 2 1 3 2 1 2 3 1   2 3 7 910 8 4 5 6 1   3 2 9 710 8 5 4 6 1   2 3 9 710 8 5 6 4 5
                                       10 7 8 9 6 4 1 2 3 5   6 7 8 910 4 1 2 318  20131512141721161911   510 7 9 8 4 6 1 2 3
                                        1 2 3 5 6 410 8 7 9   2 1 3 2 3 1 2 3 1 2   3 1 2 3 1 2 3 1

 Wavefunction dump at record             2140.2

 Convergence thresholds  0.10E-04 (gradient)  0.10E-05 (energy)

 Weight factors for state symmetry  1:    0.04762   0.04762   0.04762   0.04762   0.04762   0.04762   0.04762   0.04762
                                          0.04762   0.04762   0.04762   0.04762
 Weight factors for state symmetry  2:    0.04762   0.04762   0.04762   0.04762   0.04762   0.04762   0.04762   0.04762
                                          0.04762
 
 Number of orbital rotations:  1504  ( 18 closed/active, 892 closed/virtual, 0 active/active, 594 active/virtual )
 Total number of variables:    5914
 
 Second-order MCSCF: L-BFGS accelerated
 
 ITER  MIC  NCI  NEG     ENERGY(VAR)    ENERGY(PROJ) ENERGY CHANGE       GRAD(0)  GRAD(ORB)   GRAD(CI)      STEP      TIME
   1    7   12    0   -261.02071221    -261.13622366   -0.11551145    0.37967909 0.00088372 0.00000000  0.13E+01      1.55
   2    6   10    0   -261.13324790    -261.13380893   -0.00056102    0.02343738 0.00000246 0.00000000  0.10E+00      2.99
   3    4    8    0   -261.13380955    -261.13380956   -0.00000001    0.00010176 0.00000019 0.00000000  0.34E-03      4.13
   4   11   22    0   -261.13380956    -261.13380956    0.00000000    0.00000003 0.00000001 0.00000000  0.83E-07      5.78

 CONVERGENCE REACHED!  Final gradient:    0.00000013 ( 0.13E-06)
                       Final energy:   -261.13380956
 
 Results for state 1.2 Doublet
 =============================
 !MCSCF STATE 1.2 Doublet Energy              -261.341581865516
 Nuclear energy                                  0.00000000
 Kinetic energy                                 83.22405211
 One electron energy                          -455.89105677
 Two electron energy                           194.54947491
 Virial ratio                                    4.14021698
 
 !MCSCF STATE 1.2 Doublet Dipole moment          0.00000000     0.00000000     0.00000000
 Dipole moment /Debye                            0.00000000     0.00000000     0.00000000
 
 Results for state 2.2 Doublet
 =============================
 !MCSCF STATE 2.2 Doublet Energy              -261.341581865201
 Nuclear energy                                  0.00000000
 Kinetic energy                                 83.22405211
 One electron energy                          -455.89105679
 Two electron energy                           194.54947493
 Virial ratio                                    4.14021698
 
 !MCSCF STATE 2.2 Doublet Dipole moment          0.00000000     0.00000000     0.00000000
 Dipole moment /Debye                            0.00000000     0.00000000     0.00000000
 
 Results for state 3.2 Doublet
 =============================
 !MCSCF STATE 3.2 Doublet Energy              -261.341581865096
 Nuclear energy                                  0.00000000
 Kinetic energy                                 83.22405211
 One electron energy                          -455.89105679
 Two electron energy                           194.54947492
 Virial ratio                                    4.14021698
 
 !MCSCF STATE 3.2 Doublet Dipole moment          0.00000000     0.00000000     0.00000000
 Dipole moment /Debye                            0.00000000     0.00000000     0.00000000
 
 Results for state 4.2 Doublet
 =============================
 !MCSCF STATE 4.2 Doublet Energy              -261.099014050558
 Nuclear energy                                  0.00000000
 Kinetic energy                                 82.39537650
 One electron energy                          -449.25528671
 Two electron energy                           188.15627266
 Virial ratio                                    4.16885516
 
 !MCSCF STATE 4.2 Doublet Dipole moment          0.00000000     0.00000000     0.00000000
 Dipole moment /Debye                            0.00000000     0.00000000     0.00000000
 
 Results for state 5.2 Doublet
 =============================
 !MCSCF STATE 5.2 Doublet Energy              -261.099014050558
 Nuclear energy                                  0.00000000
 Kinetic energy                                 82.39537650
 One electron energy                          -449.25528671
 Two electron energy                           188.15627265
 Virial ratio                                    4.16885516
 
 !MCSCF STATE 5.2 Doublet Dipole moment          0.00000000     0.00000000     0.00000000
 Dipole moment /Debye                            0.00000000     0.00000000     0.00000000
 
 Results for state 6.2 Doublet
 =============================
 !MCSCF STATE 6.2 Doublet Energy              -261.099014050506
 Nuclear energy                                  0.00000000
 Kinetic energy                                 82.39537650
 One electron energy                          -449.25528674
 Two electron energy                           188.15627269
 Virial ratio                                    4.16885516
 
 !MCSCF STATE 6.2 Doublet Dipole moment          0.00000000     0.00000000     0.00000000
 Dipole moment /Debye                            0.00000000     0.00000000     0.00000000
 
 Results for state 7.2 Doublet
 =============================
 !MCSCF STATE 7.2 Doublet Energy              -261.099014050503
 Nuclear energy                                  0.00000000
 Kinetic energy                                 82.39537650
 One electron energy                          -449.25528672
 Two electron energy                           188.15627267
 Virial ratio                                    4.16885516
 
 !MCSCF STATE 7.2 Doublet Dipole moment          0.00000000     0.00000000     0.00000000
 Dipole moment /Debye                            0.00000000     0.00000000     0.00000000
 
 Results for state 8.2 Doublet
 =============================
 !MCSCF STATE 8.2 Doublet Energy              -261.099014050487
 Nuclear energy                                  0.00000000
 Kinetic energy                                 82.39537650
 One electron energy                          -449.25528673
 Two electron energy                           188.15627268
 Virial ratio                                    4.16885516
 
 !MCSCF STATE 8.2 Doublet Dipole moment          0.00000000     0.00000000     0.00000000
 Dipole moment /Debye                            0.00000000     0.00000000     0.00000000
 
 Results for state 9.2 Doublet
 =============================
 !MCSCF STATE 9.2 Doublet Energy              -261.093818873291
 Nuclear energy                                  0.00000000
 Kinetic energy                                 82.39268665
 One electron energy                          -449.24645475
 Two electron energy                           188.15263587
 Virial ratio                                    4.16889556
 
 !MCSCF STATE 9.2 Doublet Dipole moment          0.00000000     0.00000000     0.00000000
 Dipole moment /Debye                            0.00000000     0.00000000     0.00000000
 
 Results for state 10.2 Doublet
 ==============================
 !MCSCF STATE 10.2 Doublet Energy             -261.093734722481
 Nuclear energy                                  0.00000000
 Kinetic energy                                 82.46750702
 One electron energy                          -449.56150162
 Two electron energy                           188.46776690
 Virial ratio                                    4.16601949
 
 !MCSCF STATE 10.2 Doublet Dipole moment         0.00000000     0.00000000     0.00000000
 Dipole moment /Debye                            0.00000000     0.00000000     0.00000000
 
 Results for state 11.2 Doublet
 ==============================
 !MCSCF STATE 11.2 Doublet Energy             -261.093734722318
 Nuclear energy                                  0.00000000
 Kinetic energy                                 82.46750702
 One electron energy                          -449.56150164
 Two electron energy                           188.46776691
 Virial ratio                                    4.16601949
 
 !MCSCF STATE 11.2 Doublet Dipole moment         0.00000000     0.00000000     0.00000000
 Dipole moment /Debye                            0.00000000     0.00000000     0.00000000
 
 Results for state 12.2 Doublet
 ==============================
 !MCSCF STATE 12.2 Doublet Energy             -261.093734722064
 Nuclear energy                                  0.00000000
 Kinetic energy                                 82.46750703
 One electron energy                          -449.56150166
 Two electron energy                           188.46776694
 Virial ratio                                    4.16601949
 
 !MCSCF STATE 12.2 Doublet Dipole moment         0.00000000     0.00000000     0.00000000
 Dipole moment /Debye                            0.00000000     0.00000000     0.00000000
 
 Results for state 1.2 Quartet
 =============================
 !MCSCF STATE 1.2 Quartet Energy              -261.105630527412
 Nuclear energy                                  0.00000000
 Kinetic energy                                 82.38029346
 One electron energy                          -449.20293542
 Two electron energy                           188.09730489
 Virial ratio                                    4.16951566
 
 !MCSCF STATE 1.2 Quartet Dipole moment          0.00000000     0.00000000     0.00000000
 Dipole moment /Debye                            0.00000000     0.00000000     0.00000000
 
 Results for state 2.2 Quartet
 =============================
 !MCSCF STATE 2.2 Quartet Energy              -261.105630527224
 Nuclear energy                                  0.00000000
 Kinetic energy                                 82.38029345
 One electron energy                          -449.20293540
 Two electron energy                           188.09730488
 Virial ratio                                    4.16951566
 
 !MCSCF STATE 2.2 Quartet Dipole moment          0.00000000     0.00000000     0.00000000
 Dipole moment /Debye                            0.00000000     0.00000000     0.00000000
 
 Results for state 3.2 Quartet
 =============================
 !MCSCF STATE 3.2 Quartet Energy              -261.105630527214
 Nuclear energy                                  0.00000000
 Kinetic energy                                 82.38029345
 One electron energy                          -449.20293539
 Two electron energy                           188.09730487
 Virial ratio                                    4.16951566
 
 !MCSCF STATE 3.2 Quartet Dipole moment          0.00000000     0.00000000     0.00000000
 Dipole moment /Debye                            0.00000000     0.00000000     0.00000000
 
 Results for state 4.2 Quartet
 =============================
 !MCSCF STATE 4.2 Quartet Energy              -261.100876788026
 Nuclear energy                                  0.00000000
 Kinetic energy                                 82.38556016
 One electron energy                          -449.22168725
 Two electron energy                           188.12081046
 Virial ratio                                    4.16925534
 
 !MCSCF STATE 4.2 Quartet Dipole moment          0.00000000     0.00000000     0.00000000
 Dipole moment /Debye                            0.00000000     0.00000000     0.00000000
 
 Results for state 5.2 Quartet
 =============================
 !MCSCF STATE 5.2 Quartet Energy              -261.100876788023
 Nuclear energy                                  0.00000000
 Kinetic energy                                 82.38556016
 One electron energy                          -449.22168725
 Two electron energy                           188.12081047
 Virial ratio                                    4.16925534
 
 !MCSCF STATE 5.2 Quartet Dipole moment          0.00000000     0.00000000     0.00000000
 Dipole moment /Debye                            0.00000000     0.00000000     0.00000000
 
 Results for state 6.2 Quartet
 =============================
 !MCSCF STATE 6.2 Quartet Energy              -261.100876787968
 Nuclear energy                                  0.00000000
 Kinetic energy                                 82.38556016
 One electron energy                          -449.22168723
 Two electron energy                           188.12081044
 Virial ratio                                    4.16925534
 
 !MCSCF STATE 6.2 Quartet Dipole moment          0.00000000     0.00000000     0.00000000
 Dipole moment /Debye                            0.00000000     0.00000000     0.00000000
 
 Results for state 7.2 Quartet
 =============================
 !MCSCF STATE 7.2 Quartet Energy              -261.100876787940
 Nuclear energy                                  0.00000000
 Kinetic energy                                 82.38556016
 One electron energy                          -449.22168724
 Two electron energy                           188.12081045
 Virial ratio                                    4.16925534
 
 !MCSCF STATE 7.2 Quartet Dipole moment          0.00000000     0.00000000     0.00000000
 Dipole moment /Debye                            0.00000000     0.00000000     0.00000000
 
 Results for state 8.2 Quartet
 =============================
 !MCSCF STATE 8.2 Quartet Energy              -261.100876787928
 Nuclear energy                                  0.00000000
 Kinetic energy                                 82.38556016
 One electron energy                          -449.22168723
 Two electron energy                           188.12081044
 Virial ratio                                    4.16925534
 
 !MCSCF STATE 8.2 Quartet Dipole moment          0.00000000     0.00000000     0.00000000
 Dipole moment /Debye                            0.00000000     0.00000000     0.00000000
 
 Results for state 9.2 Quartet
 =============================
 !MCSCF STATE 9.2 Quartet Energy              -261.093886278525
 Nuclear energy                                  0.00000000
 Kinetic energy                                 82.39183287
 One electron energy                          -449.24298636
 Two electron energy                           188.14910008
 Virial ratio                                    4.16892922
 
 !MCSCF STATE 9.2 Quartet Dipole moment          0.00000000     0.00000000     0.00000000
 Dipole moment /Debye                            0.00000000     0.00000000     0.00000000
 
 State-averaged charge density matrix saved on record 2140.2 (density set 1)
 
 No non-zero expectation values
 
 Expectation values for two-electron operators:
 
 ? Warning
 ? Transition properties are only calculated between states of the same symmetry
 ? The problem occurs in mu_properties_expec2

 !MCSCF expec      <1.2 Doublet|LXLX|1.2 Doublet>     0.000000000245
 !MCSCF expec      <2.2 Doublet|LXLX|2.2 Doublet>     0.999999999903
 !MCSCF expec      <3.2 Doublet|LXLX|3.2 Doublet>     1.000000000000
 !MCSCF expec      <4.2 Doublet|LXLX|4.2 Doublet>     1.086532530444
 !MCSCF expec      <5.2 Doublet|LXLX|5.2 Doublet>     1.000941708369
 !MCSCF expec      <6.2 Doublet|LXLX|6.2 Doublet>     3.999999953255
 !MCSCF expec      <7.2 Doublet|LXLX|7.2 Doublet>     0.999999999995
 !MCSCF expec      <8.2 Doublet|LXLX|8.2 Doublet>     2.912376133382
 !MCSCF expec      <9.2 Doublet|LXLX|9.2 Doublet>     0.000000000007
 !MCSCF expec    <10.2 Doublet|LXLX|10.2 Doublet>     0.999999999997
 !MCSCF expec    <11.2 Doublet|LXLX|11.2 Doublet>     0.999999999994
 !MCSCF expec    <12.2 Doublet|LXLX|12.2 Doublet>     0.000000000017
 !MCSCF expec      <1.2 Quartet|LXLX|1.2 Quartet>     0.000000000010
 !MCSCF expec      <2.2 Quartet|LXLX|2.2 Quartet>     0.999999999995
 !MCSCF expec      <3.2 Quartet|LXLX|3.2 Quartet>     0.999999999995
 !MCSCF expec      <4.2 Quartet|LXLX|4.2 Quartet>     3.887501730847
 !MCSCF expec      <5.2 Quartet|LXLX|5.2 Quartet>     3.999999974067
 !MCSCF expec      <6.2 Quartet|LXLX|6.2 Quartet>     1.000000001798
 !MCSCF expec      <7.2 Quartet|LXLX|7.2 Quartet>     0.999999986327
 !MCSCF expec      <8.2 Quartet|LXLX|8.2 Quartet>     0.112568867137
 !MCSCF expec      <9.2 Quartet|LXLX|9.2 Quartet>     0.000000000007
 
 !MCSCF expec      <1.2 Doublet|LYLY|1.2 Doublet>     1.000000000000
 !MCSCF expec      <2.2 Doublet|LYLY|2.2 Doublet>     1.000000000000
 !MCSCF expec      <3.2 Doublet|LYLY|3.2 Doublet>     0.000000000002
 !MCSCF expec      <4.2 Doublet|LYLY|4.2 Doublet>     0.915923465170
 !MCSCF expec      <5.2 Doublet|LYLY|5.2 Doublet>     0.999083218482
 !MCSCF expec      <6.2 Doublet|LYLY|6.2 Doublet>     1.000000042428
 !MCSCF expec      <7.2 Doublet|LYLY|7.2 Doublet>     3.999999999970
 !MCSCF expec      <8.2 Doublet|LYLY|8.2 Doublet>     3.085135088938
 !MCSCF expec      <9.2 Doublet|LYLY|9.2 Doublet>     0.000000000007
 !MCSCF expec    <10.2 Doublet|LYLY|10.2 Doublet>     0.999999999994
 !MCSCF expec    <11.2 Doublet|LYLY|11.2 Doublet>     0.000000000011
 !MCSCF expec    <12.2 Doublet|LYLY|12.2 Doublet>     0.999999999995
 !MCSCF expec      <1.2 Quartet|LYLY|1.2 Quartet>     0.999999999995
 !MCSCF expec      <2.2 Quartet|LYLY|2.2 Quartet>     0.000000106098
 !MCSCF expec      <3.2 Quartet|LYLY|3.2 Quartet>     0.999999942088
 !MCSCF expec      <4.2 Quartet|LYLY|4.2 Quartet>     0.483533895708
 !MCSCF expec      <5.2 Quartet|LYLY|5.2 Quartet>     0.999999933047
 !MCSCF expec      <6.2 Quartet|LYLY|6.2 Quartet>     1.000000004716
 !MCSCF expec      <7.2 Quartet|LYLY|7.2 Quartet>     3.999999947359
 !MCSCF expec      <8.2 Quartet|LYLY|8.2 Quartet>     3.516605345278
 !MCSCF expec      <9.2 Quartet|LYLY|9.2 Quartet>     0.000000000007
 
 !MCSCF expec      <1.2 Doublet|LZLZ|1.2 Doublet>     0.999999999757
 !MCSCF expec      <2.2 Doublet|LZLZ|2.2 Doublet>     0.000000000099
 !MCSCF expec      <3.2 Doublet|LZLZ|3.2 Doublet>     1.000000000000
 !MCSCF expec      <4.2 Doublet|LZLZ|4.2 Doublet>     3.997544004345
 !MCSCF expec      <5.2 Doublet|LZLZ|5.2 Doublet>     3.999975073108
 !MCSCF expec      <6.2 Doublet|LZLZ|6.2 Doublet>     1.000000004277
 !MCSCF expec      <7.2 Doublet|LZLZ|7.2 Doublet>     0.999999999995
 !MCSCF expec      <8.2 Doublet|LZLZ|8.2 Doublet>     0.002488777639
 !MCSCF expec      <9.2 Doublet|LZLZ|9.2 Doublet>     0.000000000007
 !MCSCF expec    <10.2 Doublet|LZLZ|10.2 Doublet>     0.000000000011
 !MCSCF expec    <11.2 Doublet|LZLZ|11.2 Doublet>     0.999999999997
 !MCSCF expec    <12.2 Doublet|LZLZ|12.2 Doublet>     0.999999999991
 !MCSCF expec      <1.2 Quartet|LZLZ|1.2 Quartet>     0.999999999995
 !MCSCF expec      <2.2 Quartet|LZLZ|2.2 Quartet>     0.999999893907
 !MCSCF expec      <3.2 Quartet|LZLZ|3.2 Quartet>     0.000000057917
 !MCSCF expec      <4.2 Quartet|LZLZ|4.2 Quartet>     1.628964373404
 !MCSCF expec      <5.2 Quartet|LZLZ|5.2 Quartet>     1.000000092845
 !MCSCF expec      <6.2 Quartet|LZLZ|6.2 Quartet>     3.999999993445
 !MCSCF expec      <7.2 Quartet|LZLZ|7.2 Quartet>     1.000000066273
 !MCSCF expec      <8.2 Quartet|LZLZ|8.2 Quartet>     2.370825787544
 !MCSCF expec      <9.2 Quartet|LZLZ|9.2 Quartet>     0.000000000007
 
 !MCSCF expec      <1.2 Doublet|L**2|1.2 Doublet>     2.000000000002
 !MCSCF expec      <2.2 Doublet|L**2|2.2 Doublet>     2.000000000002
 !MCSCF expec      <3.2 Doublet|L**2|3.2 Doublet>     2.000000000002
 !MCSCF expec      <4.2 Doublet|L**2|4.2 Doublet>     5.999999999959
 !MCSCF expec      <5.2 Doublet|L**2|5.2 Doublet>     5.999999999959
 !MCSCF expec      <6.2 Doublet|L**2|6.2 Doublet>     5.999999999959
 !MCSCF expec      <7.2 Doublet|L**2|7.2 Doublet>     5.999999999959
 !MCSCF expec      <8.2 Doublet|L**2|8.2 Doublet>     5.999999999959
 !MCSCF expec      <9.2 Doublet|L**2|9.2 Doublet>     0.000000000020
 !MCSCF expec    <10.2 Doublet|L**2|10.2 Doublet>     2.000000000002
 !MCSCF expec    <11.2 Doublet|L**2|11.2 Doublet>     2.000000000002
 !MCSCF expec    <12.2 Doublet|L**2|12.2 Doublet>     2.000000000002
 !MCSCF expec      <1.2 Quartet|L**2|1.2 Quartet>     2.000000000000
 !MCSCF expec      <2.2 Quartet|L**2|2.2 Quartet>     2.000000000000
 !MCSCF expec      <3.2 Quartet|L**2|3.2 Quartet>     2.000000000000
 !MCSCF expec      <4.2 Quartet|L**2|4.2 Quartet>     5.999999999959
 !MCSCF expec      <5.2 Quartet|L**2|5.2 Quartet>     5.999999999959
 !MCSCF expec      <6.2 Quartet|L**2|6.2 Quartet>     5.999999999959
 !MCSCF expec      <7.2 Quartet|L**2|7.2 Quartet>     5.999999999959
 !MCSCF expec      <8.2 Quartet|L**2|8.2 Quartet>     5.999999999959
 !MCSCF expec      <9.2 Quartet|L**2|9.2 Quartet>     0.000000000020
 
 EXTRA SYMMETRY OF MOS IN SYMMETRY 1:   1 3 5 6 2 4 1 1 3 5   6 2 4 1 3 5 6 2 4 1   3 5 6 2 4 113101415  11 812 7 9 5 3 6 2 4
                                       1310141511 812 7 9 5   3 6 2 4 11310141511   812 7 9 3 5 6 2 4 1  1310141511 812 7 9 5
                                        3 6 2 4 1 5 3 6 2 4   1 1
 EXTRA SYMMETRY OF MOS IN SYMMETRY 2:   2 1 3 3 1 2 3 1 2 2   1 3 9 7 5 810 6 4 2   1 3 9 7 5 810 6 4 2   1 3 9 7 5 810 6 4 9
                                        7 5 810 6 4 2 1 3 9   7 510 8 6 4 2 1 318  20151712141621131911   7 9 510 8 6 4 2 1 3
                                        2 1 3 7 9 510 8 6 4   2 1 3 2 1 3 2 1 3 1   2 3 1 2 3 1 3 2
 
  NATURAL ORBITALS (STATE AVERAGED)
  =================================

  Orbital  Occupation    Energy    Cen Mu Typ  Coefficients
    1.1     2.00000    -7.98700     1  1  s    1.00000
    2.1     2.00000    -1.99741     1  1  d2-  1.00141
    3.1     2.00000    -1.99741     1  1  d2+  1.00141
    4.1     2.00000    -1.99741     1  1  d1-  1.00141
    5.1     2.00000    -1.99741     1  1  d0   1.00141
    6.1     2.00000    -1.99741     1  1  d1+  1.00141
    7.1     2.00000    -1.08401     1  2  s    1.02158
    1.2     2.00000    -5.27667     1  4  py  -0.40144    1  6  py   0.29911    1  7  py   0.81223    1 13  py   0.28236
                                    1 14  py  -0.36616
    2.2     2.00000    -5.27667     1  4  px  -0.40144    1  6  px   0.29911    1  7  px   0.81223    1 13  px   0.28236
                                    1 14  px  -0.36616
    3.2     2.00000    -5.27667     1  4  pz  -0.40144    1  6  pz   0.29911    1  7  pz   0.81223    1 13  pz   0.28236
                                    1 14  pz  -0.36616
    4.2     1.38040    -0.41946     1  6  pz  -0.66960    1  7  pz   0.32723    1  9  pz   0.55099    1 10  pz   0.47028
                                    1 13  pz   0.40386    1 14  pz  -0.69493
    5.2     1.38039    -0.41946     1  6  px  -0.66960    1  7  px   0.32723    1  9  px   0.55099    1 10  px   0.47028
                                    1 13  px   0.40386    1 14  px  -0.69493
    6.2     1.38039    -0.41946     1  6  py  -0.66960    1  7  py   0.32723    1  9  py   0.55099    1 10  py   0.47028
                                    1 13  py   0.40386    1 14  py  -0.69493
    7.2     0.28627     0.00782     1  6  pz   0.64609    1  7  pz  -1.17857    1 13  pz  -0.65283    1 14  pz   1.37624
                                    1 15  pz   0.71907    1 16  pz   0.46257
    8.2     0.28627     0.00782     1  6  px   0.64609    1  7  px  -1.17857    1 13  px  -0.65283    1 14  px   1.37624
                                    1 15  px   0.71907    1 16  px   0.46257
    9.2     0.28627     0.00782     1  6  py   0.64609    1  7  py  -1.17857    1 13  py  -0.65283    1 14  py   1.37624
                                    1 15  py   0.71907    1 16  py   0.46257
 
 Natural orbital dump (state averaged) at molpro section 2140.2 (Orbital set 2)
 
 Transform the CI vectors
 
 CI Coefficients of symmetry 2 (Doublet)
 =======================================

 State:              1               2               3               4               5               6               7
 22a000         0.00000007     -0.00000031      0.98902060      0.00000000     -0.00000000      0.00000000      0.00000004
 2a2000         0.98902059     -0.00001543     -0.00000007      0.00000000     -0.00000000     -0.00000004      0.00000000
 a22000         0.00001543      0.98902059      0.00000031     -0.00000000     -0.00000000      0.00000000      0.00000000
 2aab00        -0.00000000     -0.00000000     -0.00000000     -0.01651275      0.00167802     -0.00003882      0.00000005
 aa200b        -0.00000000      0.00000000      0.00000000      0.58179718     -0.06338734      0.00003903     -0.00000160
 2aa0b0        -0.00000001      0.00000002     -0.07616543      0.00000154     -0.00000039      0.00006827      0.57712043
 2aa00b         0.07616544     -0.00000119     -0.00000001     -0.00001646      0.00003772      0.57712040     -0.00006827
 aa2b00        -0.07616540      0.00000119      0.00000001     -0.00001646      0.00003772      0.57712039     -0.00006827
 a2ab00        -0.00000001      0.00000002     -0.07616540     -0.00000154      0.00000039     -0.00006827     -0.57712037
 aa20b0         0.00000119      0.07616543      0.00000002     -0.06256512     -0.57371908      0.00003572     -0.00000023
 a2a00b         0.00000119      0.07616544      0.00000002      0.06256512      0.57371902     -0.00003572      0.00000023
 a2a0b0         0.00000000      0.00000000      0.00000000      0.56528444     -0.06170932      0.00000021     -0.00000155
 a2ba00         0.00000000     -0.00000000      0.01336531      0.00000078     -0.00000020      0.00003455      0.29210573
 b2a00a        -0.00000021     -0.01336531     -0.00000000     -0.03166693     -0.29038417      0.00001808     -0.00000011
 ab2a00         0.01336531     -0.00000021     -0.00000000      0.00000833     -0.00001909     -0.29210575      0.00003455
 2ba00a        -0.01336531      0.00000021      0.00000000      0.00000833     -0.00001909     -0.29210575      0.00003455
 ba20a0        -0.00000021     -0.01336531     -0.00000000      0.03166693      0.29038420     -0.00001808      0.00000011
 2ab0a0         0.00000000     -0.00000000      0.01336531     -0.00000078      0.00000020     -0.00003455     -0.29210577
 2aba00         0.00000000      0.00000000      0.00000000      0.00120925     -0.00007048      0.00001917     -0.00000001
 2baa00         0.00000000      0.00000000      0.00000000      0.01530350     -0.00160755      0.00001965     -0.00000004
 ba200a         0.00000000     -0.00000000     -0.00000000     -0.29426998      0.03206247     -0.00001928      0.00000081
 ab200a         0.00000000     -0.00000000      0.00000000     -0.28752720      0.03132487     -0.00001975      0.00000079
 b2a0a0        -0.00000000     -0.00000000     -0.00000000     -0.28631795      0.03125439     -0.00000058      0.00000078
 2ba0a0         0.00000000     -0.00000002      0.06280012     -0.00000076      0.00000019     -0.00003371     -0.28501466
 2ab00a        -0.06280013      0.00000098      0.00000000      0.00000813     -0.00001863     -0.28501465      0.00003371
 ba2a00         0.06280008     -0.00000098     -0.00000000      0.00000813     -0.00001863     -0.28501464      0.00003371
 b2aa00         0.00000000     -0.00000002      0.06280008      0.00000076     -0.00000019      0.00003371      0.28501463
 ab20a0        -0.00000098     -0.06280012     -0.00000002      0.03089819      0.28333488     -0.00001764      0.00000011
 a2b00a        -0.00000098     -0.06280013     -0.00000002     -0.03089819     -0.28333486      0.00001764     -0.00000011
 a2b0a0        -0.00000000     -0.00000000     -0.00000000     -0.27896649      0.03045493      0.00000037      0.00000076
 22000a         0.00000000     -0.00000001      0.04082872      0.00000000      0.00000000      0.00000000      0.00000000
 2020a0         0.04082871     -0.00000064     -0.00000000     -0.00000000      0.00000000      0.00000000     -0.00000000
 022a00         0.00000064      0.04082868      0.00000001      0.00000000      0.00000000     -0.00000000      0.00000000
 
 Energy:     -261.34158187   -261.34158187   -261.34158187   -261.09901405   -261.09901405   -261.09901405   -261.09901405

 State:              8               9              10              11              12
 22a000         0.00000000     -0.00000000     -0.00000019      0.11511734     -0.00000018
 2a2000        -0.00000000     -0.00000000     -0.00000001     -0.00000018     -0.11511735
 a22000        -0.00000000      0.00000000     -0.11511739     -0.00000019      0.00000001
 2aab00         0.66619450      0.47129879      0.00000000      0.00000000     -0.00000000
 aa200b        -0.31872354      0.47129877      0.00000000      0.00000000     -0.00000000
 2aa0b0         0.00000000     -0.00000000     -0.00000091      0.55934132     -0.00000087
 2aa00b         0.00003312      0.00000000      0.00000006      0.00000087      0.55934134
 aa2b00         0.00003312     -0.00000000     -0.00000006     -0.00000087     -0.55934135
 a2ab00        -0.00000000     -0.00000000     -0.00000091      0.55934138     -0.00000087
 aa20b0        -0.00010569     -0.00000000      0.55934132      0.00000091     -0.00000006
 a2a00b         0.00010569     -0.00000000      0.55934138      0.00000091     -0.00000006
 a2a0b0         0.34747098     -0.47129877     -0.00000000     -0.00000000      0.00000000
 a2ba00         0.00000000      0.00000000      0.00000059     -0.36309696      0.00000057
 b2a00a        -0.00005349      0.00000000     -0.36309696     -0.00000059      0.00000004
 ab2a00        -0.00001677      0.00000000      0.00000004      0.00000057      0.36309695
 2ba00a        -0.00001677     -0.00000000     -0.00000004     -0.00000057     -0.36309694
 ba20a0         0.00005349      0.00000000     -0.36309692     -0.00000059      0.00000004
 2ab0a0        -0.00000000      0.00000000      0.00000059     -0.36309692      0.00000057
 2aba00        -0.33327386     -0.23564939     -0.00000000     -0.00000000      0.00000000
 2baa00        -0.33292064     -0.23564939     -0.00000000     -0.00000000      0.00000000
 ba200a         0.15313429     -0.23564939     -0.00000000     -0.00000000      0.00000000
 ab200a         0.16558925     -0.23564939     -0.00000000     -0.00000000      0.00000000
 b2a0a0        -0.16768462      0.23564938      0.00000000      0.00000000     -0.00000000
 2ba0a0        -0.00000000      0.00000000      0.00000032     -0.19624439      0.00000031
 2ab00a        -0.00001636     -0.00000000     -0.00000002     -0.00000031     -0.19624440
 ba2a00        -0.00001636      0.00000000      0.00000002      0.00000031      0.19624441
 b2aa00         0.00000000      0.00000000      0.00000032     -0.19624443      0.00000031
 ab20a0         0.00005219      0.00000000     -0.19624440     -0.00000032      0.00000002
 a2b00a        -0.00005219      0.00000000     -0.19624442     -0.00000032      0.00000002
 a2b0a0        -0.17978636      0.23564938      0.00000000      0.00000000     -0.00000000
 22000a        -0.00000000     -0.00000000     -0.00000021      0.13017707     -0.00000020
 2020a0         0.00000000     -0.00000000     -0.00000001     -0.00000020     -0.13017707
 022a00         0.00000000      0.00000000     -0.13017706     -0.00000021      0.00000001
 
 Energy:     -261.09901405   -261.09381887   -261.09373472   -261.09373472   -261.09373472
 
 
 CI Coefficients of symmetry 2 (Quartet)
 =======================================

 State:              1               2               3               4               5               6               7
 a2a0a0         0.00000000     -0.00000000      0.00000000      0.13691002     -0.00010934     -0.00002151      0.00010128
 aa200a         0.00000000     -0.00000000      0.00000000      0.76544767     -0.00047950      0.00002240      0.00007209
 aa2a00         0.70700742      0.00000001      0.00000000      0.00043470      0.70700567     -0.00000019     -0.00000024
 2aa00a        -0.70700740     -0.00000001     -0.00000000      0.00043470      0.70700569     -0.00000019     -0.00000024
 a2aa00        -0.00000001      0.70700738     -0.00023028     -0.00003585      0.00000026      0.00000116      0.70700580
 aa20a0        -0.00000000      0.00023028      0.70700737     -0.00002956      0.00000021      0.70700581     -0.00000116
 a2a00a        -0.00000000      0.00023028      0.70700737      0.00002956     -0.00000021     -0.70700581      0.00000116
 2aa0a0        -0.00000001      0.70700736     -0.00023028      0.00003585     -0.00000026     -0.00000116     -0.70700581
 2aaa00         0.00000000      0.00000000     -0.00000000     -0.62853764      0.00037016     -0.00004390      0.00002920
 
 Energy:     -261.10563053   -261.10563053   -261.10563053   -261.10087679   -261.10087679   -261.10087679   -261.10087679

 State:              8               9
 a2a0a0         0.80481794     -0.57718790
 aa200a         0.28384137      0.57718790
 aa2a00         0.00002210     -0.00000000
 2aa00a         0.00002210      0.00000000
 a2aa00        -0.00008288     -0.00000000
 aa20a0         0.00002392      0.00000000
 a2a00a        -0.00002392     -0.00000000
 2aa0a0         0.00008288     -0.00000000
 2aaa00         0.52097656      0.57718791
 
 Energy:     -261.10087679   -261.09388628
 


 **********************************************************************************************************************************
 DATASETS  * FILE   NREC   LENGTH (MB)   RECORD NAMES
              1      21       61.88       500      610      700      900      950      970     1000      129      960     1100   
                                          VAR    BASINP    GEOM    SYMINP    ZMAT    AOBASIS   BASIS     P2S    ABASIS      S 
                                         1400     1410     1420     1200     1210     1080     1700     1600     1650     1380   
                                           T        V       ECP      H0       H01     AOSYM    OPER      SMH    MOLCAS    JKOP   
                                         1700(1)
                                         OPER   

              2       5        1.59       700     1000      520     2100     2140   
                                         GEOM     BASIS   MCVARS     RHF     MCSCF   

 PROGRAMS   *        TOTAL     MULTI   RHF-SCF       INT
 CPU TIMES  *         9.62      5.64      0.48      3.12
 REAL TIME  *        12.96 SEC
 DISK USED  *        63.57 MB (local),        1.49 GB (total)
 SF USED    *        82.23 MB
 GA USED    *         0.00 MB       (max)       0.00 MB       (current)
 **********************************************************************************************************************************

 Energies and &lt;L**2&gt; values

         ENERGY     LL
    -261.3415819   2.0
    -261.3415819   2.0
    -261.3415819   2.0
    -261.0990141   6.0
    -261.0990141   6.0
    -261.0990141   6.0
    -261.0990141   6.0
    -261.0990141   6.0
    -261.0938189   0.0
    -261.0937347   2.0
    -261.0937347   2.0
    -261.0937347   2.0
    -261.1056305   2.0
    -261.1056305   2.0
    -261.1056305   2.0
    -261.1008768   6.0
    -261.1008768   6.0
    -261.1008768   6.0
    -261.1008768   6.0
    -261.1008768   6.0
    -261.0938863   0.0
                                                  


 PROGRAM * CI (Multireference internally contracted CI)     Authors: H.-J. Werner, P.J. Knowles, 1987


 Convergence thresholds:  THRVAR = 1.00D-08  THRDEN = 1.00D-06

 Number of optimized states: 12  Roots:   1   2   3   4   5   6   7   8   9  10  11  12
 Number of reference states: 12  Roots:   1   2   3   4   5   6   7   8   9  10  11  12

 Reference symmetry:                   2   Doublet 
 Number of electrons:                 25
 Maximum number of shells:             6
 Maximum number of spin couplings:   132

 Reference space:      126 conf      210 CSFs
 N elec internal:     8466 conf    28630 CSFs
 N-1 el internal:     9105 conf    51730 CSFs
 N-2 el internal:     7880 conf    73240 CSFs

 Number of electrons in valence space:                     25
 Maximum number of open shell orbitals in reference space:  5
 Maximum number of open shell orbitals in internal spaces: 11


 Number of closed-shell orbitals:  10 (   7   3 )
 Number of active  orbitals:        6 (   0   6 )
 Number of external orbitals:     184 (  85  99 )

 Molecular orbitals read from record     2140.2  Type=MCSCF/NATURAL (state averaged)

 Valence orbitals related to previous ones by unitary transformation. Operators transformed.


 Number of p-space configurations:  30

 Reference wavefunction optimized for reference space (refopt=1)

 State     Reference Energy 
     1      -261.34158187
     2      -261.34158187
     3      -261.34158187
     4      -261.09901405
     5      -261.09901405
     6      -261.09901405
     7      -261.09901405
     8      -261.09901405
     9      -261.09381887
    10      -261.09373472
    11      -261.09373472
    12      -261.09373472

 ?WARNING: SMALL EIGENVALUE OF PAIR OVERLAP MATRIX:  0.1532D-06

 ?WARNING: SMALL EIGENVALUE OF PAIR OVERLAP MATRIX:  0.2231D-06

 Number of blocks in overlap matrix:  1282   Smallest eigenvalue:  0.15D-06
 Number of N-2 electron functions:    2790
 Number of N-1 electron functions:   51730

 Number of internal configurations:                15498
 Number of singly external configurations:       4791990
 Number of doubly external configurations:      23612478
 Total number of contracted configurations:     28419966
 Total number of uncontracted configurations:  624104320

 Diagonal Coupling coefficients finished.               Storage:  14672150 words, CPU-Time:     22.75 seconds.
 Energy denominators for pairs finished in 1 passes.    Storage:   2790672 words, CPU-time:      4.44 seconds.

  ITER. STATE  ROOT     SQ.NORM     CORR.ENERGY   TOTAL ENERGY   ENERGY CHANGE       DEN1      VAR(S)    VAR(P)      TIME
    1     1     1     1.00000000     0.00000000  -261.34158187    -0.00000000    -1.05934443  0.47D-01  0.13D+00    34.75
    1     2     2     1.00000000     0.00000000  -261.34158187     0.00000000    -1.05943292  0.47D-01  0.13D+00    34.75
    1     3     3     1.00000000     0.00000000  -261.34158187    -0.00000000    -1.05957601  0.47D-01  0.13D+00    34.75
    1     4     4     1.00000000     0.00000000  -261.09901405     0.00000000    -1.01032020  0.32D-01  0.12D+00    34.75
    1     5     5     1.00000000     0.00000000  -261.09901405     0.00000000    -1.00944603  0.32D-01  0.12D+00    34.75
    1     6     6     1.00000000     0.00000000  -261.09901405     0.00000000    -1.00954132  0.32D-01  0.12D+00    34.75
    1     7     7     1.00000000     0.00000000  -261.09901405     0.00000000    -1.00945428  0.32D-01  0.12D+00    34.75
    1     8     8     1.00000000     0.00000000  -261.09901405     0.00000000    -1.01163239  0.32D-01  0.12D+00    34.75
    1     9     9     1.00000000     0.00000000  -261.09381887     0.00000000    -1.01283185  0.32D-01  0.12D+00    34.75
    1    10    10     1.00000000     0.00000000  -261.09373472     0.00000000    -1.01781597  0.38D-01  0.13D+00    34.75
    1    11    11     1.00000000     0.00000000  -261.09373472     0.00000000    -1.01787251  0.38D-01  0.13D+00    34.75
    1    12    12     1.00000000     0.00000000  -261.09373472     0.00000000    -1.01795321  0.38D-01  0.13D+00    34.75
    2     1     1     1.11272908    -0.83667775  -262.17825961    -0.83667775    -0.02886027  0.55D-02  0.20D-02   894.70
    2     2     2     1.11281638    -0.83667112  -262.17825298    -0.83667112    -0.02887594  0.55D-02  0.20D-02   894.70
    2     3     3     1.11264111    -0.83663632  -262.17821818    -0.83663632    -0.02890490  0.55D-02  0.20D-02   894.70
    2     4     4     1.10059216    -0.81502314  -261.91403719    -0.81502314    -0.02225012  0.21D-02  0.19D-02   894.70
    2     5     5     1.10062166    -0.81499756  -261.91401161    -0.81499756    -0.02227455  0.22D-02  0.19D-02   894.70
    2     6     6     1.10059755    -0.81498543  -261.91399948    -0.81498543    -0.02228683  0.22D-02  0.19D-02   894.70
    2     7     7     1.10075200    -0.81487898  -261.91389303    -0.81487898    -0.02242365  0.22D-02  0.19D-02   894.70
[...]
   27    3.2  1.5  1.5   0.000%   0.002%   0.000%   0.057%   0.002%   0.885%   0.056%  17.342%   0.005%   0.000%
   28    4.2  1.5  1.5   0.188%   0.000%   0.535%   0.000%   0.038%   0.000%   0.001%   0.000%   0.605%  11.279%
   29    5.2  1.5  1.5   0.000%  21.427%   0.000%   0.032%   0.001%   0.527%   0.002%   0.607%   0.383%   0.208%
   30    6.2  1.5  1.5   0.384%   0.000%   0.033%   0.000%   0.528%   0.001%   2.472%   0.008%   0.215%   0.415%
   31    7.2  1.5  1.5   0.028%   0.000%   0.039%   0.000%   0.529%   0.001%   2.470%   0.008%   0.217%   0.510%
   32    8.2  1.5  1.5   0.000%  31.407%   0.000%   0.033%   0.001%   0.528%   0.002%   0.609%   0.274%   0.209%
   33    9.2  1.5  1.5   0.000%   0.000%  31.076%   0.011%   1.914%   0.003%   0.000%   0.000%   0.143%   2.683%
   34    1.2  1.5  0.5   0.000%   0.000%   0.000%   0.019%   0.001%   0.295%   0.075%  23.112%   0.002%   0.000%
   35    2.2  1.5  0.5   0.000%   0.000%   1.476%   0.001%   0.724%   0.001%   5.746%   0.019%   0.000%   0.000%
   36    3.2  1.5  0.5   0.000%   0.000%   0.459%   0.000%   1.748%   0.003%   5.773%   0.019%   0.000%   0.004%
   37    4.2  1.5  0.5   0.000%   1.730%   0.000%   0.038%   0.001%   0.525%   0.008%   2.428%   0.514%   0.218%
   38    5.2  1.5  0.5   0.089%   0.000%   0.531%   0.000%   0.033%   0.000%   1.823%   0.006%   0.605%  11.382%
   39    6.2  1.5  0.5   0.000%  18.708%   0.000%   0.526%   0.000%   0.032%   0.000%   0.000%  10.456%   0.555%
   40    7.2  1.5  0.5   0.000%  24.170%   0.000%   0.532%   0.000%   0.038%   0.000%   0.001%  11.099%   0.594%
   41    8.2  1.5  0.5   1.664%   0.000%   0.527%   0.000%   0.033%   0.000%   1.837%   0.006%   0.576%  10.788%
   42    9.2  1.5  0.5   0.000%   0.000%   0.001%   1.916%   0.055%  31.042%   0.000%   0.000%   0.090%   0.052%
   43    1.2  1.5 -0.5   0.000%   0.000%   0.019%   0.000%   0.295%   0.001%  23.112%   0.075%   0.000%   0.002%
   44    2.2  1.5 -0.5   0.000%   0.000%   0.001%   1.476%   0.001%   0.724%   0.019%   5.746%   0.000%   0.000%
   45    3.2  1.5 -0.5   0.000%   0.000%   0.000%   0.459%   0.003%   1.748%   0.019%   5.773%   0.004%   0.000%
   46    4.2  1.5 -0.5   1.730%   0.000%   0.038%   0.000%   0.525%   0.001%   2.428%   0.008%   0.218%   0.514%
   47    5.2  1.5 -0.5   0.000%   0.089%   0.000%   0.531%   0.000%   0.033%   0.006%   1.823%  11.382%   0.605%
   48    6.2  1.5 -0.5  18.708%   0.000%   0.526%   0.000%   0.032%   0.000%   0.000%   0.000%   0.555%  10.456%
   49    7.2  1.5 -0.5  24.170%   0.000%   0.532%   0.000%   0.038%   0.000%   0.001%   0.000%   0.594%  11.099%
   50    8.2  1.5 -0.5   0.000%   1.664%   0.000%   0.527%   0.000%   0.033%   0.006%   1.837%  10.788%   0.576%
   51    9.2  1.5 -0.5   0.000%   0.000%   1.916%   0.001%  31.042%   0.055%   0.000%   0.000%   0.052%   0.090%
   52    1.2  1.5 -1.5   0.000%   0.000%   0.001%   2.656%   0.000%   0.162%   0.000%   0.000%   0.000%   0.000%
   53    2.2  1.5 -1.5   0.001%   0.000%   0.054%   0.000%   0.886%   0.002%  17.354%   0.056%   0.000%   0.001%
   54    3.2  1.5 -1.5   0.002%   0.000%   0.057%   0.000%   0.885%   0.002%  17.342%   0.056%   0.000%   0.005%
   55    4.2  1.5 -1.5   0.000%   0.188%   0.000%   0.535%   0.000%   0.038%   0.000%   0.001%  11.279%   0.605%
   56    5.2  1.5 -1.5  21.427%   0.000%   0.032%   0.000%   0.527%   0.001%   0.607%   0.002%   0.208%   0.383%
   57    6.2  1.5 -1.5   0.000%   0.384%   0.000%   0.033%   0.001%   0.528%   0.008%   2.472%   0.415%   0.215%
   58    7.2  1.5 -1.5   0.000%   0.028%   0.000%   0.039%   0.001%   0.529%   0.008%   2.470%   0.510%   0.217%
   59    8.2  1.5 -1.5  31.407%   0.000%   0.033%   0.000%   0.528%   0.001%   0.609%   0.002%   0.209%   0.274%
   60    9.2  1.5 -1.5   0.000%   0.000%   0.011%  31.076%   0.003%   1.914%   0.000%   0.000%   2.683%   0.143%

   Nr   State  S   Sz      41       42       43       44       45       46       47       48       49       50

    1    1.2  0.5  0.5   0.041%   0.000%   0.000%   0.000%   0.000%   0.000%   0.000%   0.000%   0.000%   0.000%
    2    2.2  0.5  0.5   0.003%   0.090%   0.000%   0.000%   0.000%   0.000%   0.000%   0.000%   0.000%   0.000%
    3    3.2  0.5  0.5   0.010%   0.002%   0.000%   0.000%   0.000%   0.000%   0.000%   0.000%   0.000%   0.000%
    4    4.2  0.5  0.5   0.027%   0.145%   5.196%   0.026%   0.014%   3.498%   0.186%   1.690%   1.433%   0.084%
    5    5.2  0.5  0.5   2.017%   0.140%   0.024%   5.746%   0.130%   0.054%   3.719%   0.911%   0.212%   8.149%
    6    6.2  0.5  0.5   3.138%   0.040%   0.001%   6.143%   3.571%   0.005%   0.541%   0.299%   0.498%  16.417%
    7    7.2  0.5  0.5   0.145%   2.880%   0.001%   0.000%   0.025%   1.324%   2.056%   6.546%  12.792%   0.380%
    8    8.2  0.5  0.5   0.008%   0.769%   0.036%   0.002%   0.017%   8.589%   0.173%   1.105%   4.935%   0.129%
    9    9.2  0.5  0.5   1.666%   0.531%   0.000%   0.000%   0.000%   0.000%   0.004%   0.001%   0.000%   0.001%
   10   10.2  0.5  0.5   0.636%  16.115%   0.000%   0.000%   0.000%   0.001%   0.001%   0.001%   0.002%   0.000%
   11   11.2  0.5  0.5   7.260%   0.116%   0.000%   0.001%   0.002%   0.000%   0.005%   0.001%   0.000%   0.003%
   12   12.2  0.5  0.5   0.000%   0.000%   0.000%   0.000%   0.000%   0.000%   0.000%   0.001%   0.001%   0.000%
   13    1.2  0.5 -0.5   0.000%   0.041%   0.000%   0.000%   0.000%   0.000%   0.000%   0.000%   0.000%   0.000%
   14    2.2  0.5 -0.5   0.090%   0.003%   0.000%   0.000%   0.000%   0.000%   0.000%   0.000%   0.000%   0.000%
   15    3.2  0.5 -0.5   0.002%   0.010%   0.000%   0.000%   0.000%   0.000%   0.000%   0.000%   0.000%   0.000%
   16    4.2  0.5 -0.5   0.145%   0.027%   0.026%   5.196%   3.498%   0.014%   1.690%   0.186%   0.084%   1.433%
   17    5.2  0.5 -0.5   0.140%   2.017%   5.746%   0.024%   0.054%   0.130%   0.911%   3.719%   8.149%   0.212%
   18    6.2  0.5 -0.5   0.040%   3.138%   6.143%   0.001%   0.005%   3.571%   0.299%   0.541%  16.417%   0.498%
   19    7.2  0.5 -0.5   2.880%   0.145%   0.000%   0.001%   1.324%   0.025%   6.546%   2.056%   0.380%  12.792%
   20    8.2  0.5 -0.5   0.769%   0.008%   0.002%   0.036%   8.589%   0.017%   1.105%   0.173%   0.129%   4.935%
   21    9.2  0.5 -0.5   0.531%   1.666%   0.000%   0.000%   0.000%   0.000%   0.001%   0.004%   0.001%   0.000%
   22   10.2  0.5 -0.5  16.115%   0.636%   0.000%   0.000%   0.001%   0.000%   0.001%   0.001%   0.000%   0.002%
   23   11.2  0.5 -0.5   0.116%   7.260%   0.001%   0.000%   0.000%   0.002%   0.001%   0.005%   0.003%   0.000%
   24   12.2  0.5 -0.5   0.000%   0.000%   0.000%   0.000%   0.000%   0.000%   0.001%   0.000%   0.000%   0.001%
   25    1.2  1.5  1.5   0.000%   0.000%   0.002%   8.284%   0.731%   0.003%   0.407%   0.083%   0.030%   1.029%
   26    2.2  1.5  1.5   0.000%   0.002%   1.552%   0.000%   0.010%  10.555%   0.108%   0.917%   3.797%   0.110%
   27    3.2  1.5  1.5   0.000%   0.000%   1.658%   0.000%   0.032%   3.792%   1.465%   6.215%   3.819%   0.110%
   28    4.2  1.5  1.5   0.632%   0.108%   0.007%  26.049%   2.489%   0.007%   1.130%   0.223%   0.001%   0.035%
   29    5.2  1.5  1.5   0.360%  11.034%   1.511%   0.000%   0.004%  21.955%   0.369%   0.351%   0.377%   0.011%
   30    6.2  1.5  1.5  11.362%   0.374%   0.000%   0.001%   1.698%   0.007%   2.384%   0.810%   0.010%   0.343%
   31    7.2  1.5  1.5  11.263%   0.383%   0.000%   0.006%   1.614%   0.008%   2.451%   0.827%   0.010%   0.336%
   32    8.2  1.5  1.5   0.351%  11.253%   1.896%   0.001%   0.071%   0.472%   4.628%  16.970%   0.369%   0.011%
   33    9.2  1.5  1.5   0.116%   0.028%   0.000%   0.000%   0.001%   0.000%   0.000%   0.000%   0.072%   2.514%
   34    1.2  1.5  0.5   0.000%   0.001%   0.004%   0.000%   0.021%   5.027%   2.373%   6.976%   1.212%   0.035%
   35    2.2  1.5  0.5   0.000%   0.000%   0.002%   6.382%   3.565%   0.001%   0.540%   0.257%   0.083%   2.855%
   36    3.2  1.5  0.5   0.001%   0.000%   0.002%   6.025%   0.120%   0.013%   3.488%   1.026%   0.237%   8.213%
   37    4.2  1.5  0.5   0.384%  11.289%   0.017%   0.000%   0.008%   1.596%   0.848%   2.520%   0.304%   0.009%
   38    5.2  1.5  0.5   0.457%   0.122%   0.000%   0.608%   2.805%   0.018%   5.741%   1.892%   0.001%   0.046%
   39    6.2  1.5  0.5   0.112%   0.420%   3.707%   0.001%   0.053%  17.187%   1.658%   8.294%   0.031%   0.001%
   40    7.2  1.5  0.5   0.110%   0.569%  24.295%   0.007%   0.010%   4.201%   0.261%   1.402%   0.033%   0.001%
   41    8.2  1.5  0.5   0.513%   0.109%   0.000%   0.806%   4.683%   0.013%   4.545%   1.601%   0.001%   0.019%
   42    9.2  1.5  0.5   0.090%   2.776%   0.000%   0.000%   0.000%   0.000%   0.000%   0.001%  28.093%   0.811%
   43    1.2  1.5 -0.5   0.001%   0.000%   0.000%   0.004%   5.027%   0.021%   6.976%   2.373%   0.035%   1.212%
   44    2.2  1.5 -0.5   0.000%   0.000%   6.382%   0.002%   0.001%   3.565%   0.257%   0.540%   2.855%   0.083%
   45    3.2  1.5 -0.5   0.000%   0.001%   6.025%   0.002%   0.013%   0.120%   1.026%   3.488%   8.213%   0.237%
   46    4.2  1.5 -0.5  11.289%   0.384%   0.000%   0.017%   1.596%   0.008%   2.520%   0.848%   0.009%   0.304%
   47    5.2  1.5 -0.5   0.122%   0.457%   0.608%   0.000%   0.018%   2.805%   1.892%   5.741%   0.046%   0.001%
   48    6.2  1.5 -0.5   0.420%   0.112%   0.001%   3.707%  17.187%   0.053%   8.294%   1.658%   0.001%   0.031%
   49    7.2  1.5 -0.5   0.569%   0.110%   0.007%  24.295%   4.201%   0.010%   1.402%   0.261%   0.001%   0.033%
   50    8.2  1.5 -0.5   0.109%   0.513%   0.806%   0.000%   0.013%   4.683%   1.601%   4.545%   0.019%   0.001%
   51    9.2  1.5 -0.5   2.776%   0.090%   0.000%   0.000%   0.000%   0.000%   0.001%   0.000%   0.811%  28.093%
   52    1.2  1.5 -1.5   0.000%   0.000%   8.284%   0.002%   0.003%   0.731%   0.083%   0.407%   1.029%   0.030%
   53    2.2  1.5 -1.5   0.002%   0.000%   0.000%   1.552%  10.555%   0.010%   0.917%   0.108%   0.110%   3.797%
   54    3.2  1.5 -1.5   0.000%   0.000%   0.000%   1.658%   3.792%   0.032%   6.215%   1.465%   0.110%   3.819%
   55    4.2  1.5 -1.5   0.108%   0.632%  26.049%   0.007%   0.007%   2.489%   0.223%   1.130%   0.035%   0.001%
   56    5.2  1.5 -1.5  11.034%   0.360%   0.000%   1.511%  21.955%   0.004%   0.351%   0.369%   0.011%   0.377%
   57    6.2  1.5 -1.5   0.374%  11.362%   0.001%   0.000%   0.007%   1.698%   0.810%   2.384%   0.343%   0.010%
   58    7.2  1.5 -1.5   0.383%  11.263%   0.006%   0.000%   0.008%   1.614%   0.827%   2.451%   0.336%   0.010%
   59    8.2  1.5 -1.5  11.253%   0.351%   0.001%   1.896%   0.472%   0.071%  16.970%   4.628%   0.011%   0.369%
   60    9.2  1.5 -1.5   0.028%   0.116%   0.000%   0.000%   0.000%   0.001%   0.000%   0.000%   2.514%   0.072%

   Nr   State  S   Sz      51       52       53       54       55       56       57       58       59       60

    1    1.2  0.5  0.5   0.000%   0.000%   0.029%   0.000%   0.089%   0.000%   0.000%   0.001%   0.000%   0.001%
    2    2.2  0.5  0.5   0.000%   0.000%   0.000%   0.029%   0.000%   0.089%   0.000%   0.000%   0.001%   0.000%
    3    3.2  0.5  0.5   0.000%   0.000%   0.029%   0.000%   0.090%   0.000%   0.000%   0.001%   0.000%   0.000%
    4    4.2  0.5  0.5  14.878%   1.397%   0.000%   0.000%   0.000%   0.000%  11.146%   0.021%   0.460%   0.032%
    5    5.2  0.5  0.5   0.858%   8.615%   0.000%   0.000%   0.000%   0.000%   0.043%   5.108%   0.003%   6.503%
    6    6.2  0.5  0.5   0.114%   0.840%   0.000%   0.000%   0.000%   0.000%   0.011%   1.174%   0.001%  10.471%
    7    7.2  0.5  0.5   4.694%   0.352%   0.000%   0.001%   0.000%   0.000%   2.352%   0.000%   9.331%   0.000%
    8    8.2  0.5  0.5  12.241%   0.889%   0.000%   0.000%   0.000%   0.000%   9.329%   0.000%   2.351%   0.005%
    9    9.2  0.5  0.5   0.000%   0.004%  12.232%   0.000%   6.006%   0.001%   0.000%   5.262%   0.000%   0.590%
   10   10.2  0.5  0.5   0.000%   0.000%   0.050%  12.071%   0.024%   5.953%   0.233%   0.015%   5.629%   0.010%
   11   11.2  0.5  0.5   0.000%   0.000%  12.130%   0.049%   5.966%   0.023%   0.001%   3.281%   0.023%   2.566%
   12   12.2  0.5  0.5   0.001%   0.000%   0.000%  30.149%   0.001%  15.307%   0.000%   0.000%   0.000%   0.000%
   13    1.2  0.5 -0.5   0.000%   0.000%   0.000%   0.029%   0.000%   0.089%   0.001%   0.000%   0.001%   0.000%
   14    2.2  0.5 -0.5   0.000%   0.000%   0.029%   0.000%   0.089%   0.000%   0.000%   0.000%   0.000%   0.001%
   15    3.2  0.5 -0.5   0.000%   0.000%   0.000%   0.029%   0.000%   0.090%   0.001%   0.000%   0.000%   0.000%
   16    4.2  0.5 -0.5   1.397%  14.878%   0.000%   0.000%   0.000%   0.000%   0.021%  11.146%   0.032%   0.460%
   17    5.2  0.5 -0.5   8.615%   0.858%   0.000%   0.000%   0.000%   0.000%   5.108%   0.043%   6.503%   0.003%
   18    6.2  0.5 -0.5   0.840%   0.114%   0.000%   0.000%   0.000%   0.000%   1.174%   0.011%  10.471%   0.001%
   19    7.2  0.5 -0.5   0.352%   4.694%   0.001%   0.000%   0.000%   0.000%   0.000%   2.352%   0.000%   9.331%
   20    8.2  0.5 -0.5   0.889%  12.241%   0.000%   0.000%   0.000%   0.000%   0.000%   9.329%   0.005%   2.351%
   21    9.2  0.5 -0.5   0.004%   0.000%   0.000%  12.232%   0.001%   6.006%   5.262%   0.000%   0.590%   0.000%
   22   10.2  0.5 -0.5   0.000%   0.000%  12.071%   0.050%   5.953%   0.024%   0.015%   0.233%   0.010%   5.629%
   23   11.2  0.5 -0.5   0.000%   0.000%   0.049%  12.130%   0.023%   5.966%   3.281%   0.001%   2.566%   0.023%
   24   12.2  0.5 -0.5   0.000%   0.001%  30.149%   0.000%  15.307%   0.001%   0.000%   0.000%   0.000%   0.000%
   25    1.2  1.5  1.5   0.843%  11.079%   0.000%   0.000%   0.000%   0.000%   0.000%  15.771%   0.000%   0.651%
   26    2.2  1.5  1.5   0.358%   0.027%   0.000%   1.053%   0.000%   2.605%   0.217%   0.000%   5.274%   0.000%
   27    3.2  1.5  1.5   0.300%   0.023%   0.000%   1.084%   0.000%   2.604%   0.219%   0.000%   5.274%   0.000%
   28    4.2  1.5  1.5   0.024%   0.317%   0.002%   0.000%   0.005%   0.000%   0.000%   4.436%   0.000%   0.224%
   29    5.2  1.5  1.5   0.020%   0.002%   0.000%   1.481%   0.000%   2.784%   0.184%   0.000%   4.493%   0.000%
   30    6.2  1.5  1.5   0.003%   0.034%   5.775%   0.000%  11.221%   0.000%   0.000%   0.183%   0.000%   4.459%
   31    7.2  1.5  1.5   0.003%   0.038%   5.773%   0.000%  11.216%   0.000%   0.000%   0.222%   0.000%   4.416%
   32    8.2  1.5  1.5   0.038%   0.003%   0.000%   1.519%   0.000%   2.783%   0.187%   0.000%   4.491%   0.000%
   33    9.2  1.5  1.5   2.049%  26.918%   0.000%   0.000%   0.000%   0.000%   0.000%  10.875%   0.000%   0.448%
   34    1.2  1.5  0.5   0.109%   0.008%   0.000%   1.435%   0.000%   3.490%   0.071%   0.000%   1.750%   0.000%
   35    2.2  1.5  0.5   0.505%   6.631%   0.398%   0.000%   0.877%   0.000%   0.000%   8.000%   0.000%   4.759%
   36    3.2  1.5  0.5   0.118%   1.558%   0.386%   0.000%   0.871%   0.000%   0.000%   3.084%   0.000%   9.680%
   37    4.2  1.5  0.5   0.028%   0.002%   0.000%   5.764%   0.000%  11.179%   0.226%   0.000%   4.437%   0.000%
   38    5.2  1.5  0.5   0.025%   0.323%   4.291%   0.000%   8.395%   0.000%   0.000%   4.495%   0.000%   0.184%
   39    6.2  1.5  0.5   0.392%   0.030%   0.000%   0.000%   0.000%   0.000%   4.493%   0.000%   0.184%   0.000%
   40    7.2  1.5  0.5   0.309%   0.024%   0.000%   0.003%   0.000%   0.005%   4.431%   0.000%   0.223%   0.000%
   41    8.2  1.5  0.5   0.027%   0.356%   4.260%   0.000%   8.416%   0.000%   0.000%   4.478%   0.000%   0.185%
   42    9.2  1.5  0.5   2.406%   0.184%   0.000%   0.002%   0.000%   0.000%   0.448%   0.000%  10.889%   0.000%
   43    1.2  1.5 -0.5   0.008%   0.109%   1.435%   0.000%   3.490%   0.000%   0.000%   0.071%   0.000%   1.750%
   44    2.2  1.5 -0.5   6.631%   0.505%   0.000%   0.398%   0.000%   0.877%   8.000%   0.000%   4.759%   0.000%
   45    3.2  1.5 -0.5   1.558%   0.118%   0.000%   0.386%   0.000%   0.871%   3.084%   0.000%   9.680%   0.000%
   46    4.2  1.5 -0.5   0.002%   0.028%   5.764%   0.000%  11.179%   0.000%   0.000%   0.226%   0.000%   4.437%
   47    5.2  1.5 -0.5   0.323%   0.025%   0.000%   4.291%   0.000%   8.395%   4.495%   0.000%   0.184%   0.000%
   48    6.2  1.5 -0.5   0.030%   0.392%   0.000%   0.000%   0.000%   0.000%   0.000%   4.493%   0.000%   0.184%
   49    7.2  1.5 -0.5   0.024%   0.309%   0.003%   0.000%   0.005%   0.000%   0.000%   4.431%   0.000%   0.223%
   50    8.2  1.5 -0.5   0.356%   0.027%   0.000%   4.260%   0.000%   8.416%   4.478%   0.000%   0.185%   0.000%
   51    9.2  1.5 -0.5   0.184%   2.406%   0.002%   0.000%   0.000%   0.000%   0.000%   0.448%   0.000%  10.889%
   52    1.2  1.5 -1.5  11.079%   0.843%   0.000%   0.000%   0.000%   0.000%  15.771%   0.000%   0.651%   0.000%
   53    2.2  1.5 -1.5   0.027%   0.358%   1.053%   0.000%   2.605%   0.000%   0.000%   0.217%   0.000%   5.274%
   54    3.2  1.5 -1.5   0.023%   0.300%   1.084%   0.000%   2.604%   0.000%   0.000%   0.219%   0.000%   5.274%
   55    4.2  1.5 -1.5   0.317%   0.024%   0.000%   0.002%   0.000%   0.005%   4.436%   0.000%   0.224%   0.000%
   56    5.2  1.5 -1.5   0.002%   0.020%   1.481%   0.000%   2.784%   0.000%   0.000%   0.184%   0.000%   4.493%
   57    6.2  1.5 -1.5   0.034%   0.003%   0.000%   5.775%   0.000%  11.221%   0.183%   0.000%   4.459%   0.000%
   58    7.2  1.5 -1.5   0.038%   0.003%   0.000%   5.773%   0.000%  11.216%   0.222%   0.000%   4.416%   0.000%
   59    8.2  1.5 -1.5   0.003%   0.038%   1.519%   0.000%   2.783%   0.000%   0.000%   0.187%   0.000%   4.491%
   60    9.2  1.5 -1.5  26.918%   2.049%   0.000%   0.000%   0.000%   0.000%  10.875%   0.000%   0.448%   0.000%


 Property matrices transformed in SO basis (not sym. adapted)
 ============================================================

 No matrix element <i|DMX|i> larger than 5E-7
 No matrix element <i|DMX|1> larger than 5E-7

 No matrix element <i|DMY|i> larger than 5E-7
 No matrix element <i|DMY|1> larger than 5E-7

 No matrix element <i|DMZ|i> larger than 5E-7
 No matrix element <i|DMZ|1> larger than 5E-7


 **********************************************************************************************************************************
 DATASETS  * FILE   NREC   LENGTH (MB)   RECORD NAMES
              1      21       61.88       500      610      700      900      950      970     1000      129      960     1100   
                                          VAR    BASINP    GEOM    SYMINP    ZMAT    AOBASIS   BASIS     P2S    ABASIS      S 
                                         1400     1410     1420     1200     1210     1080     1700     1600     1650     1380   
                                           T        V       ECP      H0       H01     AOSYM    OPER      SMH    MOLCAS    JKOP   
                                         1700(1)
                                         OPER   

              2       7     4111.86       700     1000      520     2100     2140     5203     5303   
                                         GEOM     BASIS   MCVARS     RHF     MCSCF    MRCI     MRCI   

 PROGRAMS   *        TOTAL        CI        CI        CI     MULTI   RHF-SCF       INT
 CPU TIMES  *    110793.98 102122.05   2606.37   6055.91      5.64      0.48      3.12
 REAL TIME  *    112508.98 SEC
 DISK USED  *         4.08 GB (local),       65.72 GB (total)
 SF USED    *        25.39 GB
 GA USED    *         0.00 MB       (max)       0.00 MB       (current)
 **********************************************************************************************************************************

 CI/USERDEF energy=   -261.939627529961

              CI              CI           MULTI         RHF-SCF
   -261.93049889   -261.93057550   -261.09388628   -261.43913600
 **********************************************************************************************************************************
 Molpro calculation terminated with 1 warning(s)
