
 Working directory              : /wrk/irikura/molpro.EazFMnpa72/
 Global scratch directory       : /wrk/irikura/molpro.EazFMnpa72/
 Wavefunction directory         : /home/irikura/wfu/
 Main file repository           : /wrk/irikura/molpro.EazFMnpa72/

 id        : nistki

 Nodes            nprocs
 pn112695.nist.gov   16
 GA implementation: MPI file
 GA implementation (serial work in mppx): MPI file

 Using customized tuning parameters: mindgm=1; mindgv=20; mindgc=4; mindgr=1; noblas=0; minvec=7
 default implementation of scratch files=sf  


 Variables initialized (1040), CPU time= 0.02 sec
 ***,At SO-CI
                                                                                 ! active space (5/6)
                                                                                 ! additional diffuse spdf functions
 memory,2000,M;
 
 gprint,orbitals,civector;
                                                                                 !gthresh,energy=1.d-10,coeff=1.d-8;
 
 symmetry,xyz
 geometry={At};
 
 basis={
 ecp,at,ECP60MDF;
 spdfghi,at,aug-cc-pwCV5Z-PP;C; spdf,1,even,nprim=1,ratio=3.0;
 }
 
 {rhf;wf,charge=-1}
 
 NDOUB=12
 NQUAR=9
 
 {multi
     occ,7,9
     closed,7,3
     wf,charge=0,sym=2,spin=1;state,NDOUB;
     wf,charge=0,sym=2,spin=3;state,NQUAR;
     expec2,lxx,lyy,lzz;
 }
 table, energy, ll
 title, Energies and &lt;L**2&gt; values
 
 core,0,0
 
 {ci;wf,sym=2,spin=1;state,NDOUB; save,5203.2}
 hlsdiag = energd4
 {ci;wf,sym=2,spin=3;state,NQUAR; save,5303.2}
 hlsdiag(NDOUB+1) = energd4
 
 table,hlsdiag
 
 {ci;hlsmat,ecp,5203.2,5303.2;print,vls=0,hls=0}                                 !compute and diagonalize SO matrix
 Commands initialized (846), CPU time= 0.02 sec, 717 directives.
 Default parameters read. Elapsed time= 0.20 sec

 Checking input...
 Passed
1


                                         ***  PROGRAM SYSTEM MOLPRO  ***
                                       Copyright, TTI GmbH Stuttgart, 2015
                                    Version 2023.2 linked Fri Sep 22 03:27:09 2023


 **********************************************************************************************************************************
 LABEL *   At SO-CI                                                                                                                                                      
  (32 PROC) 64 bit mpp version                                                           DATE: 09-Dec-24          TIME: 14:41:09  
 **********************************************************************************************************************************

 SHA1:             3c61bfe44d37c8635c785372c339f5cbdd4e4b59
 **********************************************************************************************************************************

 Memory per process:      2000 MW
 Total memory per node:  32000 MW

 GA preallocation disabled
 GA check disabled

 Variable memory set to 2000.0 MW


 ZSYMEL=XYZ

 SETTING BASIS          =    USERDEF


 Recomputing integrals since basis changed


 Using spherical harmonics

 Library entry At   ECP ECP60MDF                 selected for group  1
 Library entry AT     S AUG-CC-PWCV5Z-PP     selected for orbital group  1
 Even tempered At S diffuse               selected for group 1    nprim= 1    centre=  0.009    ratio= 3.000    dratio= 1.000
 Library entry AT     P AUG-CC-PWCV5Z-PP     selected for orbital group  1
 Even tempered At P diffuse               selected for group 1    nprim= 1    centre=  0.007    ratio= 3.000    dratio= 1.000
 Library entry AT     D AUG-CC-PWCV5Z-PP     selected for orbital group  1
 Even tempered At D diffuse               selected for group 1    nprim= 1    centre=  0.017    ratio= 3.000    dratio= 1.000
 Library entry AT     F AUG-CC-PWCV5Z-PP     selected for orbital group  1
 Even tempered At F diffuse               selected for group 1    nprim= 1    centre=  0.033    ratio= 3.000    dratio= 1.000
 Library entry AT     G AUG-CC-PWCV5Z-PP     selected for orbital group  1
 Library entry AT     H AUG-CC-PWCV5Z-PP     selected for orbital group  1
 Library entry AT     I AUG-CC-PWCV5Z-PP     selected for orbital group  1


 PROGRAM * SEWARD (Integral evaluation for generally contracted gaussian basis sets)     Author: Roland Lindh, 1990

 Geometry written to block  1 of record 700

 Orientation using atomic masses  
 Molecule type: Atom
 User-specified symmetry elements: XYZ
 Symmetry elements: XYZ
 Rotational constants:       0.0000000      0.0000000      0.0000000 GHz  (calculated with average atomic masses)

 Point group  Ci  



 ATOMIC COORDINATES

 NR  ATOM    CHARGE       X              Y              Z

   1  AT     25.00    0.000000000    0.000000000    0.000000000

 NUCLEAR CHARGE:                   25
 NUMBER OF PRIMITIVE AOS:         479
 NUMBER OF SYMMETRY AOS:          343
 NUMBER OF CONTRACTIONS:          281   (  135Ag  +  146Au  )
 NUMBER OF INNER CORE ORBITALS:     0   (    0Ag  +    0Au  )
 NUMBER OF OUTER CORE ORBITALS:     9   (    6Ag  +    3Au  )
 NUMBER OF VALENCE ORBITALS:        4   (    1Ag  +    3Au  )


 LX: Ag           LY: Ag           LZ: Ag 


 NUCLEAR REPULSION ENERGY    0.00000000

 EXTRA SYMMETRY OF AOS IN SYMMETRY 1:   1 1 1 1 1 1 1 1 1 1   1 1 1 2 3 4 5 6 2 3   4 5 6 2 3 4 5 6 2 3   4 5 6 2 3 4 5 6 2 3
                                        4 5 6 2 3 4 5 6 2 3   4 5 6 2 3 4 5 6 2 3   4 5 6 2 3 4 5 6 7 8   9101112131415 7 8 9
                                       101112131415 7 8 910  1112131415 7 8 91011  12131415 7 8 9101112  131415 7 8 910111213
                                       14151617181920212223  2425262728
 EXTRA SYMMETRY OF AOS IN SYMMETRY 2:   1 2 3 1 2 3 1 2 3 1   2 3 1 2 3 1 2 3 1 2   3 1 2 3 1 2 3 1 2 3   1 2 3 1 2 3 1 2 3 4
                                        5 6 7 8 910 4 5 6 7   8 910 4 5 6 7 8 910   4 5 6 7 8 910 4 5 6   7 8 910 4 5 6 7 8 9
                                       10 4 5 6 7 8 910 4 5   6 7 8 910 4 5 6 7 8   9101112131415161718  19202111121314151617
                                       18192021111213141516  17181920211112131415  161718192021


 Eigenvalues of metric

         1 0.745E-05 0.258E-04 0.258E-04 0.258E-04 0.258E-04 0.258E-04 0.311E-04 0.199E-03
         2 0.156E-05 0.156E-05 0.156E-05 0.212E-03 0.212E-03 0.212E-03 0.162E-02 0.162E-02


 Contracted 2-electron integrals neglected if value below      1.0D-12
 AO integral compression algorithm  1   Integral accuracy      1.0D-12

     705.954 MB (compressed) written to integral file ( 13.6%)

     Node minimum: 27.787 MB, node maximum: 56.099 MB


 NUMBER OF SORTED TWO-ELECTRON INTEGRALS:   24679576.     BUFFER LENGTH:  32768
 NUMBER OF SEGMENTS:   2  SEGMENT LENGTH:   15976936      RECORD LENGTH: 524288

 Memory used in sort:      16.53 MW

 SORT1 READ   646821870. AND WROTE     4259432. INTEGRALS IN     14 RECORDS. CPU TIME:     3.09 SEC, REAL TIME:     3.18 SEC
 SORT2 READ    68066133. AND WROTE   395255076. INTEGRALS IN   3168 RECORDS. CPU TIME:     0.63 SEC, REAL TIME:     0.68 SEC

 Node minimum:    24675847.  Node maximum:    24720811. integrals

 OPERATOR DM      FOR CENTER  0  COORDINATES:    0.000000    0.000000    0.000000


 **********************************************************************************************************************************
 DATASETS  * FILE   NREC   LENGTH (MB)   RECORD NAMES
              1      19       30.69       500      610      700      900      950      970     1000      129      960     1100   
                                          VAR    BASINP    GEOM    SYMINP    ZMAT    AOBASIS   BASIS     P2S    ABASIS      S 
                                         1400     1410     1420     1200     1210     1080     1700     1600     1650   
                                           T        V       ECP      H0       H01     AOSYM    OPER      SMH    MOLCAS    

 PROGRAMS   *        TOTAL       INT
 CPU TIMES  *        10.52     10.16
 REAL TIME  *        12.09 SEC
 DISK USED  *        31.11 MB (local),        1.89 GB (total)
 GA USED    *         0.00 MB       (max)       0.00 MB       (current)
 **********************************************************************************************************************************


 Program * Restricted Hartree-Fock

 Orbital guess generated from atomic densities.

 Initial occupancy:   7   6

 NELEC=   26   SYM=1   MS2= 0   THRE=1.0D-08   THRD=3.2D-06   THRG=3.2D-06  HFMA2=F  DIIS_START=2   DIIS_MAX=10   DIIS_INCORE=F

 Level shifts:    0.00 (CLOSED)    0.00 (OPEN)    0.30 (GAP_MIN)

 ITER           ETOT              DE          GRAD        DDIFF     DIIS  NEXP   TIME(IT)  TIME(TOT)  DIAG
   1     -261.41335624    -261.41335624     0.00D+00     0.47D-01     0     0       0.12      0.25    start
   2     -261.43614492      -0.02278868     0.27D-02     0.24D-02     1     0       0.13      0.38    diag
   3     -261.43851524      -0.00237032     0.15D-02     0.64D-03     2     0       0.13      0.51    diag
   4     -261.43904418      -0.00052894     0.29D-03     0.39D-03     3     0       0.12      0.63    diag
   5     -261.43914754      -0.00010336     0.11D-03     0.22D-03     4     0       0.14      0.77    diag
   6     -261.43915801      -0.00001048     0.27D-04     0.78D-04     5     0       0.12      0.89    diag
   7     -261.43915859      -0.00000057     0.56D-05     0.27D-04     6     0       0.13      1.02    diag
   8     -261.43915862      -0.00000003     0.12D-05     0.62D-05     7     0       0.13      1.15    fixocc
   9     -261.43915862      -0.00000000     0.25D-06     0.15D-05     8     0       0.13      1.28    diag
  10     -261.43915862      -0.00000000     0.61D-07     0.25D-06     0     0       0.14      1.42    diag/orth

 Final occupancy:   7   6

 !RHF STATE 1.1 Energy               -261.439158617972
  RHF One-electron energy            -461.393639139865
  RHF Two-electron energy             199.954480521893
  RHF Kinetic energy                   82.729366050137
  RHF Nuclear energy                    0.000000000000
  RHF Virial quotient                  -3.160173600986

 !RHF STATE 1.1 Dipole moment           0.00000000     0.00000000     0.00000000
 Dipole moment /Debye                   0.00000000     0.00000000     0.00000000

 ELECTRON ORBITALS
 =================

  Orbital  Occupation    Energy    Cen Mu Typ  Coefficients
    1.1     2.00000    -7.53203     1  1  s    1.00010
    2.1     2.00000    -1.54347     1  1  d2-  0.99919
    3.1     2.00000    -1.54347     1  1  d2+  0.99775
    4.1     2.00000    -1.54347     1  1  d1-  0.99921
    5.1     2.00000    -1.54347     1  1  d0   0.99787
    6.1     2.00000    -1.54347     1  1  d1+  0.99918
    7.1     2.00000    -0.67783     1  1  s   -0.44780    1  4  s    0.26077    1  5  s    0.60824    1  6  s    0.41281
                                    1 11  s   -0.25265
    1.2     2.00000    -4.82203     1  1  pz   1.00062
    2.2     2.00000    -4.82203     1  1  px   1.00062
    3.2     2.00000    -4.82203     1  1  py   1.00062
    4.2     2.00000    -0.11634     1  1  pz  -0.28718    1  4  pz   0.27772    1  5  pz   0.41989    1  6  pz   0.34150
    5.2     2.00000    -0.11634     1  1  px  -0.28717    1  4  px   0.27772    1  5  px   0.41988    1  6  px   0.34149
    6.2     2.00000    -0.11634     1  1  py  -0.28718    1  4  py   0.27772    1  5  py   0.41989    1  6  py   0.34150


 HOMO      6.2    -0.116338 =      -3.1657eV
 LUMO      7.2     0.083876 =       2.2824eV
 LUMO-HOMO         0.200214 =       5.4481eV

 Orbitals saved in record  2100.2


 **********************************************************************************************************************************
 DATASETS  * FILE   NREC   LENGTH (MB)   RECORD NAMES
              1      19       30.69       500      610      700      900      950      970     1000      129      960     1100   
                                          VAR    BASINP    GEOM    SYMINP    ZMAT    AOBASIS   BASIS     P2S    ABASIS      S 
                                         1400     1410     1420     1200     1210     1080     1700     1600     1650   
                                           T        V       ECP      H0       H01     AOSYM    OPER      SMH    MOLCAS    

              2       4        1.03       700     1000      520     2100   
                                         GEOM     BASIS   MCVARS     RHF  

 PROGRAMS   *        TOTAL   RHF-SCF       INT
 CPU TIMES  *        11.95      1.42     10.16
 REAL TIME  *        13.60 SEC
 DISK USED  *        34.43 MB (local),        1.94 GB (total)
 GA USED    *         0.00 MB       (max)       0.00 MB       (current)
 **********************************************************************************************************************************
 SETTING NDOUB          =        12.00000000                                  
 SETTING NQUAR          =         9.00000000                                  

 PROGRAM * MULTI (Direct Multiconfiguration SCF)       Authors: P.J. Knowles, H.-J. Werner (1984)
                                                                D.A. Kreplin, P.J. Knowles, H.-J. Werner (2019)

 Number of closed-shell orbitals:  10 (    7    3)
 Number of active  orbitals:        6 (    0    6)
 Number of external orbitals:     265 (  128  137)

 State symmetry 1

 Number of active electrons:   5    Spin symmetry=Doublet   Space symmetry=2
 Number of states:            12
 Number of CSFs:             210   (300 determinants, 300 intermediate states)

 State symmetry 2

 Number of active electrons:   5    Spin symmetry=Quartet   Space symmetry=2
 Number of states:             9
 Number of CSFs:              84   (90 determinants, 90 intermediate states)

 Molecular orbitals read from record     2100.2  Type=RHF/CANONICAL  
 *** IN SYMMETRY 1 ORBITAL  2 SYMMETRY CONTAMINATION OF 0.165D-01 HAS BEEN REMOVED
 *** IN SYMMETRY 1 ORBITAL  3 SYMMETRY CONTAMINATION OF 0.728D-01 HAS BEEN REMOVED
 *** IN SYMMETRY 1 ORBITAL  4 SYMMETRY CONTAMINATION OF 0.137D-01 HAS BEEN REMOVED
 *** IN SYMMETRY 1 ORBITAL  5 SYMMETRY CONTAMINATION OF 0.502D-01 HAS BEEN REMOVED
 *** IN SYMMETRY 1 ORBITAL  6 SYMMETRY CONTAMINATION OF 0.159D-01 HAS BEEN REMOVED

 EXTRA SYMMETRY OF MOS IN SYMMETRY 1:   1 3 5 6 2 4 1 1 3 5   4 6 2 1 2 3 5 6 4 1   2 5 3 6 412 8 7 911  13101415 1 5 3 4 6 2
                                       12 8 711 913101514 5   3 6 4 2 1 712 811 9  13101514 5 3 6 4 2 1   812 711 913101514 5
                                        3 6 4 2201824192623  22162827172125 812 7   91115141310 1 2 5 4   3 61514 812 711 913
                                       10 1 2 5 4 3 6 2 5 4   3 6 1 1 1
 *** IN SYMMETRY 2 ORBITAL  1 SYMMETRY CONTAMINATION OF 0.133D-02 HAS BEEN REMOVED
 *** IN SYMMETRY 2 ORBITAL  3 SYMMETRY CONTAMINATION OF 0.133D-02 HAS BEEN REMOVED
 *** IN SYMMETRY 2 ORBITAL  4 SYMMETRY CONTAMINATION OF 0.647D-02 HAS BEEN REMOVED
 *** IN SYMMETRY 2 ORBITAL  5 SYMMETRY CONTAMINATION OF 0.129D-01 HAS BEEN REMOVED
 *** IN SYMMETRY 2 ORBITAL  6 SYMMETRY CONTAMINATION OF 0.706D-02 HAS BEEN REMOVED
 *** IN SYMMETRY 2 ORBITAL  7 SYMMETRY CONTAMINATION OF 0.681D-04 HAS BEEN REMOVED
 *** IN SYMMETRY 2 ORBITAL  8 SYMMETRY CONTAMINATION OF 0.681D-04 HAS BEEN REMOVED
 EXTRA SYMMETRY OF MOS IN SYMMETRY 2:   3 1 2 3 1 2 3 2 1 1   2 3 6 9 7 4 5 810 1   2 3 6 810 5 4 9 7 1   2 3 6 810 5 4 7 9 6
                                        5 4 810 7 9 1 2 319  14161211201815172113   6 5 4 810 7 9141620  1812111921131517 1 2
                                        3 6 810 5 4 7 91416  111221132018151719 8  10 6 5 4 7 9 2 1 310   8 6 7 9 5 416142113
                                       20181517191112 3 2 1  10 8 6 5 4 7 9 2 3 1   2 3 1 2 3 1

 Wavefunction dump at record             2140.2

 Convergence thresholds  0.10E-04 (gradient)  0.10E-05 (energy)

 Weight factors for state symmetry  1:    0.04762   0.04762   0.04762   0.04762   0.04762   0.04762   0.04762   0.04762
                                          0.04762   0.04762   0.04762   0.04762
 Weight factors for state symmetry  2:    0.04762   0.04762   0.04762   0.04762   0.04762   0.04762   0.04762   0.04762
                                          0.04762
 
 Number of orbital rotations:  2147  ( 18 closed/active, 1307 closed/virtual, 0 active/active, 822 active/virtual )
 Total number of variables:    6557
 
 Second-order MCSCF: L-BFGS accelerated
 
 ITER  MIC  NCI  NEG     ENERGY(VAR)    ENERGY(PROJ) ENERGY CHANGE       GRAD(0)  GRAD(ORB)   GRAD(CI)      STEP      TIME
   1    8   14    0   -261.01823117    -261.13578343   -0.11755226    0.38010598 0.00049136 0.00000000  0.14E+01      2.84
   2    6   10    0   -261.13319508    -261.13385601   -0.00066092    0.02342939 0.00000274 0.00000000  0.12E+00      5.69
   3    4    8    0   -261.13385665    -261.13385666   -0.00000001    0.00011251 0.00000019 0.00000000  0.33E-03      8.13
   4   16   32    0   -261.13385666    -261.13385666    0.00000000    0.00000004 0.00000001 0.00000000  0.58E-07     11.26

 CONVERGENCE REACHED!  Final gradient:    0.00000007 ( 0.74E-07)
                       Final energy:   -261.13385666
 
 Results for state 1.2 Doublet
 =============================
 !MCSCF STATE 1.2 Doublet Energy              -261.341611522552
 Nuclear energy                                  0.00000000
 Kinetic energy                                 83.22389152
 One electron energy                          -455.89040283
 Two electron energy                           194.54879130
 Virial ratio                                    4.14022340
 
 !MCSCF STATE 1.2 Doublet Dipole moment          0.00000000     0.00000000     0.00000000
 Dipole moment /Debye                            0.00000000     0.00000000     0.00000000
 
 Results for state 2.2 Doublet
 =============================
 !MCSCF STATE 2.2 Doublet Energy              -261.341611522354
 Nuclear energy                                  0.00000000
 Kinetic energy                                 83.22389152
 One electron energy                          -455.89040283
 Two electron energy                           194.54879131
 Virial ratio                                    4.14022340
 
 !MCSCF STATE 2.2 Doublet Dipole moment          0.00000000     0.00000000     0.00000000
 Dipole moment /Debye                            0.00000000     0.00000000     0.00000000
 
 Results for state 3.2 Doublet
 =============================
 !MCSCF STATE 3.2 Doublet Energy              -261.341611522337
 Nuclear energy                                  0.00000000
 Kinetic energy                                 83.22389151
 One electron energy                          -455.89040282
 Two electron energy                           194.54879130
 Virial ratio                                    4.14022340
 
 !MCSCF STATE 3.2 Doublet Dipole moment          0.00000000     0.00000000     0.00000000
 Dipole moment /Debye                            0.00000000     0.00000000     0.00000000
 
 Results for state 4.2 Doublet
 =============================
 !MCSCF STATE 4.2 Doublet Energy              -261.099062510217
 Nuclear energy                                  0.00000000
 Kinetic energy                                 82.39574250
 One electron energy                          -449.26094152
 Two electron energy                           188.16187901
 Virial ratio                                    4.16884167
 
 !MCSCF STATE 4.2 Doublet Dipole moment          0.00000000     0.00000000     0.00000000
 Dipole moment /Debye                            0.00000000     0.00000000     0.00000000
 
 Results for state 5.2 Doublet
 =============================
 !MCSCF STATE 5.2 Doublet Energy              -261.099062510188
 Nuclear energy                                  0.00000000
 Kinetic energy                                 82.39574250
 One electron energy                          -449.26094153
 Two electron energy                           188.16187902
 Virial ratio                                    4.16884167
 
 !MCSCF STATE 5.2 Doublet Dipole moment          0.00000000     0.00000000     0.00000000
 Dipole moment /Debye                            0.00000000     0.00000000     0.00000000
 
 Results for state 6.2 Doublet
 =============================
 !MCSCF STATE 6.2 Doublet Energy              -261.099062510153
 Nuclear energy                                  0.00000000
 Kinetic energy                                 82.39574250
 One electron energy                          -449.26094153
 Two electron energy                           188.16187902
 Virial ratio                                    4.16884167
 
 !MCSCF STATE 6.2 Doublet Dipole moment          0.00000000     0.00000000     0.00000000
 Dipole moment /Debye                            0.00000000     0.00000000     0.00000000
 
 Results for state 7.2 Doublet
 =============================
 !MCSCF STATE 7.2 Doublet Energy              -261.099062510041
 Nuclear energy                                  0.00000000
 Kinetic energy                                 82.39574250
 One electron energy                          -449.26094156
 Two electron energy                           188.16187905
 Virial ratio                                    4.16884167
 
 !MCSCF STATE 7.2 Doublet Dipole moment          0.00000000     0.00000000     0.00000000
 Dipole moment /Debye                            0.00000000     0.00000000     0.00000000
 
 Results for state 8.2 Doublet
 =============================
 !MCSCF STATE 8.2 Doublet Energy              -261.099062510040
 Nuclear energy                                  0.00000000
 Kinetic energy                                 82.39574250
 One electron energy                          -449.26094156
 Two electron energy                           188.16187905
 Virial ratio                                    4.16884167
 
 !MCSCF STATE 8.2 Doublet Dipole moment          0.00000000     0.00000000     0.00000000
 Dipole moment /Debye                            0.00000000     0.00000000     0.00000000
 
 Results for state 9.2 Doublet
 =============================
 !MCSCF STATE 9.2 Doublet Energy              -261.093857096037
 Nuclear energy                                  0.00000000
 Kinetic energy                                 82.39304713
 One electron energy                          -449.25209077
 Two electron energy                           188.15823368
 Virial ratio                                    4.16888216
 
 !MCSCF STATE 9.2 Doublet Dipole moment          0.00000000     0.00000000     0.00000000
 Dipole moment /Debye                            0.00000000     0.00000000     0.00000000
 
 Results for state 10.2 Doublet
 ==============================
 !MCSCF STATE 10.2 Doublet Energy             -261.093779042947
 Nuclear energy                                  0.00000000
 Kinetic energy                                 82.46789909
 One electron energy                          -449.56724086
 Two electron energy                           188.47346182
 Virial ratio                                    4.16600498
 
 !MCSCF STATE 10.2 Doublet Dipole moment         0.00000000     0.00000000     0.00000000
 Dipole moment /Debye                            0.00000000     0.00000000     0.00000000
 
 Results for state 11.2 Doublet
 ==============================
 !MCSCF STATE 11.2 Doublet Energy             -261.093779042943
 Nuclear energy                                  0.00000000
 Kinetic energy                                 82.46789909
 One electron energy                          -449.56724086
 Two electron energy                           188.47346182
 Virial ratio                                    4.16600498
 
 !MCSCF STATE 11.2 Doublet Dipole moment         0.00000000     0.00000000     0.00000000
 Dipole moment /Debye                            0.00000000     0.00000000     0.00000000
 
 Results for state 12.2 Doublet
 ==============================
 !MCSCF STATE 12.2 Doublet Energy             -261.093779042485
 Nuclear energy                                  0.00000000
 Kinetic energy                                 82.46789910
 One electron energy                          -449.56724090
 Two electron energy                           188.47346186
 Virial ratio                                    4.16600498
 
 !MCSCF STATE 12.2 Doublet Dipole moment         0.00000000     0.00000000     0.00000000
 Dipole moment /Debye                            0.00000000     0.00000000     0.00000000
 
 Results for state 1.2 Quartet
 =============================
 !MCSCF STATE 1.2 Quartet Energy              -261.105692599113
 Nuclear energy                                  0.00000000
 Kinetic energy                                 82.38062325
 One electron energy                          -449.20846206
 Two electron energy                           188.10276946
 Virial ratio                                    4.16950373
 
 !MCSCF STATE 1.2 Quartet Dipole moment          0.00000000     0.00000000     0.00000000
 Dipole moment /Debye                            0.00000000     0.00000000     0.00000000
 
 Results for state 2.2 Quartet
 =============================
 !MCSCF STATE 2.2 Quartet Energy              -261.105692599067
 Nuclear energy                                  0.00000000
 Kinetic energy                                 82.38062325
 One electron energy                          -449.20846203
 Two electron energy                           188.10276943
 Virial ratio                                    4.16950373
 
 !MCSCF STATE 2.2 Quartet Dipole moment          0.00000000     0.00000000     0.00000000
 Dipole moment /Debye                            0.00000000     0.00000000     0.00000000
 
 Results for state 3.2 Quartet
 =============================
 !MCSCF STATE 3.2 Quartet Energy              -261.105692599004
 Nuclear energy                                  0.00000000
 Kinetic energy                                 82.38062325
 One electron energy                          -449.20846203
 Two electron energy                           188.10276943
 Virial ratio                                    4.16950373
 
 !MCSCF STATE 3.2 Quartet Dipole moment          0.00000000     0.00000000     0.00000000
 Dipole moment /Debye                            0.00000000     0.00000000     0.00000000
 
 Results for state 4.2 Quartet
 =============================
 !MCSCF STATE 4.2 Quartet Energy              -261.100929205935
 Nuclear energy                                  0.00000000
 Kinetic energy                                 82.38590444
 One electron energy                          -449.22726625
 Two electron energy                           188.12633705
 Virial ratio                                    4.16924274
 
 !MCSCF STATE 4.2 Quartet Dipole moment          0.00000000     0.00000000     0.00000000
 Dipole moment /Debye                            0.00000000     0.00000000     0.00000000
 
 Results for state 5.2 Quartet
 =============================
 !MCSCF STATE 5.2 Quartet Energy              -261.100929205935
 Nuclear energy                                  0.00000000
 Kinetic energy                                 82.38590445
 One electron energy                          -449.22726626
 Two electron energy                           188.12633705
 Virial ratio                                    4.16924274
 
 !MCSCF STATE 5.2 Quartet Dipole moment          0.00000000     0.00000000     0.00000000
 Dipole moment /Debye                            0.00000000     0.00000000     0.00000000
 
 Results for state 6.2 Quartet
 =============================
 !MCSCF STATE 6.2 Quartet Energy              -261.100929205888
 Nuclear energy                                  0.00000000
 Kinetic energy                                 82.38590444
 One electron energy                          -449.22726626
 Two electron energy                           188.12633705
 Virial ratio                                    4.16924274
 
 !MCSCF STATE 6.2 Quartet Dipole moment          0.00000000     0.00000000     0.00000000
 Dipole moment /Debye                            0.00000000     0.00000000     0.00000000
 
 Results for state 7.2 Quartet
 =============================
 !MCSCF STATE 7.2 Quartet Energy              -261.100929205869
 Nuclear energy                                  0.00000000
 Kinetic energy                                 82.38590445
 One electron energy                          -449.22726629
 Two electron energy                           188.12633708
 Virial ratio                                    4.16924274
 
 !MCSCF STATE 7.2 Quartet Dipole moment          0.00000000     0.00000000     0.00000000
 Dipole moment /Debye                            0.00000000     0.00000000     0.00000000
 
 Results for state 8.2 Quartet
 =============================
 !MCSCF STATE 8.2 Quartet Energy              -261.100929205857
 Nuclear energy                                  0.00000000
 Kinetic energy                                 82.38590445
 One electron energy                          -449.22726628
 Two electron energy                           188.12633708
 Virial ratio                                    4.16924274
 
 !MCSCF STATE 8.2 Quartet Dipole moment          0.00000000     0.00000000     0.00000000
 Dipole moment /Debye                            0.00000000     0.00000000     0.00000000
 
 Results for state 9.2 Quartet
 =============================
 !MCSCF STATE 9.2 Quartet Energy              -261.093924610681
 Nuclear energy                                  0.00000000
 Kinetic energy                                 82.39219371
 One electron energy                          -449.24862313
 Two electron energy                           188.15469851
 Virial ratio                                    4.16891580
 
 !MCSCF STATE 9.2 Quartet Dipole moment          0.00000000     0.00000000     0.00000000
 Dipole moment /Debye                            0.00000000     0.00000000     0.00000000
 
 State-averaged charge density matrix saved on record 2140.2 (density set 1)
 
 No non-zero expectation values
 
 Expectation values for two-electron operators:
 
 ? Warning
 ? Transition properties are only calculated between states of the same symmetry
 ? The problem occurs in mu_properties_expec2

 !MCSCF expec      <1.2 Doublet|LXLX|1.2 Doublet>     1.000000000000
 !MCSCF expec      <2.2 Doublet|LXLX|2.2 Doublet>     0.999999954294
 !MCSCF expec      <3.2 Doublet|LXLX|3.2 Doublet>     0.000000066257
 !MCSCF expec      <4.2 Doublet|LXLX|4.2 Doublet>     0.051246221498
 !MCSCF expec      <5.2 Doublet|LXLX|5.2 Doublet>     1.000000000001
 !MCSCF expec      <6.2 Doublet|LXLX|6.2 Doublet>     0.999999847747
 !MCSCF expec      <7.2 Doublet|LXLX|7.2 Doublet>     3.999999696752
 !MCSCF expec      <8.2 Doublet|LXLX|8.2 Doublet>     3.948762552742
 !MCSCF expec      <9.2 Doublet|LXLX|9.2 Doublet>     0.000000000007
 !MCSCF expec    <10.2 Doublet|LXLX|10.2 Doublet>     0.999999999996
 !MCSCF expec    <11.2 Doublet|LXLX|11.2 Doublet>     0.999999999995
 !MCSCF expec    <12.2 Doublet|LXLX|12.2 Doublet>     0.000000000010
 !MCSCF expec      <1.2 Quartet|LXLX|1.2 Quartet>     0.000000000010
 !MCSCF expec      <2.2 Quartet|LXLX|2.2 Quartet>     0.999999999995
 !MCSCF expec      <3.2 Quartet|LXLX|3.2 Quartet>     0.999999999995
 !MCSCF expec      <4.2 Quartet|LXLX|4.2 Quartet>     0.567827724269
 !MCSCF expec      <5.2 Quartet|LXLX|5.2 Quartet>     0.999998369930
 !MCSCF expec      <6.2 Quartet|LXLX|6.2 Quartet>     0.999999999716
 !MCSCF expec      <7.2 Quartet|LXLX|7.2 Quartet>     3.999999995632
 !MCSCF expec      <8.2 Quartet|LXLX|8.2 Quartet>     3.432276400984
 !MCSCF expec      <9.2 Quartet|LXLX|9.2 Quartet>     0.000000000007
 
 !MCSCF expec      <1.2 Doublet|LYLY|1.2 Doublet>     1.000000000000
 !MCSCF expec      <2.2 Doublet|LYLY|2.2 Doublet>     0.000000045708
 !MCSCF expec      <3.2 Doublet|LYLY|3.2 Doublet>     0.999999933745
 !MCSCF expec      <4.2 Doublet|LYLY|4.2 Doublet>     2.584802167143
 !MCSCF expec      <5.2 Doublet|LYLY|5.2 Doublet>     0.999999999994
 !MCSCF expec      <6.2 Doublet|LYLY|6.2 Doublet>     3.999999870860
 !MCSCF expec      <7.2 Doublet|LYLY|7.2 Doublet>     1.000002403628
 !MCSCF expec      <8.2 Doublet|LYLY|8.2 Doublet>     1.415161241585
 !MCSCF expec      <9.2 Doublet|LYLY|9.2 Doublet>     0.000000000007
 !MCSCF expec    <10.2 Doublet|LYLY|10.2 Doublet>     0.999999998421
 !MCSCF expec    <11.2 Doublet|LYLY|11.2 Doublet>     0.000000000014
 !MCSCF expec    <12.2 Doublet|LYLY|12.2 Doublet>     0.999999999996
 !MCSCF expec      <1.2 Quartet|LYLY|1.2 Quartet>     0.999999999995
 !MCSCF expec      <2.2 Quartet|LYLY|2.2 Quartet>     0.999999999428
 !MCSCF expec      <3.2 Quartet|LYLY|3.2 Quartet>     0.000000000526
 !MCSCF expec      <4.2 Quartet|LYLY|4.2 Quartet>     1.507095288497
 !MCSCF expec      <5.2 Quartet|LYLY|5.2 Quartet>     1.000001906600
 !MCSCF expec      <6.2 Quartet|LYLY|6.2 Quartet>     3.999999999618
 !MCSCF expec      <7.2 Quartet|LYLY|7.2 Quartet>     1.000000000873
 !MCSCF expec      <8.2 Quartet|LYLY|8.2 Quartet>     2.492761393278
 !MCSCF expec      <9.2 Quartet|LYLY|9.2 Quartet>     0.000000000007
 
 !MCSCF expec      <1.2 Doublet|LZLZ|1.2 Doublet>     0.000000000001
 !MCSCF expec      <2.2 Doublet|LZLZ|2.2 Doublet>     1.000000000000
 !MCSCF expec      <3.2 Doublet|LZLZ|3.2 Doublet>     1.000000000000
 !MCSCF expec      <4.2 Doublet|LZLZ|4.2 Doublet>     3.363951611316
 !MCSCF expec      <5.2 Doublet|LZLZ|5.2 Doublet>     3.999999999963
 !MCSCF expec      <6.2 Doublet|LZLZ|6.2 Doublet>     1.000000281351
 !MCSCF expec      <7.2 Doublet|LZLZ|7.2 Doublet>     0.999997899577
 !MCSCF expec      <8.2 Doublet|LZLZ|8.2 Doublet>     0.636076205632
 !MCSCF expec      <9.2 Doublet|LZLZ|9.2 Doublet>     0.000000000007
 !MCSCF expec    <10.2 Doublet|LZLZ|10.2 Doublet>     0.000000001584
 !MCSCF expec    <11.2 Doublet|LZLZ|11.2 Doublet>     0.999999999994
 !MCSCF expec    <12.2 Doublet|LZLZ|12.2 Doublet>     0.999999999996
 !MCSCF expec      <1.2 Quartet|LZLZ|1.2 Quartet>     0.999999999995
 !MCSCF expec      <2.2 Quartet|LZLZ|2.2 Quartet>     0.000000000577
 !MCSCF expec      <3.2 Quartet|LZLZ|3.2 Quartet>     0.999999999479
 !MCSCF expec      <4.2 Quartet|LZLZ|4.2 Quartet>     3.925076987191
 !MCSCF expec      <5.2 Quartet|LZLZ|5.2 Quartet>     3.999999723428
 !MCSCF expec      <6.2 Quartet|LZLZ|6.2 Quartet>     1.000000000623
 !MCSCF expec      <7.2 Quartet|LZLZ|7.2 Quartet>     1.000000003453
 !MCSCF expec      <8.2 Quartet|LZLZ|8.2 Quartet>     0.074962205695
 !MCSCF expec      <9.2 Quartet|LZLZ|9.2 Quartet>     0.000000000007
 
 !MCSCF expec      <1.2 Doublet|L**2|1.2 Doublet>     2.000000000001
 !MCSCF expec      <2.2 Doublet|L**2|2.2 Doublet>     2.000000000001
 !MCSCF expec      <3.2 Doublet|L**2|3.2 Doublet>     2.000000000001
 !MCSCF expec      <4.2 Doublet|L**2|4.2 Doublet>     5.999999999958
 !MCSCF expec      <5.2 Doublet|L**2|5.2 Doublet>     5.999999999958
 !MCSCF expec      <6.2 Doublet|L**2|6.2 Doublet>     5.999999999958
 !MCSCF expec      <7.2 Doublet|L**2|7.2 Doublet>     5.999999999958
 !MCSCF expec      <8.2 Doublet|L**2|8.2 Doublet>     5.999999999958
 !MCSCF expec      <9.2 Doublet|L**2|9.2 Doublet>     0.000000000021
 !MCSCF expec    <10.2 Doublet|L**2|10.2 Doublet>     2.000000000002
 !MCSCF expec    <11.2 Doublet|L**2|11.2 Doublet>     2.000000000002
 !MCSCF expec    <12.2 Doublet|L**2|12.2 Doublet>     2.000000000002
 !MCSCF expec      <1.2 Quartet|L**2|1.2 Quartet>     2.000000000000
 !MCSCF expec      <2.2 Quartet|L**2|2.2 Quartet>     2.000000000000
 !MCSCF expec      <3.2 Quartet|L**2|3.2 Quartet>     2.000000000000
 !MCSCF expec      <4.2 Quartet|L**2|4.2 Quartet>     5.999999999958
 !MCSCF expec      <5.2 Quartet|L**2|5.2 Quartet>     5.999999999958
 !MCSCF expec      <6.2 Quartet|L**2|6.2 Quartet>     5.999999999958
 !MCSCF expec      <7.2 Quartet|L**2|7.2 Quartet>     5.999999999958
 !MCSCF expec      <8.2 Quartet|L**2|8.2 Quartet>     5.999999999958
 !MCSCF expec      <9.2 Quartet|L**2|9.2 Quartet>     0.000000000021
 
 EXTRA SYMMETRY OF MOS IN SYMMETRY 1:   1 4 2 3 5 6 1 1 4 2   3 5 6 1 4 2 3 5 6 1   4 2 5 3 6 9 712 814  15111310 1 4 2 5 3 6
                                        9 712 81415111310 4   2 5 3 6 1 9 7 81214  15111310 4 2 5 3 6 1   9 7 8121415111310 4
                                        2 5 3 6282517212623  24192018272216 9 7 8  121415111310 1 4 2 5   3 6 9 7 81214151113
                                       10 1 4 2 5 3 6 4 2 5   3 6 1 1 1
 EXTRA SYMMETRY OF MOS IN SYMMETRY 2:   1 3 2 2 3 1 2 3 1 1   3 2 4 6 810 7 9 5 1   3 2 4 6 810 9 7 5 1   3 2 4 610 8 9 7 5 4
                                        610 8 9 7 5 1 3 211  19211316141517122018   4 610 8 9 7 5111921  1316141517122018 1 3
                                        2 4 6 810 9 7 51119  211314161517122018 4   6 810 7 9 5 1 3 2 4   6 810 7 9 511192113
                                       14161517122018 1 3 2   4 6 810 7 9 5 1 3 2   1 3 2 1 3 2
 
  NATURAL ORBITALS (STATE AVERAGED)
  =================================

  Orbital  Occupation    Energy    Cen Mu Typ  Coefficients
    1.1     2.00000    -7.98680     1  1  s    1.00020
    2.1     2.00000    -1.99722     1  1  d1+  1.00149
    3.1     2.00000    -1.99722     1  1  d0   1.00149
    4.1     2.00000    -1.99722     1  1  d2-  1.00149
    5.1     2.00000    -1.99722     1  1  d2+  1.00149
    6.1     2.00000    -1.99722     1  1  d1-  1.00149
    7.1     2.00000    -1.08381     1  1  s   -0.46849    1  4  s    0.26921    1  5  s    0.70813    1  6  s    0.39815
                                    1 11  s   -0.27022
    1.2     2.00000    -5.27647     1  1  px   1.00016
    2.2     2.00000    -5.27647     1  1  pz   1.00016
    3.2     2.00000    -5.27647     1  1  py   1.00016
    4.2     1.38039    -0.41927     1  1  py  -0.32728    1  4  py   0.33239    1  5  py   0.54221    1  6  py   0.30178
    5.2     1.38039    -0.41927     1  1  pz  -0.32728    1  4  pz   0.33239    1  5  pz   0.54221    1  6  pz   0.30178
    6.2     1.38039    -0.41927     1  1  px  -0.32728    1  4  px   0.33239    1  5  px   0.54221    1  6  px   0.30178
    7.2     0.28628     0.00806     1 12  py   0.78585    1 13  py   0.36818
    8.2     0.28627     0.00806     1 12  pz   0.78585    1 13  pz   0.36818
    9.2     0.28627     0.00806     1 12  px   0.78585    1 13  px   0.36818
 
 Natural orbital dump (state averaged) at molpro section 2140.2 (Orbital set 2)
 
 Transform the CI vectors
 
 CI Coefficients of symmetry 2 (Doublet)
 =======================================

 State:              1               2               3               4               5               6               7
 2a2000         0.98900425      0.00000000      0.00000000     -0.00000000     -0.00000003      0.00000000      0.00000000
 22a000        -0.00000000     -0.00021144      0.98900423     -0.00000000     -0.00000000      0.00000000      0.00000002
 a22000        -0.00000000      0.98900423      0.00021144      0.00000000      0.00000000     -0.00000001      0.00000000
 aa200b        -0.00000000      0.00000000      0.00000000      0.66211778     -0.00001061      0.00024680     -0.00017418
 a2a0b0         0.00000000     -0.00000000     -0.00000000      0.26573585     -0.00000489      0.00013555     -0.00145987
 2aa00b         0.07622305     -0.00000000     -0.00000000      0.00000918      0.57711967     -0.00000038     -0.00000051
 aa2b00        -0.07622302     -0.00000000     -0.00000000      0.00000918      0.57711963     -0.00000038     -0.00000051
 a2a00b        -0.00000000      0.07622305      0.00001630     -0.00021098      0.00000039      0.57711962     -0.00000139
 aa20b0        -0.00000000      0.07622304      0.00001630      0.00021098     -0.00000039     -0.57711960      0.00000139
 2aa0b0        -0.00000000      0.00001630     -0.07622304     -0.00000551      0.00000051      0.00000148      0.57711801
 a2ab00         0.00000000      0.00001630     -0.07622302      0.00000551     -0.00000051     -0.00000148     -0.57711799
 2aab00        -0.00000000     -0.00000000     -0.00000000     -0.39638188      0.00000572     -0.00011124     -0.00128569
 ab2a00         0.01337864      0.00000000      0.00000000     -0.00000464     -0.29211241      0.00000019      0.00000026
 a2ba00        -0.00000000     -0.00000286      0.01337864     -0.00000279      0.00000026      0.00000075      0.29211158
 ba20a0         0.00000000     -0.01337864     -0.00000286     -0.00010679      0.00000020      0.29211240     -0.00000071
 2ab0a0         0.00000000     -0.00000286      0.01337864      0.00000279     -0.00000026     -0.00000075     -0.29211159
 b2a00a         0.00000000     -0.01337863     -0.00000286      0.00010679     -0.00000020     -0.29211241      0.00000071
 2ba00a        -0.01337864      0.00000000      0.00000000     -0.00000464     -0.29211243      0.00000019      0.00000026
 ab200a         0.00000000     -0.00000000     -0.00000000     -0.33186311      0.00000531     -0.00012325      0.00007019
 ba200a         0.00000000     -0.00000000     -0.00000000     -0.33025467      0.00000530     -0.00012355      0.00010399
 a2b0a0         0.00000000      0.00000000      0.00000000     -0.12635208      0.00000235     -0.00006557      0.00073678
 b2a0a0        -0.00000000      0.00000000      0.00000000     -0.13938377      0.00000255     -0.00006998      0.00072309
 2ab00a        -0.06284442      0.00000000     -0.00000000     -0.00000453     -0.28500724      0.00000019      0.00000025
 ba2a00         0.06284438      0.00000000      0.00000000     -0.00000453     -0.28500722      0.00000019      0.00000025
 a2b00a         0.00000000     -0.06284441     -0.00001344      0.00010419     -0.00000019     -0.28500722      0.00000069
 ab20a0         0.00000000     -0.06284441     -0.00001344     -0.00010419      0.00000019      0.28500720     -0.00000069
 2ba0a0        -0.00000000     -0.00001344      0.06284441      0.00000272     -0.00000025     -0.00000073     -0.28500642
 b2aa00        -0.00000000     -0.00001344      0.06284438     -0.00000272      0.00000025      0.00000073      0.28500641
 2aba00         0.00000000      0.00000000      0.00000000      0.19247932     -0.00000276      0.00005327      0.00065291
 2baa00         0.00000000      0.00000000      0.00000000      0.20390257     -0.00000295      0.00005798      0.00063279
 2020a0         0.04085222      0.00000000      0.00000000     -0.00000000     -0.00000000      0.00000000      0.00000000
 22000a        -0.00000000     -0.00000873      0.04085222      0.00000000      0.00000000      0.00000000      0.00000000
 022a00        -0.00000000      0.04085219      0.00000873      0.00000000     -0.00000000      0.00000000     -0.00000000
 
 Energy:     -261.34161152   -261.34161152   -261.34161152   -261.09906251   -261.09906251   -261.09906251   -261.09906251

 State:              8               9              10              11              12
 2a2000        -0.00000000      0.00000000     -0.11516733      0.00000457     -0.00000000
 22a000         0.00000000      0.00000000     -0.00000000      0.00000014      0.11516732
 a22000         0.00000000      0.00000000     -0.00000457     -0.11516735      0.00000014
 aa200b         0.07542831      0.47129842     -0.00000000      0.00000000     -0.00000000
 a2a0b0         0.61112335     -0.47129845     -0.00000000     -0.00000000      0.00000000
 2aa00b         0.00000063      0.00000000      0.55928228     -0.00002220      0.00000000
 aa2b00         0.00000063     -0.00000000     -0.55928232      0.00002220     -0.00000000
 a2a00b        -0.00003627     -0.00000000      0.00002220      0.55928229     -0.00000068
 aa20b0         0.00003627     -0.00000000      0.00002220      0.55928231     -0.00000068
 2aa0b0         0.00138103      0.00000000     -0.00000000      0.00000068      0.55928229
 a2ab00        -0.00138103      0.00000000     -0.00000000      0.00000068      0.55928231
 2aab00         0.53569505      0.47129844     -0.00000000     -0.00000000     -0.00000000
 ab2a00        -0.00000032      0.00000000      0.36322900     -0.00001442      0.00000000
 a2ba00         0.00069902     -0.00000000      0.00000000     -0.00000044     -0.36322900
 ba20a0        -0.00001836      0.00000000     -0.00001442     -0.36322899      0.00000044
 2ab0a0        -0.00069902     -0.00000000      0.00000000     -0.00000044     -0.36322899
 b2a00a         0.00001836      0.00000000     -0.00001442     -0.36322898      0.00000044
 2ba00a        -0.00000032     -0.00000000     -0.36322897      0.00001442     -0.00000000
 ab200a        -0.03065464     -0.23564921      0.00000000     -0.00000000      0.00000000
 ba200a        -0.04477367     -0.23564921      0.00000000     -0.00000000      0.00000000
 a2b0a0        -0.30839496      0.23564922      0.00000000      0.00000000     -0.00000000
 b2a0a0        -0.30272840      0.23564923      0.00000000      0.00000000     -0.00000000
 2ab00a        -0.00000031     -0.00000000     -0.19605331      0.00000778     -0.00000000
 ba2a00        -0.00000031      0.00000000      0.19605333     -0.00000778      0.00000000
 a2b00a         0.00001791      0.00000000     -0.00000778     -0.19605331      0.00000024
 ab20a0        -0.00001791      0.00000000     -0.00000778     -0.19605332      0.00000024
 2ba0a0        -0.00068202     -0.00000000      0.00000000     -0.00000024     -0.19605331
 b2aa00         0.00068202     -0.00000000      0.00000000     -0.00000024     -0.19605332
 2aba00        -0.27207376     -0.23564922      0.00000000      0.00000000      0.00000000
 2baa00        -0.26362129     -0.23564922      0.00000000      0.00000000      0.00000000
 2020a0         0.00000000      0.00000000     -0.13043545      0.00000518     -0.00000000
 22000a         0.00000000      0.00000000     -0.00000000      0.00000016      0.13043545
 022a00        -0.00000000      0.00000000     -0.00000518     -0.13043545      0.00000016
 
 Energy:     -261.09906251   -261.09385710   -261.09377904   -261.09377904   -261.09377904
 
 
 CI Coefficients of symmetry 2 (Quartet)
 =======================================

 State:              1               2               3               4               5               6               7
 a2a0a0         0.00000000     -0.00000000     -0.00000000      0.11172999     -0.00041719      0.00000602     -0.00000180
 aa200a         0.00000000      0.00000000      0.00000000      0.75621299     -0.00279021      0.00000199     -0.00000222
 aa20a0        -0.00000003     -0.00001682      0.70700713      0.00000024     -0.00001482      0.70700548      0.00000121
 aa2a00         0.00000000      0.70700712      0.00001682      0.00260677      0.70700068      0.00001482     -0.00000341
 2aa0a0         0.70700710     -0.00000000      0.00000003     -0.00000153     -0.00000340      0.00000121     -0.70700550
 a2aa00         0.70700709     -0.00000000      0.00000003      0.00000153      0.00000340     -0.00000121      0.70700551
 2aa00a        -0.00000000     -0.70700708     -0.00001682      0.00260677      0.70700072      0.00001482     -0.00000341
 a2a00a        -0.00000003     -0.00001682      0.70700707     -0.00000024      0.00001482     -0.70700554     -0.00000121
 2aaa00        -0.00000000      0.00000000     -0.00000000     -0.64448298      0.00237302      0.00000403      0.00000042
 
 Energy:     -261.10569260   -261.10569260   -261.10569260   -261.10092921   -261.10092921   -261.10092921   -261.10092921

 State:              8               9
 a2a0a0         0.80869768     -0.57718742
 aa200a         0.30758716      0.57718740
 aa20a0        -0.00000530     -0.00000000
 aa2a00         0.00000458     -0.00000000
 2aa0a0        -0.00000136      0.00000000
 a2aa00         0.00000136      0.00000000
 2aa00a         0.00000458      0.00000000
 a2a00a         0.00000530     -0.00000000
 2aaa00         0.50111054      0.57718742
 
 Energy:     -261.10092921   -261.09392461
 


 **********************************************************************************************************************************
 DATASETS  * FILE   NREC   LENGTH (MB)   RECORD NAMES
              1      21       94.20       500      610      700      900      950      970     1000      129      960     1100   
                                          VAR    BASINP    GEOM    SYMINP    ZMAT    AOBASIS   BASIS     P2S    ABASIS      S 
                                         1400     1410     1420     1200     1210     1080     1700     1600     1650     1380   
                                           T        V       ECP      H0       H01     AOSYM    OPER      SMH    MOLCAS    JKOP   
                                         1700(1)
                                         OPER   

              2       5        2.66       700     1000      520     2100     2140   
                                         GEOM     BASIS   MCVARS     RHF     MCSCF   

 PROGRAMS   *        TOTAL     MULTI   RHF-SCF       INT
 CPU TIMES  *        23.90     11.95      1.42     10.16
 REAL TIME  *        26.85 SEC
 DISK USED  *        96.98 MB (local),        2.92 GB (total)
 SF USED    *       162.45 MB
 GA USED    *         0.00 MB       (max)       0.00 MB       (current)
 **********************************************************************************************************************************

 Energies and &lt;L**2&gt; values

         ENERGY     LL
    -261.3416115   2.0
    -261.3416115   2.0
    -261.3416115   2.0
    -261.0990625   6.0
    -261.0990625   6.0
    -261.0990625   6.0
    -261.0990625   6.0
    -261.0990625   6.0
    -261.0938571   0.0
    -261.0937790   2.0
    -261.0937790   2.0
    -261.0937790   2.0
    -261.1056926   2.0
    -261.1056926   2.0
    -261.1056926   2.0
    -261.1009292   6.0
    -261.1009292   6.0
    -261.1009292   6.0
    -261.1009292   6.0
    -261.1009292   6.0
    -261.0939246   0.0
                                                  


 PROGRAM * CI (Multireference internally contracted CI)     Authors: H.-J. Werner, P.J. Knowles, 1987


 Convergence thresholds:  THRVAR = 1.00D-08  THRDEN = 1.00D-06

 Number of optimized states: 12  Roots:   1   2   3   4   5   6   7   8   9  10  11  12
 Number of reference states: 12  Roots:   1   2   3   4   5   6   7   8   9  10  11  12

 Reference symmetry:                   2   Doublet 
 Number of electrons:                 25
 Maximum number of shells:             6
 Maximum number of spin couplings:   132

 Reference space:      126 conf      210 CSFs
 N elec internal:     8466 conf    28630 CSFs
 N-1 el internal:     9105 conf    51730 CSFs
 N-2 el internal:     7880 conf    73240 CSFs

 Number of electrons in valence space:                     25
 Maximum number of open shell orbitals in reference space:  5
 Maximum number of open shell orbitals in internal spaces: 11


 Number of closed-shell orbitals:  10 (   7   3 )
 Number of active  orbitals:        6 (   0   6 )
 Number of external orbitals:     265 ( 128 137 )

 Molecular orbitals read from record     2140.2  Type=MCSCF/NATURAL (state averaged)

 Valence orbitals related to previous ones by unitary transformation. Operators transformed.


 Number of p-space configurations:  30

 Reference wavefunction optimized for reference space (refopt=1)

 State     Reference Energy 
     1      -261.34161152
     2      -261.34161152
     3      -261.34161152
     4      -261.09906251
     5      -261.09906251
     6      -261.09906251
     7      -261.09906251
     8      -261.09906251
     9      -261.09385710
    10      -261.09377904
    11      -261.09377904
    12      -261.09377904

 ?WARNING: SMALL EIGENVALUE OF PAIR OVERLAP MATRIX:  0.8622D-07

 ?WARNING: SMALL EIGENVALUE OF PAIR OVERLAP MATRIX:  0.2231D-06

 Number of blocks in overlap matrix:  1242   Smallest eigenvalue:  0.86D-07
 Number of N-2 electron functions:    2790
 Number of N-1 electron functions:   51730

 Number of internal configurations:                15498
 Number of singly external configurations:       6875330
 Number of doubly external configurations:      48990714
 Total number of contracted configurations:     55881542
 Total number of uncontracted configurations: 1291473932

 Diagonal Coupling coefficients finished.               Storage:  14711030 words, CPU-Time:     22.80 seconds.
 Energy denominators for pairs finished in 1 passes.    Storage:   4382262 words, CPU-time:      9.22 seconds.

  ITER. STATE  ROOT     SQ.NORM     CORR.ENERGY   TOTAL ENERGY   ENERGY CHANGE       DEN1      VAR(S)    VAR(P)      TIME
    1     1     1     1.00000000     0.00000000  -261.34161152    -0.00000000    -1.12662459  0.47D-01  0.14D+00    42.51
    1     2     2     1.00000000     0.00000000  -261.34161152     0.00000000    -1.12645939  0.47D-01  0.13D+00    42.51
    1     3     3     1.00000000     0.00000000  -261.34161152     0.00000000    -1.12653815  0.47D-01  0.13D+00    42.51
    1     4     4     1.00000000     0.00000000  -261.09906251     0.00000000    -1.07528639  0.31D-01  0.12D+00    42.51
    1     5     5     1.00000000     0.00000000  -261.09906251     0.00000000    -1.07289772  0.31D-01  0.12D+00    42.51
    1     6     6     1.00000000     0.00000000  -261.09906251     0.00000000    -1.07294791  0.31D-01  0.12D+00    42.51
    1     7     7     1.00000000     0.00000000  -261.09906251    -0.00000000    -1.07291893  0.31D-01  0.12D+00    42.51
    1     8     8     1.00000000     0.00000000  -261.09906251     0.00000000    -1.07507972  0.31D-01  0.12D+00    42.51
    1     9     9     1.00000000     0.00000000  -261.09385710    -0.00000000    -1.07638093  0.32D-01  0.13D+00    42.51
    1    10    10     1.00000000     0.00000000  -261.09377904     0.00000000    -1.08170899  0.38D-01  0.13D+00    42.51
    1    11    11     1.00000000     0.00000000  -261.09377904     0.00000000    -1.08149618  0.38D-01  0.13D+00    42.51
    1    12    12     1.00000000     0.00000000  -261.09377904     0.00000000    -1.08170737  0.38D-01  0.13D+00    42.51
    2     1     1     1.11493706    -0.89598745  -262.23759897    -0.89598745    -0.03169808  0.61D-02  0.20D-02  2057.72
    2     2     2     1.11487287    -0.89596427  -262.23757579    -0.89596427    -0.03172277  0.61D-02  0.20D-02  2057.72
    2     3     3     1.11481901    -0.89595151  -262.23756303    -0.89595151    -0.03172586  0.61D-02  0.20D-02  2057.72
    2     4     4     1.10262695    -0.87439961  -261.97346212    -0.87439961    -0.02400825  0.23D-02  0.19D-02  2057.72
    2     5     5     1.10262344    -0.87439088  -261.97345339    -0.87439088    -0.02401602  0.23D-02  0.19D-02  2057.72
    2     6     6     1.10264665    -0.87435378  -261.97341629    -0.87435378    -0.02405764  0.23D-02  0.19D-02  2057.72
    2     7     7     1.10309516    -0.87400053  -261.97306304    -0.87400053    -0.02446802  0.23D-02  0.20D-02  2057.72
    2     8     8     1.10315820    -0.87387989  -261.97294240    -0.87387989    -0.02459292  0.23D-02  0.21D-02  2057.72
    2     9     9     1.10375483    -0.87436897  -261.96822606    -0.87436897    -0.02460991  0.23D-02  0.21D-02  2057.72
    2    10    10     1.10610311    -0.87352166  -261.96730070    -0.87352166    -0.02694377  0.38D-02  0.21D-02  2057.72
    2    11    11     1.10616384    -0.87351079  -261.96728984    -0.87351079    -0.02695898  0.38D-02  0.21D-02  2057.72
    2    12    12     1.10617196    -0.87350066  -261.96727970    -0.87350066    -0.02697009  0.38D-02  0.21D-02  2057.72
    3     1     1     1.09928012    -0.92627576  -262.26788728    -0.03028831    -0.00053956  0.79D-04  0.51D-04  4075.71
    3     2     2     1.09925914    -0.92627191  -262.26788343    -0.03030764    -0.00054265  0.80D-04  0.52D-04  4075.71
    3     3     3     1.09923606    -0.92626784  -262.26787936    -0.03031633    -0.00054519  0.80D-04  0.52D-04  4075.71
    3     4     4     1.09215560    -0.89693971  -261.99600222    -0.02254010    -0.00027782  0.30D-04  0.28D-04  4075.71
    3     5     5     1.09215085    -0.89693960  -261.99600211    -0.02254872    -0.00027777  0.31D-04  0.28D-04  4075.71
    3     6     6     1.09214940    -0.89693824  -261.99600075    -0.02258447    -0.00027900  0.31D-04  0.28D-04  4075.71
    3     7     7     1.09222763    -0.89693745  -261.99599996    -0.02293692    -0.00028058  0.30D-04  0.29D-04  4075.71
    3     8     8     1.09219239    -0.89693449  -261.99599700    -0.02305460    -0.00028267  0.30D-04  0.29D-04  4075.71
    3     9     9     1.09277777    -0.89872903  -261.99258613    -0.02436007    -0.00037303  0.50D-04  0.39D-04  4075.71
    3    10    10     1.09277902    -0.89880638  -261.99258542    -0.02528472    -0.00037347  0.50D-04  0.39D-04  4075.71
    3    11    11     1.09276391    -0.89880576  -261.99258480    -0.02529496    -0.00037389  0.50D-04  0.39D-04  4075.71
    3    12    12     1.09257209    -0.89755628  -261.99133532    -0.02405563    -0.00028894  0.33D-04  0.30D-04  4075.71
    4     1     1     1.09872349    -0.92683260  -262.26844412    -0.00055684    -0.00002071  0.21D-05  0.25D-05  6093.99
    4     2     2     1.09871529    -0.92683212  -262.26844364    -0.00056021    -0.00002108  0.21D-05  0.26D-05  6093.99
    4     3     3     1.09870566    -0.92683156  -262.26844308    -0.00056372    -0.00002147  0.21D-05  0.27D-05  6093.99
    4     4     4     1.09194527    -0.89723075  -261.99629326    -0.00029105    -0.00000996  0.13D-05  0.14D-05  6093.99
    4     5     5     1.09193219    -0.89723054  -261.99629305    -0.00029094    -0.00001015  0.13D-05  0.15D-05  6093.99
    4     6     6     1.09193124    -0.89723050  -261.99629301    -0.00029226    -0.00001016  0.13D-05  0.15D-05  6093.99
    4     7     7     1.09193014    -0.89723041  -261.99629292    -0.00029296    -0.00001023  0.13D-05  0.15D-05  6093.99
    4     8     8     1.09193672    -0.89723029  -261.99629280    -0.00029580    -0.00001023  0.13D-05  0.15D-05  6093.99
    4     9     9     1.09236354    -0.89912103  -261.99297813    -0.00039200    -0.00001516  0.23D-05  0.21D-05  6093.99
    4    10    10     1.09236244    -0.89919893  -261.99297797    -0.00039255    -0.00001524  0.23D-05  0.21D-05  6093.99
    4    11    11     1.09235956    -0.89919883  -261.99297787    -0.00039307    -0.00001532  0.23D-05  0.21D-05  6093.99
    4    12    12     1.09226519    -0.89786069  -261.99163974    -0.00030441    -0.00001069  0.15D-05  0.15D-05  6093.99
    5     1     1     1.09883945    -0.92685445  -262.26846597    -0.00002185    -0.00000087  0.34D-07  0.14D-06  8121.13
    5     2     2     1.09883753    -0.92685440  -262.26846593    -0.00002228    -0.00000090  0.34D-07  0.15D-06  8121.13
    5     3     3     1.09883536    -0.92685434  -262.26846586    -0.00002278    -0.00000095  0.34D-07  0.16D-06  8121.13
    5     4     4     1.09200401    -0.89724241  -261.99630492    -0.00001166    -0.00000066  0.21D-07  0.14D-06  8121.13
    5     5     5     1.09200328    -0.89724240  -261.99630491    -0.00001186    -0.00000067  0.20D-07  0.14D-06  8121.13
    5     6     6     1.09200317    -0.89724239  -261.99630490    -0.00001189    -0.00000068  0.21D-07  0.14D-06  8121.13
    5     7     7     1.09200296    -0.89724238  -261.99630489    -0.00001197    -0.00000069  0.21D-07  0.14D-06  8121.13
    5     8     8     1.09200265    -0.89724234  -261.99630485    -0.00001205    -0.00000071  0.22D-07  0.15D-06  8121.13
    5     9     9     1.09242634    -0.89913855  -261.99299564    -0.00001752    -0.00000102  0.39D-07  0.20D-06  8121.13
    5    10    10     1.09242597    -0.89921658  -261.99299562    -0.00001765    -0.00000103  0.40D-07  0.21D-06  8121.13
    5    11    11     1.09242557    -0.89921657  -261.99299561    -0.00001774    -0.00000104  0.40D-07  0.21D-06  8121.13
    5    12    12     1.09233117    -0.89787333  -261.99165238    -0.00001264    -0.00000071  0.28D-07  0.14D-06  8121.13
    6     1     1     1.09885552    -0.92685542  -262.26846694    -0.00000097    -0.00000004  0.23D-08  0.74D-08 10147.93
    6     2     2     1.09885523    -0.92685541  -262.26846693    -0.00000101    -0.00000005  0.25D-08  0.79D-08 10147.93
    6     3     3     1.09885484    -0.92685541  -262.26846693    -0.00000107    -0.00000005  0.28D-08  0.86D-08 10147.93
    6     4     4     1.09202817    -0.89724323  -261.99630574    -0.00000082    -0.00000005  0.32D-08  0.94D-08 10147.93
    6     5     5     1.09202831    -0.89724323  -261.99630574    -0.00000083    -0.00000005  0.32D-08  0.11D-07 10147.93
    6     6     6     1.09202838    -0.89724323  -261.99630574    -0.00000084    -0.00000006  0.33D-08  0.11D-07 10147.93
    6     7     7     1.09202837    -0.89724323  -261.99630574    -0.00000085    -0.00000006  0.33D-08  0.11D-07 10147.93
    6     8     8     1.09202824    -0.89724323  -261.99630574    -0.00000089    -0.00000006  0.35D-08  0.11D-07 10147.93
    6     9     9     1.09244774    -0.89913979  -261.99299688    -0.00000124    -0.00000008  0.54D-08  0.13D-07 10147.93
    6    10    10     1.09244767    -0.89921784  -261.99299688    -0.00000126    -0.00000008  0.55D-08  0.13D-07 10147.93
    6    11    11     1.09244781    -0.89921784  -261.99299688    -0.00000127    -0.00000007  0.54D-08  0.13D-07 10147.93
    6    12    12     1.09235543    -0.89787420  -261.99165325    -0.00000087    -0.00000005  0.30D-08  0.97D-08 10147.93
    7     1     1     1.09885832    -0.92685547  -262.26846699    -0.00000005    -0.00000000  0.24D-09  0.46D-09 12008.92
    7     2     2     1.09885827    -0.92685547  -262.26846699    -0.00000005    -0.00000000  0.26D-09  0.52D-09 12008.92
    7     3     3     1.09885551    -0.92685542  -262.26846694    -0.00000001    -0.00000004  0.23D-08  0.74D-08 12008.92
    7     4     4     1.09203306    -0.89724330  -261.99630581    -0.00000006    -0.00000000  0.23D-09  0.85D-09 12008.92
    7     5     5     1.09203302    -0.89724330  -261.99630581    -0.00000007    -0.00000000  0.21D-09  0.95D-09 12008.92
    7     6     6     1.09203302    -0.89724330  -261.99630581    -0.00000007    -0.00000000  0.21D-09  0.98D-09 12008.92
    7     7     7     1.09203295    -0.89724330  -261.99630581    -0.00000007    -0.00000001  0.20D-09  0.11D-08 12008.92
    7     8     8     1.09203294    -0.89724330  -261.99630581    -0.00000007    -0.00000001  0.20D-09  0.11D-08 12008.92
    7     9     9     1.09245278    -0.89913988  -261.99299697    -0.00000009    -0.00000001  0.37D-09  0.11D-08 12008.92
    7    10    10     1.09245279    -0.89921793  -261.99299697    -0.00000009    -0.00000001  0.36D-09  0.11D-08 12008.92
    7    11    11     1.09245281    -0.89921792  -261.99299697    -0.00000009    -0.00000001  0.35D-09  0.10D-08 12008.92
    7    12    12     1.09236082    -0.89787427  -261.99165331    -0.00000006    -0.00000000  0.14D-09  0.74D-09 12008.92


 =====================================
 Analysis of CPU times by interactions
 =====================================

       I      S      P

 I   0.1%
 S   0.1%   2.4%
 P   0.3%  22.8%  51.5%

 Initialization:   0.3%
 Other:           22.6%

 Total CPU:    12008.9 seconds
 =====================================



 Wavefunction saved on  5203.2

 Reference coefficients greater than 0.0500000
 =============================================
 22222222222/2000           0.0018155   0.0079852   0.9475261  -0.0000000  -0.0000000  -0.0000000   0.0000000  -0.0000000
                           -0.0006898   0.0003635  -0.0751787   0.0000000
 222222222222/000           0.9460813  -0.0529004  -0.0013670   0.0000000  -0.0000000   0.0000000   0.0000000   0.0000000
                            0.0007331   0.0751783   0.0003568  -0.0000000
 2222222222/22000           0.0528870   0.9460487  -0.0080741   0.0000000  -0.0000000  -0.0000000  -0.0000000   0.0000000
                           -0.0751760   0.0007298   0.0006933   0.0000000
 2222222222/2/0\0          -0.0000000  -0.0000000   0.0000000   0.7208429  -0.1053886   0.2330057  -0.0323356  -0.1543199
                           -0.0000000   0.0000000  -0.0000000  -0.5522321
 22222222222//00\           0.0001235   0.0005431   0.0644489   0.0000260  -0.1555363  -0.2299574   0.5094120  -0.3476093
                            0.0060399  -0.0031829   0.6582834  -0.0000000
 2222222222//2\00          -0.0001235  -0.0005431  -0.0644489   0.0000260  -0.1555364  -0.2299575   0.5094121  -0.3476093
                           -0.0060399   0.0031829  -0.6582833  -0.0000000
 2222222222/2/\00          -0.0643508   0.0035982   0.0000930  -0.0522393   0.1152692  -0.1765672  -0.3907783  -0.5074494
                            0.0064196   0.6582803   0.0031240  -0.0000000
 22222222222//0\0          -0.0643508   0.0035982   0.0000930   0.0522394  -0.1152693   0.1765673   0.3907786   0.5074498
                            0.0064195   0.6582798   0.0031240  -0.0000000
 2222222222/2/00\           0.0035973   0.0643486  -0.0005492  -0.0759455   0.4914861   0.3742692   0.2043104  -0.1681018
                            0.6582598  -0.0063905  -0.0060706  -0.0000000
 2222222222//20\0           0.0035973   0.0643486  -0.0005492   0.0759456  -0.4914862  -0.3742693  -0.2043105   0.1681018
                            0.6582597  -0.0063905  -0.0060706  -0.0000000
 22222222222//\00          -0.0000000  -0.0000000   0.0000000   0.6037263   0.3596619  -0.3223049   0.0354993   0.1043568
                            0.0000000   0.0000000  -0.0000000   0.5522323
 2222222222//200\          -0.0000000  -0.0000000   0.0000000   0.1171165  -0.4650503   0.5553104  -0.0678349  -0.2586766
                            0.0000000   0.0000000   0.0000000   0.5522323
 22222222222020/0           0.0000722   0.0003174   0.0376607  -0.0000000   0.0000000  -0.0000000   0.0000000   0.0000000
                           -0.0011252   0.0005930  -0.1226351   0.0000000
 222222222222000/           0.0376039  -0.0021026  -0.0000543   0.0000000  -0.0000000   0.0000000   0.0000000   0.0000001
                            0.0011959   0.1226345   0.0005820  -0.0000000
 2222222222022/00           0.0021021   0.0376025  -0.0003209  -0.0000000   0.0000000   0.0000000   0.0000000  -0.0000000
                           -0.1226305   0.0011905   0.0011309   0.0000000
 22222222222/\00/          -0.0000625  -0.0002748  -0.0326072   0.0000002  -0.0011103  -0.0016416   0.0036365  -0.0024815
                            0.0010207  -0.0005379   0.1112424  -0.0000000
 2222222222/\2/00          -0.0000625  -0.0002748  -0.0326071  -0.0000002   0.0011103   0.0016416  -0.0036365   0.0024814
                            0.0010207  -0.0005379   0.1112421  -0.0000000
 22222222222/\0/0          -0.0325585   0.0018205   0.0000470  -0.0003729   0.0008229  -0.0012605  -0.0027897  -0.0036226
                           -0.0010848  -0.1112418  -0.0005279   0.0000000
 2222222222/2\/00          -0.0325584   0.0018205   0.0000470   0.0003729  -0.0008229   0.0012604   0.0027896   0.0036225
                           -0.0010848  -0.1112416  -0.0005279   0.0000000
 2222222222/\20/0          -0.0018200  -0.0325573   0.0002779   0.0005422  -0.0035087  -0.0026719  -0.0014586   0.0012001
                            0.1112385  -0.0010799  -0.0010259  -0.0000000
 2222222222/2\00/          -0.0018201  -0.0325573   0.0002779  -0.0005422   0.0035086   0.0026718   0.0014585  -0.0012000
                            0.1112383  -0.0010799  -0.0010259  -0.0000000

 Coefficients of fixed reference functions:
 ==========================================

 State      Coefficients
 1           0.001827    0.053207    0.951809    0.000000    0.000000   -0.000000    0.000000   -0.000000   -0.000000   -0.000065
            -0.001891    0.033819
 2           0.008034    0.951776   -0.053221   -0.000000   -0.000000    0.000000   -0.000000   -0.000000    0.000000   -0.000285
            -0.033818   -0.001891
 3           0.953262   -0.008123   -0.001375   -0.000000   -0.000000    0.000000   -0.000000    0.000000   -0.000000   -0.033871
             0.000289   -0.000049
 4           0.000000    0.000000   -0.000000    0.036775    0.000037   -0.107454    0.073912    0.947264   -0.000000    0.000000
             0.000000    0.000000
 5          -0.000000   -0.000000    0.000000   -0.586504   -0.220065    0.695393   -0.163092    0.114387    0.000000    0.000000
            -0.000000   -0.000000
 6          -0.000000   -0.000000   -0.000000    0.683215   -0.325362    0.529546    0.249821    0.014065   -0.000000    0.000000
            -0.000000    0.000000
 7           0.000000   -0.000000   -0.000000   -0.082841    0.720756    0.289075    0.552904   -0.007162    0.000000   -0.000000
            -0.000000    0.000000
 8          -0.000000    0.000000   -0.000000   -0.310943   -0.491825   -0.237844    0.717980   -0.070911    0.000000    0.000000
             0.000000    0.000000
 9           0.000325    0.035446   -0.000346   -0.000000   -0.000000    0.000000   -0.000000    0.000000    0.000000    0.008772
             0.955966    0.009323
 10         -0.000171   -0.000344   -0.035448    0.000000   -0.000000    0.000000   -0.000000    0.000000    0.000000   -0.004622
            -0.009281    0.955995
 11          0.035448   -0.000327   -0.000168    0.000000    0.000000    0.000000    0.000000   -0.000000    0.000000    0.956000
            -0.008816    0.004537
 12          0.000000   -0.000000    0.000000    0.000000   -0.000000   -0.000000    0.000000    0.000000    0.956769   -0.000000
            -0.000000   -0.000000

 Coefficients of rotated reference functions:
 ============================================

 State      Coefficients
 1           0.953898    0.000000   -0.000000   -0.000000    0.000000   -0.000000   -0.000000   -0.000000    0.000034   -0.000737
            -0.000002   -0.000000
 2           0.000000    0.953898   -0.000000    0.000000   -0.000000   -0.000000   -0.000000    0.000000    0.000737    0.000034
            -0.000000    0.000000
 3          -0.000000   -0.000000    0.953899    0.000000   -0.000000   -0.000000    0.000000   -0.000000    0.000000   -0.000002
             0.000738    0.000000
 4          -0.000000    0.000000    0.000000    0.956907    0.000000   -0.000000    0.000000    0.000000    0.000000    0.000000
             0.000000    0.000000
 5           0.000000   -0.000000   -0.000000    0.000000    0.956907    0.000000   -0.000000   -0.000000   -0.000000   -0.000000
            -0.000000    0.000000
 6          -0.000000   -0.000000   -0.000000   -0.000000    0.000000    0.956907    0.000000    0.000000   -0.000000    0.000000
            -0.000000   -0.000000
 7          -0.000000   -0.000000    0.000000    0.000000   -0.000000    0.000000    0.956907    0.000000   -0.000000    0.000000
             0.000000    0.000000
 8          -0.000000    0.000000   -0.000000    0.000000   -0.000000    0.000000    0.000000    0.956907    0.000000    0.000000
            -0.000000    0.000000
 9           0.000034    0.000737    0.000000    0.000000   -0.000000   -0.000000   -0.000000    0.000000    0.956708    0.000000
             0.000000   -0.000000
 10         -0.000737    0.000034   -0.000002    0.000000   -0.000000    0.000000    0.000000    0.000000    0.000000    0.956708
            -0.000000    0.000000
 11         -0.000002   -0.000000    0.000738    0.000000   -0.000000   -0.000000    0.000000   -0.000000    0.000000   -0.000000
             0.956708   -0.000000
 12         -0.000000    0.000000    0.000000    0.000000    0.000000   -0.000000    0.000000    0.000000   -0.000000    0.000000
            -0.000000    0.956769


 RESULTS FOR STATE 1.2
 =====================

 Maximum overlap with reference state  3

 Coefficient of reference function:   C(0) = 0.95180898 (fixed)   0.95394224 (relaxed)   0.95389803 (rotated)

 Energy contributions of configuration classes

 CLASS          SQ.NORM        ECORR1        ECORR2
 +++++++++++++++++++++++++++++++++++++++++++++++++++
 Internals    0.00012525   -0.00012417   -0.77100853
 Singles      0.01024290   -0.03639579   -0.04175389
 Pairs        0.08862780   -0.04324051   -0.11409305
 Total        1.09899596   -0.07976047   -0.92685547
 +++++++++++++++++++++++++++++++++++++++++++++++++++


 Reference energy                    -261.34128527
 Nuclear energy                         0.00000000
 Kinetic energy                        83.55574094
 One electron energy                 -454.82430381
 Two electron energy                  192.55583683
 Virial quotient                       -3.13884437
 Correlation energy                    -0.92718172
 !MRCI STATE 1.2 Energy              -262.268466988626

 Properties without orbital relaxation:

 !MRCI STATE 1.2 Dipole moment          0.00000000     0.00000000     0.00000000
 Dipole moment /Debye                   0.00000000     0.00000000     0.00000000

 Cluster corrected energies          -262.36025423 (Davidson, fixed reference)
 Cluster corrected energies          -262.36015979 (Davidson, relaxed reference)
 Cluster corrected energies          -262.36025423 (Davidson, rotated reference)

 Cluster corrected energies          -262.36008912 (Pople, fixed reference)
 Cluster corrected energies          -262.35998656 (Pople, relaxed reference)
 Cluster corrected energies          -262.36008912 (Pople, rotated reference)



 RESULTS FOR STATE 2.2
 =====================

 Coefficient of reference function:   C(0) = 0.95177609 (fixed)   0.95394227 (relaxed)   0.95389806 (rotated)

 Energy contributions of configuration classes

 CLASS          SQ.NORM        ECORR1        ECORR2
 +++++++++++++++++++++++++++++++++++++++++++++++++++
 Internals    0.00012525   -0.00012417   -0.81255390
 Singles      0.01024297   -0.03639596   -0.04175398
 Pairs        0.08862767    0.00241781   -0.07254759
 Total        1.09899590   -0.03410232   -0.92685547
 +++++++++++++++++++++++++++++++++++++++++++++++++++


 Reference energy                    -261.34128527
 Nuclear energy                         0.00000000
 Kinetic energy                        83.55573604
 One electron energy                 -454.82429789
 Two electron energy                  192.55583091
 Virial quotient                       -3.13884455
 Correlation energy                    -0.92718172
 !MRCI STATE 2.2 Energy              -262.268466987985

 Properties without orbital relaxation:

 !MRCI STATE 2.2 Dipole moment          0.00000000     0.00000000     0.00000000
 Dipole moment /Debye                   0.00000000     0.00000000     0.00000000

 Cluster corrected energies          -262.36025418 (Davidson, fixed reference)
 Cluster corrected energies          -262.36015973 (Davidson, relaxed reference)
 Cluster corrected energies          -262.36025418 (Davidson, rotated reference)

 Cluster corrected energies          -262.36008906 (Pople, fixed reference)
 Cluster corrected energies          -262.35998650 (Pople, relaxed reference)
 Cluster corrected energies          -262.36008906 (Pople, rotated reference)



 RESULTS FOR STATE 3.2
 =====================

 Maximum overlap with reference state  1

 Coefficient of reference function:   C(0) = 0.95326235 (fixed)   0.95394346 (relaxed)   0.95389924 (rotated)

 Energy contributions of configuration classes

 CLASS          SQ.NORM        ECORR1        ECORR2
 +++++++++++++++++++++++++++++++++++++++++++++++++++
 Internals    0.00012528   -0.00012417   -0.81042061
 Singles      0.01023854   -0.03638729   -0.04174820
 Pairs        0.08862936    0.00006248   -0.07468661
 Total        1.09899318   -0.03644899   -0.92685542
 +++++++++++++++++++++++++++++++++++++++++++++++++++


 Reference energy                    -261.34128527
 Nuclear energy                         0.00000000
 Kinetic energy                        83.55600823
 One electron energy                 -454.82485873
 Two electron energy                  192.55639179
 Virial quotient                       -3.13883433
 Correlation energy                    -0.92718167
 !MRCI STATE 3.2 Energy              -262.268466938424

 Properties without orbital relaxation:

 !MRCI STATE 3.2 Dipole moment          0.00000000     0.00000000     0.00000000
 Dipole moment /Debye                   0.00000000     0.00000000     0.00000000

 Cluster corrected energies          -262.36025160 (Davidson, fixed reference)
 Cluster corrected energies          -262.36015713 (Davidson, relaxed reference)
 Cluster corrected energies          -262.36025160 (Davidson, rotated reference)

 Cluster corrected energies          -262.36008627 (Pople, fixed reference)
 Cluster corrected energies          -262.35998367 (Pople, relaxed reference)
 Cluster corrected energies          -262.36008627 (Pople, rotated reference)



 RESULTS FOR STATE 4.2
 =====================

 Maximum overlap with reference state  8

 Coefficient of reference function:   C(0) = 0.94726383 (fixed)   0.95691084 (relaxed)   0.95690675 (rotated)

 Energy contributions of configuration classes

 CLASS          SQ.NORM        ECORR1        ECORR2
 +++++++++++++++++++++++++++++++++++++++++++++++++++
 Internals    0.00005751   -0.00017494   -0.77915514
 Singles      0.01197153   -0.04638277   -0.05230486
 Pairs        0.08006682   -0.00000003   -0.06578330
 Total        1.09209586   -0.04655774   -0.89724330
 +++++++++++++++++++++++++++++++++++++++++++++++++++


 Reference energy                    -261.09906251
 Nuclear energy                         0.00000000
 Kinetic energy                        83.12093795
 One electron energy                 -448.99446240
 Two electron energy                  186.99815659
 Virial quotient                       -3.15198929
 Correlation energy                    -0.89724330
 !MRCI STATE 4.2 Energy              -261.996305806959

 Properties without orbital relaxation:

 !MRCI STATE 4.2 Dipole moment          0.00000000     0.00000000     0.00000000
 Dipole moment /Debye                   0.00000000     0.00000000     0.00000000

 Cluster corrected energies          -262.07893820 (Davidson, fixed reference)
 Cluster corrected energies          -262.07892983 (Davidson, relaxed reference)
 Cluster corrected energies          -262.07893820 (Davidson, rotated reference)

 Cluster corrected energies          -262.07828641 (Pople, fixed reference)
 Cluster corrected energies          -262.07827743 (Pople, relaxed reference)
 Cluster corrected energies          -262.07828641 (Pople, rotated reference)



 RESULTS FOR STATE 5.2
 =====================

 Maximum overlap with reference state  6

 Coefficient of reference function:   C(0) = 0.69539338 (fixed)   0.95691086 (relaxed)   0.95690677 (rotated)

 Energy contributions of configuration classes

 CLASS          SQ.NORM        ECORR1        ECORR2
 +++++++++++++++++++++++++++++++++++++++++++++++++++
 Internals    0.00005751   -0.00017494   -0.77915538
 Singles      0.01197147   -0.04638263   -0.05230477
 Pairs        0.08006683    0.00000007   -0.06578315
 Total        1.09209581   -0.04655750   -0.89724330
 +++++++++++++++++++++++++++++++++++++++++++++++++++


 Reference energy                    -261.09906251
 Nuclear energy                         0.00000000
 Kinetic energy                        83.12093797
 One electron energy                 -448.99446736
 Two electron energy                  186.99816155
 Virial quotient                       -3.15198928
 Correlation energy                    -0.89724330
 !MRCI STATE 5.2 Energy              -261.996305806367

 Properties without orbital relaxation:

 !MRCI STATE 5.2 Dipole moment          0.00000000     0.00000000     0.00000000
 Dipole moment /Debye                   0.00000000     0.00000000     0.00000000

 Cluster corrected energies          -262.07893816 (Davidson, fixed reference)
 Cluster corrected energies          -262.07892979 (Davidson, relaxed reference)
 Cluster corrected energies          -262.07893816 (Davidson, rotated reference)

 Cluster corrected energies          -262.07828636 (Pople, fixed reference)
[...]
   27    3.2  1.5  1.5   0.000%   0.000%   0.005%   0.443%   0.006%   0.487%  17.222%   0.201%   0.000%   0.001%
   28    4.2  1.5  1.5  13.990%   0.000%   0.263%   0.003%   0.290%   0.003%   0.028%   2.407%   6.808%   0.030%
   29    5.2  1.5  1.5   0.000%   5.043%   0.003%   0.267%   0.003%   0.290%   0.597%   0.007%   0.031%   6.861%
   30    6.2  1.5  1.5   1.992%   0.000%   0.059%   0.001%   0.499%   0.006%   0.023%   1.961%   1.849%   0.008%
   31    7.2  1.5  1.5   0.000%  15.843%   0.003%   0.262%   0.003%   0.285%   0.604%   0.007%   0.028%   6.215%
   32    8.2  1.5  1.5  16.733%   0.000%   0.505%   0.006%   0.058%   0.001%   0.005%   0.447%  10.549%   0.048%
   33    9.2  1.5  1.5   0.000%   0.000%  17.028%   0.203%  15.621%   0.180%   0.000%   0.000%   1.312%   0.006%
   34    1.2  1.5  0.5   0.000%   0.001%   0.002%   0.152%   0.002%   0.164%  22.957%   0.268%   0.000%   0.001%
   35    2.2  1.5  0.5   0.001%   0.000%   0.005%   0.000%   2.185%   0.025%   0.067%   5.745%   0.001%   0.000%
   36    3.2  1.5  0.5   0.000%   0.000%   2.168%   0.026%   0.018%   0.000%   0.067%   5.731%   0.000%   0.000%
   37    4.2  1.5  0.5   0.000%  17.175%   0.003%   0.288%   0.003%   0.264%   0.000%   0.000%   0.023%   5.024%
   38    5.2  1.5  0.5  18.601%   0.000%   0.288%   0.003%   0.263%   0.003%   0.021%   1.781%   5.628%   0.026%
   39    6.2  1.5  0.5   0.000%   0.016%   0.006%   0.505%   0.001%   0.057%   0.425%   0.005%   0.048%  10.723%
   40    7.2  1.5  0.5   2.690%   0.000%   0.288%   0.003%   0.265%   0.003%   0.021%   1.826%   5.309%   0.024%
   41    8.2  1.5  0.5   0.000%   7.715%   0.001%   0.057%   0.006%   0.502%   1.979%   0.023%   0.008%   1.830%
   42    9.2  1.5  0.5   0.000%   0.000%   0.187%  15.605%   0.195%  17.044%   0.000%   0.000%   0.007%   1.624%
   43    1.2  1.5 -0.5   0.001%   0.000%   0.152%   0.002%   0.164%   0.002%   0.268%  22.957%   0.001%   0.000%
   44    2.2  1.5 -0.5   0.000%   0.001%   0.000%   0.005%   0.025%   2.185%   5.745%   0.067%   0.000%   0.001%
   45    3.2  1.5 -0.5   0.000%   0.000%   0.026%   2.168%   0.000%   0.018%   5.731%   0.067%   0.000%   0.000%
   46    4.2  1.5 -0.5  17.175%   0.000%   0.288%   0.003%   0.264%   0.003%   0.000%   0.000%   5.024%   0.023%
   47    5.2  1.5 -0.5   0.000%  18.601%   0.003%   0.288%   0.003%   0.263%   1.781%   0.021%   0.026%   5.628%
   48    6.2  1.5 -0.5   0.016%   0.000%   0.505%   0.006%   0.057%   0.001%   0.005%   0.425%  10.723%   0.048%
   49    7.2  1.5 -0.5   0.000%   2.690%   0.003%   0.288%   0.003%   0.265%   1.826%   0.021%   0.024%   5.309%
   50    8.2  1.5 -0.5   7.715%   0.000%   0.057%   0.001%   0.502%   0.006%   0.023%   1.979%   1.830%   0.008%
   51    9.2  1.5 -0.5   0.000%   0.000%  15.605%   0.187%  17.044%   0.195%   0.000%   0.000%   1.624%   0.007%
   52    1.2  1.5 -1.5   0.000%   0.000%   0.018%   1.470%   0.015%   1.341%   0.000%   0.000%   0.000%   0.000%
   53    2.2  1.5 -1.5   0.000%   0.000%   0.458%   0.005%   0.492%   0.006%   0.201%  17.216%   0.009%   0.000%
   54    3.2  1.5 -1.5   0.000%   0.000%   0.443%   0.005%   0.487%   0.006%   0.201%  17.222%   0.001%   0.000%
   55    4.2  1.5 -1.5   0.000%  13.990%   0.003%   0.263%   0.003%   0.290%   2.407%   0.028%   0.030%   6.808%
   56    5.2  1.5 -1.5   5.043%   0.000%   0.267%   0.003%   0.290%   0.003%   0.007%   0.597%   6.861%   0.031%
   57    6.2  1.5 -1.5   0.000%   1.992%   0.001%   0.059%   0.006%   0.499%   1.961%   0.023%   0.008%   1.849%
   58    7.2  1.5 -1.5  15.843%   0.000%   0.262%   0.003%   0.285%   0.003%   0.007%   0.604%   6.215%   0.028%
   59    8.2  1.5 -1.5   0.000%  16.733%   0.006%   0.505%   0.001%   0.058%   0.447%   0.005%   0.048%  10.549%
   60    9.2  1.5 -1.5   0.000%   0.000%   0.203%  17.028%   0.180%  15.621%   0.000%   0.000%   0.006%   1.312%

   Nr   State  S   Sz      41       42       43       44       45       46       47       48       49       50

    1    1.2  0.5  0.5   0.009%   0.000%   0.000%   0.000%   0.000%   0.000%   0.000%   0.000%   0.000%   0.000%
    2    2.2  0.5  0.5   0.092%   0.001%   0.000%   0.000%   0.000%   0.000%   0.000%   0.000%   0.000%   0.000%
    3    3.2  0.5  0.5   0.000%   0.043%   0.000%   0.000%   0.000%   0.000%   0.000%   0.000%   0.000%   0.000%
    4    4.2  0.5  0.5   0.021%   3.037%   0.102%   0.013%   0.001%   0.045%   9.559%   0.271%  14.037%   0.447%
    5    5.2  0.5  0.5   0.161%   0.610%   3.047%   0.263%   3.754%   1.922%   0.045%   1.310%   2.972%   0.801%
    6    6.2  0.5  0.5   0.328%   0.468%   2.125%   0.593%   5.594%   0.920%   0.039%   0.960%   2.590%   1.290%
    7    7.2  0.5  0.5   1.007%   1.305%   2.372%   3.394%   2.382%   0.283%   0.723%   1.408%   5.685%   5.324%
    8    8.2  0.5  0.5   1.975%   0.471%   3.767%   1.492%   2.120%   0.195%   0.227%   2.677%   2.488%   9.335%
    9    9.2  0.5  0.5  16.771%   0.092%   0.000%   0.000%   0.000%   0.000%   0.000%   0.002%   0.000%   0.002%
   10   10.2  0.5  0.5   1.632%   0.008%   0.000%   0.000%   0.000%   0.004%   0.000%   0.000%   0.000%   0.001%
   11   11.2  0.5  0.5   0.037%   7.775%   0.000%   0.000%   0.009%   0.000%   0.001%   0.000%   0.003%   0.000%
   12   12.2  0.5  0.5   0.000%   0.000%   0.000%   0.000%   0.001%   0.000%   0.000%   0.000%   0.001%   0.000%
   13    1.2  0.5 -0.5   0.000%   0.009%   0.000%   0.000%   0.000%   0.000%   0.000%   0.000%   0.000%   0.000%
   14    2.2  0.5 -0.5   0.001%   0.092%   0.000%   0.000%   0.000%   0.000%   0.000%   0.000%   0.000%   0.000%
   15    3.2  0.5 -0.5   0.043%   0.000%   0.000%   0.000%   0.000%   0.000%   0.000%   0.000%   0.000%   0.000%
   16    4.2  0.5 -0.5   3.037%   0.021%   0.013%   0.102%   0.045%   0.001%   0.271%   9.559%   0.447%  14.037%
   17    5.2  0.5 -0.5   0.610%   0.161%   0.263%   3.047%   1.922%   3.754%   1.310%   0.045%   0.801%   2.972%
   18    6.2  0.5 -0.5   0.468%   0.328%   0.593%   2.125%   0.920%   5.594%   0.960%   0.039%   1.290%   2.590%
   19    7.2  0.5 -0.5   1.305%   1.007%   3.394%   2.372%   0.283%   2.382%   1.408%   0.723%   5.324%   5.685%
   20    8.2  0.5 -0.5   0.471%   1.975%   1.492%   3.767%   0.195%   2.120%   2.677%   0.227%   9.335%   2.488%
   21    9.2  0.5 -0.5   0.092%  16.771%   0.000%   0.000%   0.000%   0.000%   0.002%   0.000%   0.002%   0.000%
   22   10.2  0.5 -0.5   0.008%   1.632%   0.000%   0.000%   0.004%   0.000%   0.000%   0.000%   0.001%   0.000%
   23   11.2  0.5 -0.5   7.775%   0.037%   0.000%   0.000%   0.000%   0.009%   0.000%   0.001%   0.000%   0.003%
   24   12.2  0.5 -0.5   0.000%   0.000%   0.000%   0.000%   0.000%   0.001%   0.000%   0.000%   0.000%   0.001%
   25    1.2  1.5  1.5   0.000%   0.000%   7.946%   0.008%   0.005%   1.394%   0.006%   0.139%   0.058%   6.985%
   26    2.2  1.5  1.5   0.000%   0.000%   0.002%   2.111%  10.918%   0.036%   0.048%   0.001%   2.003%   0.017%
   27    3.2  1.5  1.5   0.000%   0.000%   0.002%   1.891%   6.124%   0.022%   4.927%   0.241%   1.876%   0.016%
   28    4.2  1.5  1.5   5.563%   0.035%   0.005%   0.000%   0.001%   0.607%   0.212%   4.037%   0.001%   0.161%
   29    5.2  1.5  1.5   0.034%   5.300%   0.002%   1.727%   2.678%   0.012%  18.589%   0.941%   0.218%   0.002%
   30    6.2  1.5  1.5  10.497%   0.066%   4.816%   0.005%   0.000%   0.039%   0.225%   4.384%   0.003%   0.305%
   31    7.2  1.5  1.5   0.033%   5.265%   0.002%   2.540%  18.561%   0.057%   3.255%   0.187%   0.176%   0.001%
   32    8.2  1.5  1.5   1.821%   0.011%  20.364%   0.020%   0.016%   5.068%   0.005%   0.070%   0.000%   0.056%
   33    9.2  1.5  1.5   1.639%   0.010%   0.000%   0.000%   0.000%   0.001%   0.000%   0.000%   0.141%  16.990%
   34    1.2  1.5  0.5   0.000%   0.003%   0.000%   0.021%   2.068%   0.005%  11.681%   0.614%   0.626%   0.005%
   35    2.2  1.5  0.5   0.000%   0.000%   5.613%   0.005%   0.009%   3.147%   0.101%   1.852%   0.082%   9.829%
   36    3.2  1.5  0.5   0.000%   0.000%   6.308%   0.006%   0.001%   0.122%   0.208%   4.061%   0.000%   0.010%
   37    4.2  1.5  0.5   0.041%   6.707%   0.003%   2.773%  23.985%   0.082%   3.641%   0.166%   0.250%   0.002%
   38    5.2  1.5  0.5   6.547%   0.040%   0.515%   0.001%   0.006%   2.459%   0.422%   7.985%   0.002%   0.215%
   39    6.2  1.5  0.5   0.011%   1.786%   0.020%  20.926%   4.490%   0.014%   0.002%   0.000%   0.049%   0.000%
   40    7.2  1.5  0.5   6.880%   0.042%   0.920%   0.001%   0.002%   0.827%   0.474%   9.076%   0.002%   0.211%
   41    8.2  1.5  0.5   0.065%  10.427%   0.004%   4.276%   0.013%   0.000%   4.970%   0.256%   0.330%   0.003%
   42    9.2  1.5  0.5   0.008%   1.324%   0.000%   0.000%   0.000%   0.000%   0.001%   0.000%  14.280%   0.120%
   43    1.2  1.5 -0.5   0.003%   0.000%   0.021%   0.000%   0.005%   2.068%   0.614%  11.681%   0.005%   0.626%
   44    2.2  1.5 -0.5   0.000%   0.000%   0.005%   5.613%   3.147%   0.009%   1.852%   0.101%   9.829%   0.082%
   45    3.2  1.5 -0.5   0.000%   0.000%   0.006%   6.308%   0.122%   0.001%   4.061%   0.208%   0.010%   0.000%
   46    4.2  1.5 -0.5   6.707%   0.041%   2.773%   0.003%   0.082%  23.985%   0.166%   3.641%   0.002%   0.250%
   47    5.2  1.5 -0.5   0.040%   6.547%   0.001%   0.515%   2.459%   0.006%   7.985%   0.422%   0.215%   0.002%
   48    6.2  1.5 -0.5   1.786%   0.011%  20.926%   0.020%   0.014%   4.490%   0.000%   0.002%   0.000%   0.049%
   49    7.2  1.5 -0.5   0.042%   6.880%   0.001%   0.920%   0.827%   0.002%   9.076%   0.474%   0.211%   0.002%
   50    8.2  1.5 -0.5  10.427%   0.065%   4.276%   0.004%   0.000%   0.013%   0.256%   4.970%   0.003%   0.330%
   51    9.2  1.5 -0.5   1.324%   0.008%   0.000%   0.000%   0.000%   0.000%   0.000%   0.001%   0.120%  14.280%
   52    1.2  1.5 -1.5   0.000%   0.000%   0.008%   7.946%   1.394%   0.005%   0.139%   0.006%   6.985%   0.058%
   53    2.2  1.5 -1.5   0.000%   0.000%   2.111%   0.002%   0.036%  10.918%   0.001%   0.048%   0.017%   2.003%
   54    3.2  1.5 -1.5   0.000%   0.000%   1.891%   0.002%   0.022%   6.124%   0.241%   4.927%   0.016%   1.876%
   55    4.2  1.5 -1.5   0.035%   5.563%   0.000%   0.005%   0.607%   0.001%   4.037%   0.212%   0.161%   0.001%
   56    5.2  1.5 -1.5   5.300%   0.034%   1.727%   0.002%   0.012%   2.678%   0.941%  18.589%   0.002%   0.218%
   57    6.2  1.5 -1.5   0.066%  10.497%   0.005%   4.816%   0.039%   0.000%   4.384%   0.225%   0.305%   0.003%
   58    7.2  1.5 -1.5   5.265%   0.033%   2.540%   0.002%   0.057%  18.561%   0.187%   3.255%   0.001%   0.176%
   59    8.2  1.5 -1.5   0.011%   1.821%   0.020%  20.364%   5.068%   0.016%   0.070%   0.005%   0.056%   0.000%
   60    9.2  1.5 -1.5   0.010%   1.639%   0.000%   0.000%   0.001%   0.000%   0.000%   0.000%  16.990%   0.141%

   Nr   State  S   Sz      51       52       53       54       55       56       57       58       59       60

    1    1.2  0.5  0.5   0.000%   0.000%   0.028%   0.000%   0.089%   0.000%   0.000%   0.001%   0.000%   0.000%
    2    2.2  0.5  0.5   0.000%   0.000%   0.029%   0.000%   0.088%   0.000%   0.000%   0.000%   0.000%   0.001%
    3    3.2  0.5  0.5   0.000%   0.000%   0.000%   0.028%   0.000%   0.089%   0.001%   0.000%   0.001%   0.000%
    4    4.2  0.5  0.5   3.473%   0.232%   0.000%   0.000%   0.000%   0.000%   1.040%   1.447%   9.057%   0.129%
    5    5.2  0.5  0.5   5.106%   9.058%   0.000%   0.000%   0.000%   0.000%   0.164%   9.035%   2.018%   0.442%
    6    6.2  0.5  0.5   8.871%   5.237%   0.000%   0.000%   0.000%   0.000%   9.060%   0.050%   1.493%   1.060%
    7    7.2  0.5  0.5   4.742%   2.073%   0.000%   0.000%   0.000%   0.000%   1.121%   3.294%   4.211%   3.023%
    8    8.2  0.5  0.5   4.133%   1.914%   0.000%   0.000%   0.000%   0.000%   3.940%   0.011%   1.301%   6.398%
    9    9.2  0.5  0.5   0.000%   0.000%  12.072%   0.001%   5.964%   0.001%   0.083%   0.166%   0.035%   5.599%
   10   10.2  0.5  0.5   0.000%   0.003%  12.183%   0.000%   5.994%   0.000%   1.811%   3.467%   0.003%   0.564%
   11   11.2  0.5  0.5   0.000%   0.000%   0.001%  12.129%   0.001%   5.980%   2.128%   1.127%   2.593%   0.015%
   12   12.2  0.5  0.5   0.001%   0.000%   0.000%  30.320%   0.000%  15.308%   0.000%   0.000%   0.000%   0.000%
   13    1.2  0.5 -0.5   0.000%   0.000%   0.000%   0.028%   0.000%   0.089%   0.001%   0.000%   0.000%   0.000%
   14    2.2  0.5 -0.5   0.000%   0.000%   0.000%   0.029%   0.000%   0.088%   0.000%   0.000%   0.001%   0.000%
   15    3.2  0.5 -0.5   0.000%   0.000%   0.028%   0.000%   0.089%   0.000%   0.000%   0.001%   0.000%   0.001%
   16    4.2  0.5 -0.5   0.232%   3.473%   0.000%   0.000%   0.000%   0.000%   1.447%   1.040%   0.129%   9.057%
   17    5.2  0.5 -0.5   9.058%   5.106%   0.000%   0.000%   0.000%   0.000%   9.035%   0.164%   0.442%   2.018%
   18    6.2  0.5 -0.5   5.237%   8.871%   0.000%   0.000%   0.000%   0.000%   0.050%   9.060%   1.060%   1.493%
   19    7.2  0.5 -0.5   2.073%   4.742%   0.000%   0.000%   0.000%   0.000%   3.294%   1.121%   3.023%   4.211%
   20    8.2  0.5 -0.5   1.914%   4.133%   0.000%   0.000%   0.000%   0.000%   0.011%   3.940%   6.398%   1.301%
   21    9.2  0.5 -0.5   0.000%   0.000%   0.001%  12.072%   0.001%   5.964%   0.166%   0.083%   5.599%   0.035%
   22   10.2  0.5 -0.5   0.003%   0.000%   0.000%  12.183%   0.000%   5.994%   3.467%   1.811%   0.564%   0.003%
   23   11.2  0.5 -0.5   0.000%   0.000%  12.129%   0.001%   5.980%   0.001%   1.127%   2.128%   0.015%   2.593%
   24   12.2  0.5 -0.5   0.000%   0.001%  30.320%   0.000%  15.308%   0.000%   0.000%   0.000%   0.000%   0.000%
   25    1.2  1.5  1.5   0.000%   5.938%   0.001%   0.000%   0.000%   0.000%   2.475%   4.827%   0.057%   9.073%
   26    2.2  1.5  1.5   2.281%   0.000%   0.000%   1.090%   0.000%   2.612%   2.009%   1.038%   2.410%   0.016%
   27    3.2  1.5  1.5   2.348%   0.000%   0.000%   1.027%   0.000%   2.620%   2.011%   1.039%   2.419%   0.016%
   28    4.2  1.5  1.5   0.000%   0.218%   5.797%   0.000%  11.203%   0.000%   0.881%   1.705%   0.014%   2.065%
   29    5.2  1.5  1.5   0.227%   0.000%   0.000%   1.412%   0.000%   2.806%   1.715%   0.886%   2.066%   0.014%
   30    6.2  1.5  1.5   0.000%   0.060%   4.749%   0.000%   9.177%   0.000%   0.243%   0.468%   0.026%   3.922%
   31    7.2  1.5  1.5   0.252%   0.000%   0.000%   1.490%   0.000%   2.796%   1.715%   0.886%   2.054%   0.014%
   32    8.2  1.5  1.5   0.000%   0.328%   1.044%   0.000%   2.029%   0.000%   1.338%   2.603%   0.004%   0.708%
   33    9.2  1.5  1.5   0.000%  14.426%   0.002%   0.000%   0.000%   0.000%   1.708%   3.331%   0.040%   6.260%
   34    1.2  1.5  0.5   0.734%   0.000%   0.000%   1.410%   0.000%   3.488%   0.666%   0.344%   0.813%   0.005%
   35    2.2  1.5  0.5   0.000%   0.147%   0.341%   0.000%   0.868%   0.000%   0.071%   0.133%   0.082%  12.508%
   36    3.2  1.5  0.5   0.000%  10.093%   0.367%   0.000%   0.875%   0.000%   4.339%   8.426%   0.000%   0.003%
   37    4.2  1.5  0.5   0.205%   0.000%   0.000%   0.001%   0.000%   0.000%   1.376%   0.706%   2.581%   0.016%
   38    5.2  1.5  0.5   0.000%   0.154%   4.379%   0.000%   8.379%   0.000%   0.705%   1.375%   0.016%   2.582%
   39    6.2  1.5  0.5   0.320%   0.000%   0.000%   1.036%   0.000%   2.016%   2.610%   1.342%   0.709%   0.004%
   40    7.2  1.5  0.5   0.000%   0.215%   4.307%   0.000%   8.428%   0.000%   0.704%   1.373%   0.016%   2.563%
   41    8.2  1.5  0.5   0.047%   0.000%   0.000%   4.754%   0.000%   9.192%   0.471%   0.245%   3.906%   0.026%
   42    9.2  1.5  0.5  17.161%   0.001%   0.000%   0.000%   0.000%   0.000%   4.149%   2.143%   5.013%   0.034%
   43    1.2  1.5 -0.5   0.000%   0.734%   1.410%   0.000%   3.488%   0.000%   0.344%   0.666%   0.005%   0.813%
   44    2.2  1.5 -0.5   0.147%   0.000%   0.000%   0.341%   0.000%   0.868%   0.133%   0.071%  12.508%   0.082%
   45    3.2  1.5 -0.5  10.093%   0.000%   0.000%   0.367%   0.000%   0.875%   8.426%   4.339%   0.003%   0.000%
   46    4.2  1.5 -0.5   0.000%   0.205%   0.001%   0.000%   0.000%   0.000%   0.706%   1.376%   0.016%   2.581%
   47    5.2  1.5 -0.5   0.154%   0.000%   0.000%   4.379%   0.000%   8.379%   1.375%   0.705%   2.582%   0.016%
   48    6.2  1.5 -0.5   0.000%   0.320%   1.036%   0.000%   2.016%   0.000%   1.342%   2.610%   0.004%   0.709%
   49    7.2  1.5 -0.5   0.215%   0.000%   0.000%   4.307%   0.000%   8.428%   1.373%   0.704%   2.563%   0.016%
   50    8.2  1.5 -0.5   0.000%   0.047%   4.754%   0.000%   9.192%   0.000%   0.245%   0.471%   0.026%   3.906%
   51    9.2  1.5 -0.5   0.001%  17.161%   0.000%   0.000%   0.000%   0.000%   2.143%   4.149%   0.034%   5.013%
   52    1.2  1.5 -1.5   5.938%   0.000%   0.000%   0.001%   0.000%   0.000%   4.827%   2.475%   9.073%   0.057%
   53    2.2  1.5 -1.5   0.000%   2.281%   1.090%   0.000%   2.612%   0.000%   1.038%   2.009%   0.016%   2.410%
   54    3.2  1.5 -1.5   0.000%   2.348%   1.027%   0.000%   2.620%   0.000%   1.039%   2.011%   0.016%   2.419%
   55    4.2  1.5 -1.5   0.218%   0.000%   0.000%   5.797%   0.000%  11.203%   1.705%   0.881%   2.065%   0.014%
   56    5.2  1.5 -1.5   0.000%   0.227%   1.412%   0.000%   2.806%   0.000%   0.886%   1.715%   0.014%   2.066%
   57    6.2  1.5 -1.5   0.060%   0.000%   0.000%   4.749%   0.000%   9.177%   0.468%   0.243%   3.922%   0.026%
   58    7.2  1.5 -1.5   0.000%   0.252%   1.490%   0.000%   2.796%   0.000%   0.886%   1.715%   0.014%   2.054%
   59    8.2  1.5 -1.5   0.328%   0.000%   0.000%   1.044%   0.000%   2.029%   2.603%   1.338%   0.708%   0.004%
   60    9.2  1.5 -1.5  14.426%   0.000%   0.000%   0.002%   0.000%   0.000%   3.331%   1.708%   6.260%   0.040%


 Property matrices transformed in SO basis (not sym. adapted)
 ============================================================

 No matrix element <i|DMX|i> larger than 5E-7
 No matrix element <i|DMX|1> larger than 5E-7

 No matrix element <i|DMY|i> larger than 5E-7
 No matrix element <i|DMY|1> larger than 5E-7

 No matrix element <i|DMZ|i> larger than 5E-7
 No matrix element <i|DMZ|1> larger than 5E-7


 **********************************************************************************************************************************
 DATASETS  * FILE   NREC   LENGTH (MB)   RECORD NAMES
              1      21       94.20       500      610      700      900      950      970     1000      129      960     1100   
                                          VAR    BASINP    GEOM    SYMINP    ZMAT    AOBASIS   BASIS     P2S    ABASIS      S 
                                         1400     1410     1420     1200     1210     1080     1700     1600     1650     1380   
                                           T        V       ECP      H0       H01     AOSYM    OPER      SMH    MOLCAS    JKOP   
                                         1700(1)
                                         OPER   

              2       7     8055.78       700     1000      520     2100     2140     5203     5303   
                                         GEOM     BASIS   MCVARS     RHF     MCSCF    MRCI     MRCI   

 PROGRAMS   *        TOTAL        CI        CI        CI     MULTI   RHF-SCF       INT
 CPU TIMES  *    190216.65 171667.20   5261.66  13263.83     11.95      1.42     10.16
 REAL TIME  *    193304.45 SEC
 DISK USED  *         7.96 GB (local),      128.75 GB (total)
 SF USED    *        48.64 GB
 GA USED    *         0.00 MB       (max)       0.00 MB       (current)
 **********************************************************************************************************************************

 CI/USERDEF energy=   -262.006422861139

              CI              CI           MULTI         RHF-SCF
   -261.99157440   -261.99165331   -261.09392461   -261.43915862
 **********************************************************************************************************************************
 Molpro calculation terminated with 1 warning(s)
