
 Working directory              : /wrk/irikura/molpro.aadcBu8R6t/
 Global scratch directory       : /wrk/irikura/molpro.aadcBu8R6t/
 Wavefunction directory         : /home/irikura/wfu/
 Main file repository           : /wrk/irikura/molpro.aadcBu8R6t/

 id        : nistki

 Nodes            nprocs
 pn112695.nist.gov   16
 GA implementation: MPI file
 GA implementation (serial work in mppx): MPI file

 Using customized tuning parameters: mindgm=1; mindgv=20; mindgc=4; mindgr=1; noblas=0; minvec=7
 default implementation of scratch files=sf  


 Variables initialized (1040), CPU time= 0.02 sec
 ***,At SO-CI
                                                                                 ! active space (7/7)
                                                                                 ! additional diffuse spdf functions
 memory,2000,M;
 
 gprint,orbitals,civector;
                                                                                 !gthresh,energy=1.d-10,coeff=1.d-8;
 
 symmetry,xyz
 geometry={At};
 
 basis={
 ecp,at,ECP60MDF;
 spdfghi,at,aug-cc-pwCV5Z-PP;C; spdf,1,even,nprim=1,ratio=3.0;
 }
 
 {rhf;wf,charge=-1}
 
 NDOUB=12
 NQUAR=9
 
 {multi
     occ,7,9
     closed,6,3
     wf,charge=0,sym=2,spin=1;state,NDOUB;
     wf,charge=0,sym=2,spin=3;state,NQUAR;
     expec2,lxx,lyy,lzz;
 }
 table, energy, ll
 title, Energies and &lt;L**2&gt; values
 
 core,0,0
 
 {ci;wf,sym=2,spin=1;state,NDOUB; save,5203.2}
 hlsdiag = energd4
 {ci;wf,sym=2,spin=3;state,NQUAR; save,5303.2}
 hlsdiag(NDOUB+1) = energd4
 
 table,hlsdiag
 
 {ci;hlsmat,ecp,5203.2,5303.2;print,vls=0,hls=0}                                 !compute and diagonalize SO matrix
 Commands initialized (846), CPU time= 0.01 sec, 717 directives.
 Default parameters read. Elapsed time= 0.21 sec

 Checking input...
 Passed
1


                                         ***  PROGRAM SYSTEM MOLPRO  ***
                                       Copyright, TTI GmbH Stuttgart, 2015
                                    Version 2023.2 linked Fri Sep 22 03:27:09 2023


 **********************************************************************************************************************************
 LABEL *   At SO-CI                                                                                                                                                      
  (32 PROC) 64 bit mpp version                                                           DATE: 27-Jan-25          TIME: 10:08:41  
 **********************************************************************************************************************************

 SHA1:             3c61bfe44d37c8635c785372c339f5cbdd4e4b59
 **********************************************************************************************************************************

 Memory per process:      2000 MW
 Total memory per node:  32000 MW

 GA preallocation disabled
 GA check disabled

 Variable memory set to 2000.0 MW


 ZSYMEL=XYZ

 SETTING BASIS          =    USERDEF


 Recomputing integrals since basis changed


 Using spherical harmonics

 Library entry At   ECP ECP60MDF                 selected for group  1
 Library entry AT     S AUG-CC-PWCV5Z-PP     selected for orbital group  1
 Even tempered At S diffuse               selected for group 1    nprim= 1    centre=  0.009    ratio= 3.000    dratio= 1.000
 Library entry AT     P AUG-CC-PWCV5Z-PP     selected for orbital group  1
 Even tempered At P diffuse               selected for group 1    nprim= 1    centre=  0.007    ratio= 3.000    dratio= 1.000
 Library entry AT     D AUG-CC-PWCV5Z-PP     selected for orbital group  1
 Even tempered At D diffuse               selected for group 1    nprim= 1    centre=  0.017    ratio= 3.000    dratio= 1.000
 Library entry AT     F AUG-CC-PWCV5Z-PP     selected for orbital group  1
 Even tempered At F diffuse               selected for group 1    nprim= 1    centre=  0.033    ratio= 3.000    dratio= 1.000
 Library entry AT     G AUG-CC-PWCV5Z-PP     selected for orbital group  1
 Library entry AT     H AUG-CC-PWCV5Z-PP     selected for orbital group  1
 Library entry AT     I AUG-CC-PWCV5Z-PP     selected for orbital group  1


 PROGRAM * SEWARD (Integral evaluation for generally contracted gaussian basis sets)     Author: Roland Lindh, 1990

 Geometry written to block  1 of record 700

 Orientation using atomic masses  
 Molecule type: Atom
 User-specified symmetry elements: XYZ
 Symmetry elements: XYZ
 Rotational constants:       0.0000000      0.0000000      0.0000000 GHz  (calculated with average atomic masses)

 Point group  Ci  



 ATOMIC COORDINATES

 NR  ATOM    CHARGE       X              Y              Z

   1  AT     25.00    0.000000000    0.000000000    0.000000000

 NUCLEAR CHARGE:                   25
 NUMBER OF PRIMITIVE AOS:         479
 NUMBER OF SYMMETRY AOS:          343
 NUMBER OF CONTRACTIONS:          281   (  135Ag  +  146Au  )
 NUMBER OF INNER CORE ORBITALS:     0   (    0Ag  +    0Au  )
 NUMBER OF OUTER CORE ORBITALS:     9   (    6Ag  +    3Au  )
 NUMBER OF VALENCE ORBITALS:        4   (    1Ag  +    3Au  )


 LX: Ag           LY: Ag           LZ: Ag 


 NUCLEAR REPULSION ENERGY    0.00000000

 EXTRA SYMMETRY OF AOS IN SYMMETRY 1:   1 1 1 1 1 1 1 1 1 1   1 1 1 2 3 4 5 6 2 3   4 5 6 2 3 4 5 6 2 3   4 5 6 2 3 4 5 6 2 3
                                        4 5 6 2 3 4 5 6 2 3   4 5 6 2 3 4 5 6 2 3   4 5 6 2 3 4 5 6 7 8   9101112131415 7 8 9
                                       101112131415 7 8 910  1112131415 7 8 91011  12131415 7 8 9101112  131415 7 8 910111213
                                       14151617181920212223  2425262728
 EXTRA SYMMETRY OF AOS IN SYMMETRY 2:   1 2 3 1 2 3 1 2 3 1   2 3 1 2 3 1 2 3 1 2   3 1 2 3 1 2 3 1 2 3   1 2 3 1 2 3 1 2 3 4
                                        5 6 7 8 910 4 5 6 7   8 910 4 5 6 7 8 910   4 5 6 7 8 910 4 5 6   7 8 910 4 5 6 7 8 9
                                       10 4 5 6 7 8 910 4 5   6 7 8 910 4 5 6 7 8   9101112131415161718  19202111121314151617
                                       18192021111213141516  17181920211112131415  161718192021


 Eigenvalues of metric

         1 0.745E-05 0.258E-04 0.258E-04 0.258E-04 0.258E-04 0.258E-04 0.311E-04 0.199E-03
         2 0.156E-05 0.156E-05 0.156E-05 0.212E-03 0.212E-03 0.212E-03 0.162E-02 0.162E-02


 Contracted 2-electron integrals neglected if value below      1.0D-12
 AO integral compression algorithm  1   Integral accuracy      1.0D-12

     706.216 MB (compressed) written to integral file ( 13.6%)

     Node minimum: 30.409 MB, node maximum: 64.750 MB


 NUMBER OF SORTED TWO-ELECTRON INTEGRALS:   24679576.     BUFFER LENGTH:  32768
 NUMBER OF SEGMENTS:   2  SEGMENT LENGTH:   15976936      RECORD LENGTH: 524288

 Memory used in sort:      16.53 MW

 SORT1 READ   646821870. AND WROTE     4259432. INTEGRALS IN     14 RECORDS. CPU TIME:     3.11 SEC, REAL TIME:     3.24 SEC
 SORT2 READ    68066133. AND WROTE   395255076. INTEGRALS IN   3072 RECORDS. CPU TIME:     0.50 SEC, REAL TIME:     0.55 SEC

 Node minimum:    24675847.  Node maximum:    24720811. integrals

 OPERATOR DM      FOR CENTER  0  COORDINATES:    0.000000    0.000000    0.000000


 **********************************************************************************************************************************
 DATASETS  * FILE   NREC   LENGTH (MB)   RECORD NAMES
              1      19       30.69       500      610      700      900      950      970     1000      129      960     1100   
                                          VAR    BASINP    GEOM    SYMINP    ZMAT    AOBASIS   BASIS     P2S    ABASIS      S 
                                         1400     1410     1420     1200     1210     1080     1700     1600     1650   
                                           T        V       ECP      H0       H01     AOSYM    OPER      SMH    MOLCAS    

 PROGRAMS   *        TOTAL       INT
 CPU TIMES  *        10.13      9.77
 REAL TIME  *        11.86 SEC
 DISK USED  *        31.11 MB (local),        1.89 GB (total)
 GA USED    *         0.00 MB       (max)       0.00 MB       (current)
 **********************************************************************************************************************************


 Program * Restricted Hartree-Fock

 Orbital guess generated from atomic densities.

 Initial occupancy:   7   6

 NELEC=   26   SYM=1   MS2= 0   THRE=1.0D-08   THRD=3.2D-06   THRG=3.2D-06  HFMA2=F  DIIS_START=2   DIIS_MAX=10   DIIS_INCORE=F

 Level shifts:    0.00 (CLOSED)    0.00 (OPEN)    0.30 (GAP_MIN)

 ITER           ETOT              DE          GRAD        DDIFF     DIIS  NEXP   TIME(IT)  TIME(TOT)  DIAG
   1     -261.41335624    -261.41335624     0.00D+00     0.47D-01     0     0       0.12      0.25    start
   2     -261.43614492      -0.02278868     0.27D-02     0.24D-02     1     0       0.13      0.38    diag
   3     -261.43851524      -0.00237032     0.15D-02     0.64D-03     2     0       0.12      0.50    diag
   4     -261.43904418      -0.00052894     0.29D-03     0.39D-03     3     0       0.13      0.63    diag
   5     -261.43914754      -0.00010336     0.11D-03     0.22D-03     4     0       0.13      0.76    diag
   6     -261.43915801      -0.00001048     0.27D-04     0.78D-04     5     0       0.12      0.88    diag
   7     -261.43915859      -0.00000057     0.56D-05     0.27D-04     6     0       0.13      1.01    diag
   8     -261.43915862      -0.00000003     0.12D-05     0.62D-05     7     0       0.13      1.14    fixocc
   9     -261.43915862      -0.00000000     0.25D-06     0.15D-05     8     0       0.13      1.27    diag
  10     -261.43915862      -0.00000000     0.61D-07     0.25D-06     0     0       0.13      1.40    diag/orth

 Final occupancy:   7   6

 !RHF STATE 1.1 Energy               -261.439158617971
  RHF One-electron energy            -461.393639140235
  RHF Two-electron energy             199.954480522264
  RHF Kinetic energy                   82.729366050460
  RHF Nuclear energy                    0.000000000000
  RHF Virial quotient                  -3.160173600974

 !RHF STATE 1.1 Dipole moment           0.00000000     0.00000000     0.00000000
 Dipole moment /Debye                   0.00000000     0.00000000     0.00000000

 ELECTRON ORBITALS
 =================

  Orbital  Occupation    Energy    Cen Mu Typ  Coefficients
    1.1     2.00000    -7.53203     1  1  s    1.00010
    2.1     2.00000    -1.54347     1  1  d0   0.99798
    3.1     2.00000    -1.54347     1  1  d2-  0.75388    1  1  d1- -0.65510
    4.1     2.00000    -1.54347     1  1  d2-  0.65527    1  1  d1-  0.75430
    5.1     2.00000    -1.54347     1  1  d2+  0.99767
    6.1     2.00000    -1.54347     1  1  d1+  0.99869
    7.1     2.00000    -0.67783     1  1  s   -0.44780    1  4  s    0.26077    1  5  s    0.60824    1  6  s    0.41281
                                    1 11  s   -0.25265
    1.2     2.00000    -4.82203     1  1  px   1.00062
    2.2     2.00000    -4.82203     1  1  py   1.00061
    3.2     2.00000    -4.82203     1  1  pz   1.00061
    4.2     2.00000    -0.11634     1  1  pz  -0.28718    1  4  pz   0.27773    1  5  pz   0.41990    1  6  pz   0.34151
    5.2     2.00000    -0.11634     1  1  px  -0.28718    1  4  px   0.27773    1  5  px   0.41990    1  6  px   0.34151
    6.2     2.00000    -0.11634     1  1  py  -0.28718    1  4  py   0.27773    1  5  py   0.41990    1  6  py   0.34151


 HOMO      6.2    -0.116338 =      -3.1657eV
 LUMO      7.2     0.083876 =       2.2824eV
 LUMO-HOMO         0.200214 =       5.4481eV

 Orbitals saved in record  2100.2


 **********************************************************************************************************************************
 DATASETS  * FILE   NREC   LENGTH (MB)   RECORD NAMES
              1      19       30.69       500      610      700      900      950      970     1000      129      960     1100   
                                          VAR    BASINP    GEOM    SYMINP    ZMAT    AOBASIS   BASIS     P2S    ABASIS      S 
                                         1400     1410     1420     1200     1210     1080     1700     1600     1650   
                                           T        V       ECP      H0       H01     AOSYM    OPER      SMH    MOLCAS    

              2       4        1.03       700     1000      520     2100   
                                         GEOM     BASIS   MCVARS     RHF  

 PROGRAMS   *        TOTAL   RHF-SCF       INT
 CPU TIMES  *        11.54      1.41      9.77
 REAL TIME  *        13.43 SEC
 DISK USED  *        34.43 MB (local),        1.94 GB (total)
 GA USED    *         0.00 MB       (max)       0.00 MB       (current)
 **********************************************************************************************************************************
 SETTING NDOUB          =        12.00000000                                  
 SETTING NQUAR          =         9.00000000                                  

 PROGRAM * MULTI (Direct Multiconfiguration SCF)       Authors: P.J. Knowles, H.-J. Werner (1984)
                                                                D.A. Kreplin, P.J. Knowles, H.-J. Werner (2019)

 Number of closed-shell orbitals:   9 (    6    3)
 Number of active  orbitals:        7 (    1    6)
 Number of external orbitals:     265 (  128  137)

 State symmetry 1

 Number of active electrons:   7    Spin symmetry=Doublet   Space symmetry=2
 Number of states:            12
 Number of CSFs:             420   (600 determinants, 1225 intermediate states)

 State symmetry 2

 Number of active electrons:   7    Spin symmetry=Quartet   Space symmetry=2
 Number of states:             9
 Number of CSFs:             168   (180 determinants, 441 intermediate states)

 Molecular orbitals read from record     2100.2  Type=RHF/CANONICAL  
 *** IN SYMMETRY 1 ORBITAL  2 SYMMETRY CONTAMINATION OF 0.484D-01 HAS BEEN REMOVED
 *** IN SYMMETRY 1 ORBITAL  3 SYMMETRY CONTAMINATION OF 0.481D+00 HAS BEEN REMOVED
 *** IN SYMMETRY 1 ORBITAL  4 SYMMETRY CONTAMINATION OF 0.470D+00 HAS BEEN REMOVED
 *** IN SYMMETRY 1 ORBITAL  5 SYMMETRY CONTAMINATION OF 0.794D-01 HAS BEEN REMOVED
 *** IN SYMMETRY 1 ORBITAL  6 SYMMETRY CONTAMINATION OF 0.551D-01 HAS BEEN REMOVED

 EXTRA SYMMETRY OF MOS IN SYMMETRY 1:   1 2 3 6 5 4 1 1 3 5   4 6 2 1 2 3 5 4 6 1   2 5 3 6 4 812 7 911  13101514 1 5 3 4 6 2
                                       12 8 711 910131415 5   3 4 6 2 1 7 81211 9  13101514 5 3 4 6 2 1   812 711 913101415 5
                                        3 4 6 2182024192623  22162728172125 8 712  11 915141310 1 2 5 4   3 61514 812 711 913
                                       10 1 2 4 5 3 6 2 4 5   6 3 1 1 1
 *** IN SYMMETRY 2 ORBITAL  1 SYMMETRY CONTAMINATION OF 0.469D-03 HAS BEEN REMOVED
 *** IN SYMMETRY 2 ORBITAL  2 SYMMETRY CONTAMINATION OF 0.216D-02 HAS BEEN REMOVED
 *** IN SYMMETRY 2 ORBITAL  3 SYMMETRY CONTAMINATION OF 0.175D-02 HAS BEEN REMOVED
 *** IN SYMMETRY 2 ORBITAL  4 SYMMETRY CONTAMINATION OF 0.149D-02 HAS BEEN REMOVED
 *** IN SYMMETRY 2 ORBITAL  6 SYMMETRY CONTAMINATION OF 0.149D-02 HAS BEEN REMOVED
 *** IN SYMMETRY 2 ORBITAL  7 SYMMETRY CONTAMINATION OF 0.574D-03 HAS BEEN REMOVED
 *** IN SYMMETRY 2 ORBITAL  9 SYMMETRY CONTAMINATION OF 0.574D-03 HAS BEEN REMOVED
 EXTRA SYMMETRY OF MOS IN SYMMETRY 2:   1 2 3 3 1 2 3 1 2 1   2 3 6 7 9 4 5 810 1   2 3 610 8 4 5 9 7 1   2 3 610 8 5 4 9 7 6
                                        5 410 8 9 7 1 2 319  16141112182015172113   6 5 410 8 9 7141620  1812111921131517 2 1
                                        3 6 810 5 4 9 71614  121121131820151719 8  10 6 5 4 7 9 2 1 310   8 6 7 9 5 416142113
                                       15171920181211 3 2 1  10 8 6 5 4 9 7 2 3 1   2 3 1 2 3 1

 Wavefunction dump at record             2140.2

 Convergence thresholds  0.10E-04 (gradient)  0.10E-05 (energy)

 Weight factors for state symmetry  1:    0.04762   0.04762   0.04762   0.04762   0.04762   0.04762   0.04762   0.04762
                                          0.04762   0.04762   0.04762   0.04762
 Weight factors for state symmetry  2:    0.04762   0.04762   0.04762   0.04762   0.04762   0.04762   0.04762   0.04762
                                          0.04762
 
 Number of orbital rotations:  2153  ( 24 closed/active, 1179 closed/virtual, 0 active/active, 950 active/virtual )
 Total number of variables:    10973
 
 Second-order MCSCF: L-BFGS accelerated
 
 ITER  MIC  NCI  NEG     ENERGY(VAR)    ENERGY(PROJ) ENERGY CHANGE       GRAD(0)  GRAD(ORB)   GRAD(CI)      STEP      TIME
   1   13   34    0   -261.01823166    -261.15089224   -0.13266058    0.38010613 0.00092325 0.00102254  0.12E+01      4.11
   2    8   24    0   -261.12432525    -261.13393190   -0.00960665    0.21908072 0.00006424 0.00008710  0.52E+00      8.14
   3    7   20    0   -261.13396399    -261.13396470   -0.00000071    0.00195616 0.00000010 0.00000029  0.21E-02     11.47
   4   21   45    0   -261.13396470    -261.13396470    0.00000000    0.00000026 0.00000009 0.00000000  0.54E-06     16.16

 CONVERGENCE REACHED!  Final gradient:    0.00000009 ( 0.87E-07)
                       Final energy:   -261.13396470
 
 Results for state 1.2 Doublet
 =============================
 !MCSCF STATE 1.2 Doublet Energy              -261.341799752129
 Nuclear energy                                  0.00000000
 Kinetic energy                                 83.22096988
 One electron energy                          -455.87821465
 Two electron energy                           194.53641489
 Virial ratio                                    4.14033591
 
 !MCSCF STATE 1.2 Doublet Dipole moment          0.00000000     0.00000000     0.00000000
 Dipole moment /Debye                            0.00000000     0.00000000     0.00000000
 
 Results for state 2.2 Doublet
 =============================
 !MCSCF STATE 2.2 Doublet Energy              -261.341799750647
 Nuclear energy                                  0.00000000
 Kinetic energy                                 83.22096988
 One electron energy                          -455.87821467
 Two electron energy                           194.53641492
 Virial ratio                                    4.14033590
 
 !MCSCF STATE 2.2 Doublet Dipole moment          0.00000000     0.00000000     0.00000000
 Dipole moment /Debye                            0.00000000     0.00000000     0.00000000
 
 Results for state 3.2 Doublet
 =============================
 !MCSCF STATE 3.2 Doublet Energy              -261.341799748431
 Nuclear energy                                  0.00000000
 Kinetic energy                                 83.22096989
 One electron energy                          -455.87821471
 Two electron energy                           194.53641497
 Virial ratio                                    4.14033590
 
 !MCSCF STATE 3.2 Doublet Dipole moment          0.00000000     0.00000000     0.00000000
 Dipole moment /Debye                            0.00000000     0.00000000     0.00000000
 
 Results for state 4.2 Doublet
 =============================
 !MCSCF STATE 4.2 Doublet Energy              -261.099185922995
 Nuclear energy                                  0.00000000
 Kinetic energy                                 82.39619030
 One electron energy                          -449.26691793
 Two electron energy                           188.16773201
 Virial ratio                                    4.16882595
 
 !MCSCF STATE 4.2 Doublet Dipole moment          0.00000000     0.00000000     0.00000000
 Dipole moment /Debye                            0.00000000     0.00000000     0.00000000
 
 Results for state 5.2 Doublet
 =============================
 !MCSCF STATE 5.2 Doublet Energy              -261.099185922927
 Nuclear energy                                  0.00000000
 Kinetic energy                                 82.39619030
 One electron energy                          -449.26691793
 Two electron energy                           188.16773201
 Virial ratio                                    4.16882595
 
 !MCSCF STATE 5.2 Doublet Dipole moment          0.00000000     0.00000000     0.00000000
 Dipole moment /Debye                            0.00000000     0.00000000     0.00000000
 
 Results for state 6.2 Doublet
 =============================
 !MCSCF STATE 6.2 Doublet Energy              -261.099185922641
 Nuclear energy                                  0.00000000
 Kinetic energy                                 82.39619030
 One electron energy                          -449.26691794
 Two electron energy                           188.16773202
 Virial ratio                                    4.16882595
 
 !MCSCF STATE 6.2 Doublet Dipole moment          0.00000000     0.00000000     0.00000000
 Dipole moment /Debye                            0.00000000     0.00000000     0.00000000
 
 Results for state 7.2 Doublet
 =============================
 !MCSCF STATE 7.2 Doublet Energy              -261.099185922265
 Nuclear energy                                  0.00000000
 Kinetic energy                                 82.39619030
 One electron energy                          -449.26691795
 Two electron energy                           188.16773203
 Virial ratio                                    4.16882595
 
 !MCSCF STATE 7.2 Doublet Dipole moment          0.00000000     0.00000000     0.00000000
 Dipole moment /Debye                            0.00000000     0.00000000     0.00000000
 
 Results for state 8.2 Doublet
 =============================
 !MCSCF STATE 8.2 Doublet Energy              -261.099185922229
 Nuclear energy                                  0.00000000
 Kinetic energy                                 82.39619030
 One electron energy                          -449.26691795
 Two electron energy                           188.16773203
 Virial ratio                                    4.16882595
 
 !MCSCF STATE 8.2 Doublet Dipole moment          0.00000000     0.00000000     0.00000000
 Dipole moment /Debye                            0.00000000     0.00000000     0.00000000
 
 Results for state 9.2 Doublet
 =============================
 !MCSCF STATE 9.2 Doublet Energy              -261.093875347222
 Nuclear energy                                  0.00000000
 Kinetic energy                                 82.39405646
 One electron energy                          -449.26019579
 Two electron energy                           188.16632044
 Virial ratio                                    4.16884356
 
 !MCSCF STATE 9.2 Doublet Dipole moment          0.00000000     0.00000000     0.00000000
 Dipole moment /Debye                            0.00000000     0.00000000     0.00000000
 
 Results for state 10.2 Doublet
 ==============================
 !MCSCF STATE 10.2 Doublet Energy             -261.093846164492
 Nuclear energy                                  0.00000000
 Kinetic energy                                 82.46840276
 One electron energy                          -449.57307790
 Two electron energy                           188.47923173
 Virial ratio                                    4.16598646
 
 !MCSCF STATE 10.2 Doublet Dipole moment         0.00000000     0.00000000     0.00000000
 Dipole moment /Debye                            0.00000000     0.00000000     0.00000000
 
 Results for state 11.2 Doublet
 ==============================
 !MCSCF STATE 11.2 Doublet Energy             -261.093846164317
 Nuclear energy                                  0.00000000
 Kinetic energy                                 82.46840276
 One electron energy                          -449.57307790
 Two electron energy                           188.47923174
 Virial ratio                                    4.16598646
 
 !MCSCF STATE 11.2 Doublet Dipole moment         0.00000000     0.00000000     0.00000000
 Dipole moment /Debye                            0.00000000     0.00000000     0.00000000
 
 Results for state 12.2 Doublet
 ==============================
 !MCSCF STATE 12.2 Doublet Energy             -261.093846164144
 Nuclear energy                                  0.00000000
 Kinetic energy                                 82.46840275
 One electron energy                          -449.57307791
 Two electron energy                           188.47923174
 Virial ratio                                    4.16598646
 
 !MCSCF STATE 12.2 Doublet Dipole moment         0.00000000     0.00000000     0.00000000
 Dipole moment /Debye                            0.00000000     0.00000000     0.00000000
 
 Results for state 1.2 Quartet
 =============================
 !MCSCF STATE 1.2 Quartet Energy              -261.105799604565
 Nuclear energy                                  0.00000000
 Kinetic energy                                 82.38143787
 One electron energy                          -449.21592537
 Two electron energy                           188.11012576
 Virial ratio                                    4.16947369
 
 !MCSCF STATE 1.2 Quartet Dipole moment          0.00000000     0.00000000     0.00000000
 Dipole moment /Debye                            0.00000000     0.00000000     0.00000000
 
 Results for state 2.2 Quartet
 =============================
 !MCSCF STATE 2.2 Quartet Energy              -261.105799604137
 Nuclear energy                                  0.00000000
 Kinetic energy                                 82.38143787
 One electron energy                          -449.21592537
 Two electron energy                           188.11012577
 Virial ratio                                    4.16947369
 
 !MCSCF STATE 2.2 Quartet Dipole moment          0.00000000     0.00000000     0.00000000
 Dipole moment /Debye                            0.00000000     0.00000000     0.00000000
 
 Results for state 3.2 Quartet
 =============================
 !MCSCF STATE 3.2 Quartet Energy              -261.105799603531
 Nuclear energy                                  0.00000000
 Kinetic energy                                 82.38143787
 One electron energy                          -449.21592538
 Two electron energy                           188.11012578
 Virial ratio                                    4.16947369
 
 !MCSCF STATE 3.2 Quartet Dipole moment          0.00000000     0.00000000     0.00000000
 Dipole moment /Debye                            0.00000000     0.00000000     0.00000000
 
 Results for state 4.2 Quartet
 =============================
 !MCSCF STATE 4.2 Quartet Energy              -261.101000251138
 Nuclear energy                                  0.00000000
 Kinetic energy                                 82.38680167
 One electron energy                          -449.23500587
 Two electron energy                           188.13400561
 Virial ratio                                    4.16920908
 
 !MCSCF STATE 4.2 Quartet Dipole moment          0.00000000     0.00000000     0.00000000
 Dipole moment /Debye                            0.00000000     0.00000000     0.00000000
 
 Results for state 5.2 Quartet
 =============================
 !MCSCF STATE 5.2 Quartet Energy              -261.101000251051
 Nuclear energy                                  0.00000000
 Kinetic energy                                 82.38680167
 One electron energy                          -449.23500587
 Two electron energy                           188.13400562
 Virial ratio                                    4.16920908
 
 !MCSCF STATE 5.2 Quartet Dipole moment          0.00000000     0.00000000     0.00000000
 Dipole moment /Debye                            0.00000000     0.00000000     0.00000000
 
 Results for state 6.2 Quartet
 =============================
 !MCSCF STATE 6.2 Quartet Energy              -261.101000250699
 Nuclear energy                                  0.00000000
 Kinetic energy                                 82.38680166
 One electron energy                          -449.23500587
 Two electron energy                           188.13400562
 Virial ratio                                    4.16920908
 
 !MCSCF STATE 6.2 Quartet Dipole moment          0.00000000     0.00000000     0.00000000
 Dipole moment /Debye                            0.00000000     0.00000000     0.00000000
 
 Results for state 7.2 Quartet
 =============================
 !MCSCF STATE 7.2 Quartet Energy              -261.101000250216
 Nuclear energy                                  0.00000000
 Kinetic energy                                 82.38680166
 One electron energy                          -449.23500588
 Two electron energy                           188.13400563
 Virial ratio                                    4.16920908
 
 !MCSCF STATE 7.2 Quartet Dipole moment          0.00000000     0.00000000     0.00000000
 Dipole moment /Debye                            0.00000000     0.00000000     0.00000000
 
 Results for state 8.2 Quartet
 =============================
 !MCSCF STATE 8.2 Quartet Energy              -261.101000250170
 Nuclear energy                                  0.00000000
 Kinetic energy                                 82.38680166
 One electron energy                          -449.23500588
 Two electron energy                           188.13400563
 Virial ratio                                    4.16920908
 
 !MCSCF STATE 8.2 Quartet Dipole moment          0.00000000     0.00000000     0.00000000
 Dipole moment /Debye                            0.00000000     0.00000000     0.00000000
 
 Results for state 9.2 Quartet
 =============================
 !MCSCF STATE 9.2 Quartet Energy              -261.094115931892
 Nuclear energy                                  0.00000000
 Kinetic energy                                 82.39184669
 One electron energy                          -449.25160073
 Two electron energy                           188.15748480
 Virial ratio                                    4.16893147
 
 !MCSCF STATE 9.2 Quartet Dipole moment          0.00000000     0.00000000     0.00000000
 Dipole moment /Debye                            0.00000000     0.00000000     0.00000000
 
 State-averaged charge density matrix saved on record 2140.2 (density set 1)
 
 No non-zero expectation values
 
 Expectation values for two-electron operators:
 
 ? Warning
 ? Transition properties are only calculated between states of the same symmetry
 ? The problem occurs in mu_properties_expec2

 !MCSCF expec      <1.2 Doublet|LXLX|1.2 Doublet>     0.999999999966
 !MCSCF expec      <2.2 Doublet|LXLX|2.2 Doublet>     0.000000000036
 !MCSCF expec      <3.2 Doublet|LXLX|3.2 Doublet>     1.000000000000
 !MCSCF expec      <4.2 Doublet|LXLX|4.2 Doublet>     2.155194534132
 !MCSCF expec      <5.2 Doublet|LXLX|5.2 Doublet>     1.000000006643
 !MCSCF expec      <6.2 Doublet|LXLX|6.2 Doublet>     3.999999999723
 !MCSCF expec      <7.2 Doublet|LXLX|7.2 Doublet>     1.000000007127
 !MCSCF expec      <8.2 Doublet|LXLX|8.2 Doublet>     1.844805452305
 !MCSCF expec      <9.2 Doublet|LXLX|9.2 Doublet>     0.000000000007
 !MCSCF expec    <10.2 Doublet|LXLX|10.2 Doublet>     0.999999999956
 !MCSCF expec    <11.2 Doublet|LXLX|11.2 Doublet>     0.000000000088
 !MCSCF expec    <12.2 Doublet|LXLX|12.2 Doublet>     0.999999999959
 !MCSCF expec      <1.2 Quartet|LXLX|1.2 Quartet>     0.999999999994
 !MCSCF expec      <2.2 Quartet|LXLX|2.2 Quartet>     0.000000000011
 !MCSCF expec      <3.2 Quartet|LXLX|3.2 Quartet>     0.999999999994
 !MCSCF expec      <4.2 Quartet|LXLX|4.2 Quartet>     2.181453961345
 !MCSCF expec      <5.2 Quartet|LXLX|5.2 Quartet>     1.000000000055
 !MCSCF expec      <6.2 Quartet|LXLX|6.2 Quartet>     3.999999999968
 !MCSCF expec      <7.2 Quartet|LXLX|7.2 Quartet>     0.999999999973
 !MCSCF expec      <8.2 Quartet|LXLX|8.2 Quartet>     1.818544564376
 !MCSCF expec      <9.2 Quartet|LXLX|9.2 Quartet>     0.000000000007
 
 !MCSCF expec      <1.2 Doublet|LYLY|1.2 Doublet>     0.999999999999
 !MCSCF expec      <2.2 Doublet|LYLY|2.2 Doublet>     1.000000000000
 !MCSCF expec      <3.2 Doublet|LYLY|3.2 Doublet>     0.000000000002
 !MCSCF expec      <4.2 Doublet|LYLY|4.2 Doublet>     0.195574431053
 !MCSCF expec      <5.2 Doublet|LYLY|5.2 Doublet>     0.999999994950
 !MCSCF expec      <6.2 Doublet|LYLY|6.2 Doublet>     1.000000000009
 !MCSCF expec      <7.2 Doublet|LYLY|7.2 Doublet>     3.999999998295
 !MCSCF expec      <8.2 Doublet|LYLY|8.2 Doublet>     3.804425575623
 !MCSCF expec      <9.2 Doublet|LYLY|9.2 Doublet>     0.000000000007
 !MCSCF expec    <10.2 Doublet|LYLY|10.2 Doublet>     0.999999999782
 !MCSCF expec    <11.2 Doublet|LYLY|11.2 Doublet>     0.999999999959
 !MCSCF expec    <12.2 Doublet|LYLY|12.2 Doublet>     0.000000000261
 !MCSCF expec      <1.2 Quartet|LYLY|1.2 Quartet>     0.999999999995
 !MCSCF expec      <2.2 Quartet|LYLY|2.2 Quartet>     0.999999999995
 !MCSCF expec      <3.2 Quartet|LYLY|3.2 Quartet>     0.000000000011
 !MCSCF expec      <4.2 Quartet|LYLY|4.2 Quartet>     0.184365530518
 !MCSCF expec      <5.2 Quartet|LYLY|5.2 Quartet>     0.999999999996
 !MCSCF expec      <6.2 Quartet|LYLY|6.2 Quartet>     0.999999999995
 !MCSCF expec      <7.2 Quartet|LYLY|7.2 Quartet>     3.999999999938
 !MCSCF expec      <8.2 Quartet|LYLY|8.2 Quartet>     3.815635090261
 !MCSCF expec      <9.2 Quartet|LYLY|9.2 Quartet>     0.000000000007
 
 !MCSCF expec      <1.2 Doublet|LZLZ|1.2 Doublet>     0.000000000036
 !MCSCF expec      <2.2 Doublet|LZLZ|2.2 Doublet>     0.999999999966
 !MCSCF expec      <3.2 Doublet|LZLZ|3.2 Doublet>     0.999999999999
 !MCSCF expec      <4.2 Doublet|LZLZ|4.2 Doublet>     3.649231034773
 !MCSCF expec      <5.2 Doublet|LZLZ|5.2 Doublet>     3.999999998366
 !MCSCF expec      <6.2 Doublet|LZLZ|6.2 Doublet>     1.000000000226
 !MCSCF expec      <7.2 Doublet|LZLZ|7.2 Doublet>     0.999999994535
 !MCSCF expec      <8.2 Doublet|LZLZ|8.2 Doublet>     0.350768972029
 !MCSCF expec      <9.2 Doublet|LZLZ|9.2 Doublet>     0.000000000007
 !MCSCF expec    <10.2 Doublet|LZLZ|10.2 Doublet>     0.000000000264
 !MCSCF expec    <11.2 Doublet|LZLZ|11.2 Doublet>     0.999999999956
 !MCSCF expec    <12.2 Doublet|LZLZ|12.2 Doublet>     0.999999999782
 !MCSCF expec      <1.2 Quartet|LZLZ|1.2 Quartet>     0.000000000011
 !MCSCF expec      <2.2 Quartet|LZLZ|2.2 Quartet>     0.999999999995
 !MCSCF expec      <3.2 Quartet|LZLZ|3.2 Quartet>     0.999999999994
 !MCSCF expec      <4.2 Quartet|LZLZ|4.2 Quartet>     3.634180508094
 !MCSCF expec      <5.2 Quartet|LZLZ|5.2 Quartet>     3.999999999907
 !MCSCF expec      <6.2 Quartet|LZLZ|6.2 Quartet>     0.999999999995
 !MCSCF expec      <7.2 Quartet|LZLZ|7.2 Quartet>     1.000000000047
 !MCSCF expec      <8.2 Quartet|LZLZ|8.2 Quartet>     0.365820345321
 !MCSCF expec      <9.2 Quartet|LZLZ|9.2 Quartet>     0.000000000007
 
 !MCSCF expec      <1.2 Doublet|L**2|1.2 Doublet>     2.000000000001
 !MCSCF expec      <2.2 Doublet|L**2|2.2 Doublet>     2.000000000001
 !MCSCF expec      <3.2 Doublet|L**2|3.2 Doublet>     2.000000000001
 !MCSCF expec      <4.2 Doublet|L**2|4.2 Doublet>     5.999999999958
 !MCSCF expec      <5.2 Doublet|L**2|5.2 Doublet>     5.999999999958
 !MCSCF expec      <6.2 Doublet|L**2|6.2 Doublet>     5.999999999958
 !MCSCF expec      <7.2 Doublet|L**2|7.2 Doublet>     5.999999999958
 !MCSCF expec      <8.2 Doublet|L**2|8.2 Doublet>     5.999999999958
 !MCSCF expec      <9.2 Doublet|L**2|9.2 Doublet>     0.000000000021
 !MCSCF expec    <10.2 Doublet|L**2|10.2 Doublet>     2.000000000002
 !MCSCF expec    <11.2 Doublet|L**2|11.2 Doublet>     2.000000000002
 !MCSCF expec    <12.2 Doublet|L**2|12.2 Doublet>     2.000000000002
 !MCSCF expec      <1.2 Quartet|L**2|1.2 Quartet>     2.000000000000
 !MCSCF expec      <2.2 Quartet|L**2|2.2 Quartet>     2.000000000000
 !MCSCF expec      <3.2 Quartet|L**2|3.2 Quartet>     2.000000000000
 !MCSCF expec      <4.2 Quartet|L**2|4.2 Quartet>     5.999999999958
 !MCSCF expec      <5.2 Quartet|L**2|5.2 Quartet>     5.999999999958
 !MCSCF expec      <6.2 Quartet|L**2|6.2 Quartet>     5.999999999958
 !MCSCF expec      <7.2 Quartet|L**2|7.2 Quartet>     5.999999999958
 !MCSCF expec      <8.2 Quartet|L**2|8.2 Quartet>     5.999999999958
 !MCSCF expec      <9.2 Quartet|L**2|9.2 Quartet>     0.000000000021
 
 EXTRA SYMMETRY OF MOS IN SYMMETRY 1:   1 6 2 3 5 4 1 1 6 2   4 3 5 1 6 3 5 2 4 1   6 2 5 3 411 712 8 9  14151310 1 2 6 4 5 3
                                       11 712 814151013 9 6   5 3 2 4 11113101415   812 7 9 6 5 3 2 4 1  1113101415 812 7 9 6
                                        5 3 2 4221627201824  19262317212528111310  1415 812 7 9 1 6 5 3   2 411 7 812 9141513
                                       10 1 4 6 2 5 3 2 6 4   5 3 1 1 1
 EXTRA SYMMETRY OF MOS IN SYMMETRY 2:   2 1 3 1 2 3 1 2 3 3   1 2 5 6 4 810 9 7 3   2 1 5 6 810 4 9 7 3   2 1 5 610 8 9 7 4 5
                                        610 8 9 7 4 2 3 112  19211314161517112018   5 610 8 4 9 7122018  1517161421131911 2 3
                                        1 5 810 9 7 6 42018  121517141621131911 5   810 7 9 6 4 2 3 1 5   810 6 7 9 412192113
                                       11141615172018 2 3 1   6 4 5 810 7 9 3 1 2   2 1 3 1 2 3
 
  NATURAL ORBITALS (STATE AVERAGED)
  =================================

  Orbital  Occupation    Energy    Cen Mu Typ  Coefficients
    1.1     2.00000    -7.98593     1  1  s    0.99541
    2.1     2.00000    -1.99705     1  1  d1-  1.00149
    3.1     2.00000    -1.99705     1  1  d0   1.00149
    4.1     2.00000    -1.99705     1  1  d2-  1.00149
    5.1     2.00000    -1.99705     1  1  d2+  1.00149
    6.1     2.00000    -1.99705     1  1  d1+  1.00149
    7.1     1.99986    -1.08432     1  1  s   -0.47860    1  4  s    0.26914    1  5  s    0.70824    1  6  s    0.39811
                                    1 11  s   -0.27018
    1.2     2.00000    -5.27631     1  1  py   1.00016
    2.2     2.00000    -5.27631     1  1  px   1.00016
    3.2     2.00000    -5.27631     1  1  pz   1.00016
    4.2     1.38041    -0.41909     1  1  px  -0.32724    1  4  px   0.33239    1  5  px   0.54211    1  6  px   0.30166
    5.2     1.38041    -0.41909     1  1  py  -0.32724    1  4  py   0.33239    1  5  py   0.54211    1  6  py   0.30166
    6.2     1.38041    -0.41909     1  1  pz  -0.32724    1  4  pz   0.33239    1  5  pz   0.54211    1  6  pz   0.30166
    7.2     0.28630     0.00826     1 12  px   0.78633    1 13  px   0.36541
    8.2     0.28630     0.00826     1 12  py   0.78633    1 13  py   0.36541
    9.2     0.28630     0.00826     1 12  pz   0.78633    1 13  pz   0.36541
 
 Natural orbital dump (state averaged) at molpro section 2140.2 (Orbital set 2)
 
 Transform the CI vectors
 
 CI Coefficients of symmetry 2 (Doublet)
 =======================================

 State:              1               2               3               4               5               6               7
 2 22a000       0.98897590     -0.00000579      0.00000084     -0.00000000     -0.00000002     -0.00000000     -0.00000000
 2 a22000       0.00000579      0.98897590      0.00000041     -0.00000000      0.00000000     -0.00000003     -0.00000000
 2 2a2000      -0.00000084     -0.00000041      0.98897590      0.00000000      0.00000000     -0.00000000     -0.00000001
 2 a2a0b0       0.00000000      0.00000000      0.00000000      0.64989661     -0.00005549     -0.00000473     -0.00001362
 2 aa200b       0.00000000     -0.00000000     -0.00000000      0.19733776     -0.00001327      0.00000029     -0.00005812
 2 a2a00b       0.00000044      0.07599986      0.00000003      0.00000458     -0.00000139      0.57711244      0.00000032
 2 a2ab00      -0.07599986      0.00000044     -0.00000006     -0.00005007     -0.57711238     -0.00000139     -0.00000023
 2 2aa00b      -0.00000006     -0.00000003      0.07599986      0.00000016     -0.00000023     -0.00000032      0.57711235
 2 aa2b00       0.00000006      0.00000003     -0.07599986      0.00000016     -0.00000023     -0.00000032      0.57711224
 2 2aa0b0      -0.07599986      0.00000044     -0.00000006      0.00005007      0.57711221      0.00000139      0.00000023
 2 aa20b0       0.00000044      0.07599987      0.00000003     -0.00000458      0.00000139     -0.57711216     -0.00000032
 2 2aab00      -0.00000000     -0.00000000     -0.00000000      0.45255874     -0.00004222     -0.00000502      0.00004449
 2 ba20a0      -0.00000008     -0.01340657     -0.00000001      0.00000232     -0.00000070      0.29164062      0.00000016
 2 2ab0a0       0.01340657     -0.00000008      0.00000001     -0.00002530     -0.29164066     -0.00000070     -0.00000011
 2 ab2a00      -0.00000001     -0.00000001      0.01340657     -0.00000008      0.00000011      0.00000016     -0.29164067
 2 2ba00a       0.00000001      0.00000001     -0.01340657     -0.00000008      0.00000011      0.00000016     -0.29164074
 2 a2ba00       0.01340657     -0.00000008      0.00000001      0.00002530      0.29164076      0.00000070      0.00000011
 2 b2a00a      -0.00000008     -0.01340657     -0.00000001     -0.00000232      0.00000070     -0.29164080     -0.00000016
 2 a2b0a0      -0.00000000     -0.00000000     -0.00000000     -0.32631241      0.00002790      0.00000240      0.00000626
 2 b2a0a0      -0.00000000     -0.00000000     -0.00000000     -0.32358419      0.00002759      0.00000234      0.00000736
 2 ab200a      -0.00000000      0.00000000      0.00000000     -0.09277646      0.00000611     -0.00000020      0.00002922
 2 ba200a       0.00000000      0.00000000      0.00000000     -0.10456130      0.00000716     -0.00000009      0.00002889
 2 a2b00a      -0.00000037     -0.06259329     -0.00000003     -0.00000227      0.00000069     -0.28547164     -0.00000016
 2 b2aa00       0.06259329     -0.00000037      0.00000005      0.00002477      0.28547162      0.00000069      0.00000011
 2 2ab00a       0.00000005      0.00000003     -0.06259329     -0.00000008      0.00000011      0.00000016     -0.28547161
 2 ba2a00      -0.00000005     -0.00000003      0.06259329     -0.00000008      0.00000011      0.00000016     -0.28547157
 2 2ba0a0       0.06259329     -0.00000037      0.00000005     -0.00002477     -0.28547156     -0.00000069     -0.00000011
 2 ab20a0      -0.00000037     -0.06259329     -0.00000003      0.00000227     -0.00000069      0.28547154      0.00000016
 2 2baa00       0.00000000     -0.00000000      0.00000000     -0.22175106      0.00002074      0.00000249     -0.00002263
 2 2aba00       0.00000000      0.00000000      0.00000000     -0.23080768      0.00002148      0.00000253     -0.00002186
 2 2020a0      -0.00000004     -0.00000002      0.04266363      0.00000000      0.00000000      0.00000000     -0.00000001
 2 022a00       0.00000025      0.04266363      0.00000002     -0.00000000      0.00000000     -0.00000003     -0.00000000
 2 22000a       0.04266363     -0.00000025      0.00000004     -0.00000000     -0.00000002     -0.00000000     -0.00000000
 
 Energy:     -261.34179975   -261.34179975   -261.34179975   -261.09918592   -261.09918592   -261.09918592   -261.09918592

 State:              8               9              10              11              12
 2 22a000       0.00000000     -0.00000000      0.11433271      0.00000073     -0.00000167
 2 a22000       0.00000000      0.00000000      0.00000073     -0.11433271      0.00000070
 2 2a2000      -0.00000000     -0.00000000     -0.00000167     -0.00000070     -0.11433271
 2 a2a0b0       0.14735192     -0.47128569     -0.00000000     -0.00000000      0.00000000
 2 aa200b       0.63650286      0.47128580      0.00000000      0.00000000     -0.00000000
 2 a2a00b      -0.00000168     -0.00000000     -0.00000356      0.55886053     -0.00000342
 2 a2ab00       0.00000349     -0.00000000      0.55886059      0.00000356     -0.00000818
 2 2aa00b       0.00005264      0.00000000      0.00000818      0.00000342      0.55886062
 2 aa2b00       0.00005264     -0.00000000     -0.00000818     -0.00000342     -0.55886074
 2 2aa0b0      -0.00000349     -0.00000000      0.55886076      0.00000356     -0.00000818
 2 aa20b0       0.00000168     -0.00000000     -0.00000356      0.55886082     -0.00000342
 2 2aab00      -0.48915102      0.47128575      0.00000000      0.00000000     -0.00000000
 2 ba20a0      -0.00000085      0.00000000      0.00000232     -0.36380339      0.00000223
 2 2ab0a0       0.00000177      0.00000000     -0.36380336     -0.00000232      0.00000532
 2 ab2a00      -0.00002660      0.00000000      0.00000532      0.00000223      0.36380334
 2 2ba00a      -0.00002660     -0.00000000     -0.00000532     -0.00000223     -0.36380328
 2 a2ba00      -0.00000177      0.00000000     -0.36380327     -0.00000232      0.00000532
 2 b2a00a       0.00000085      0.00000000      0.00000232     -0.36380324      0.00000223
 2 a2b0a0      -0.06765955      0.23564284      0.00000000      0.00000000     -0.00000000
 2 b2a0a0      -0.07969238      0.23564284      0.00000000      0.00000000     -0.00000000
 2 ab200a      -0.32007828     -0.23564290     -0.00000000     -0.00000000      0.00000000
 2 ba200a      -0.31642458     -0.23564290     -0.00000000     -0.00000000      0.00000000
 2 a2b00a       0.00000083      0.00000000      0.00000124     -0.19505729      0.00000119
 2 b2aa00      -0.00000173      0.00000000     -0.19505732     -0.00000124      0.00000285
 2 2ab00a      -0.00002604     -0.00000000     -0.00000285     -0.00000119     -0.19505734
 2 ba2a00      -0.00002604      0.00000000      0.00000285      0.00000119      0.19505739
 2 2ba0a0       0.00000173      0.00000000     -0.19505740     -0.00000124      0.00000285
 2 ab20a0      -0.00000083      0.00000000      0.00000124     -0.19505743      0.00000119
 2 2baa00       0.24876507     -0.23564288     -0.00000000     -0.00000000      0.00000000
 2 2aba00       0.24038595     -0.23564288     -0.00000000     -0.00000000      0.00000000
 2 2020a0      -0.00000000     -0.00000000     -0.00000200     -0.00000084     -0.13656800
 2 022a00       0.00000000      0.00000000      0.00000087     -0.13656799      0.00000084
 2 22000a       0.00000000     -0.00000000      0.13656799      0.00000087     -0.00000200
 
 Energy:     -261.09918592   -261.09387535   -261.09384616   -261.09384616   -261.09384616
 
 
 CI Coefficients of symmetry 2 (Quartet)
 =======================================

 State:              1               2               3               4               5               6               7
 2 a2a0a0      -0.00000000      0.00000000     -0.00000000      0.79733110     -0.00000014     -0.00000002     -0.00000085
 2 aa200a       0.00000000     -0.00000000     -0.00000000      0.24688156     -0.00000006     -0.00000001     -0.00000338
 2 a2a00a       0.00000028      0.70700109      0.00000000     -0.00000002      0.00000317     -0.70699420     -0.00000000
 2 a2aa00       0.70700103     -0.00000028      0.00000005      0.00000012      0.70699425      0.00000317     -0.00000047
 2 2aa00a       0.00000005     -0.00000000     -0.70700101      0.00000009      0.00000047      0.00000000      0.70699427
 2 aa2a00      -0.00000005      0.00000000      0.70700090      0.00000009      0.00000047      0.00000000      0.70699438
 2 2aa0a0       0.70700088     -0.00000028      0.00000005     -0.00000012     -0.70699440     -0.00000317      0.00000047
 2 aa20a0       0.00000028      0.70700083     -0.00000000      0.00000002     -0.00000317      0.70699446      0.00000000
 2 2aaa00       0.00000000     -0.00000000     -0.00000000      0.55044942     -0.00000007     -0.00000001      0.00000253
 
 Energy:     -261.10579960   -261.10579960   -261.10579960   -261.10100025   -261.10100025   -261.10100025   -261.10100025

 State:              8               9
 2 a2a0a0       0.17526502     -0.57716905
 2 aa200a       0.77814142      0.57716917
 2 a2a00a      -0.00000000      0.00000000
 2 a2aa00       0.00000002     -0.00000000
 2 2aa00a       0.00000304     -0.00000000
 2 aa2a00       0.00000304     -0.00000000
 2 2aa0a0      -0.00000002     -0.00000000
 2 aa20a0       0.00000000      0.00000000
 2 2aaa00      -0.60287649      0.57716912
 
 Energy:     -261.10100025   -261.09411593
 


 **********************************************************************************************************************************
 DATASETS  * FILE   NREC   LENGTH (MB)   RECORD NAMES
              1      21       94.20       500      610      700      900      950      970     1000      129      960     1100   
                                          VAR    BASINP    GEOM    SYMINP    ZMAT    AOBASIS   BASIS     P2S    ABASIS      S 
                                         1400     1410     1420     1200     1210     1080     1700     1600     1650     1380   
                                           T        V       ECP      H0       H01     AOSYM    OPER      SMH    MOLCAS    JKOP   
                                         1700(1)
                                         OPER   

              2       5        2.66       700     1000      520     2100     2140   
                                         GEOM     BASIS   MCVARS     RHF     MCSCF   

 PROGRAMS   *        TOTAL     MULTI   RHF-SCF       INT
 CPU TIMES  *        24.75     13.20      1.41      9.77
 REAL TIME  *        31.65 SEC
 DISK USED  *        96.98 MB (local),        2.92 GB (total)
 SF USED    *       167.15 MB
 GA USED    *         0.00 MB       (max)       0.00 MB       (current)
 **********************************************************************************************************************************

 Energies and &lt;L**2&gt; values

         ENERGY     LL
    -261.3417998   2.0
    -261.3417998   2.0
    -261.3417997   2.0
    -261.0991859   6.0
    -261.0991859   6.0
    -261.0991859   6.0
    -261.0991859   6.0
    -261.0991859   6.0
    -261.0938753   0.0
    -261.0938462   2.0
    -261.0938462   2.0
    -261.0938462   2.0
    -261.1057996   2.0
    -261.1057996   2.0
    -261.1057996   2.0
    -261.1010003   6.0
    -261.1010003   6.0
    -261.1010003   6.0
    -261.1010003   6.0
    -261.1010003   6.0
    -261.0941159   0.0
                                                  


 PROGRAM * CI (Multireference internally contracted CI)     Authors: H.-J. Werner, P.J. Knowles, 1987


 Convergence thresholds:  THRVAR = 1.00D-08  THRDEN = 1.00D-06

 Number of optimized states: 12  Roots:   1   2   3   4   5   6   7   8   9  10  11  12
 Number of reference states: 12  Roots:   1   2   3   4   5   6   7   8   9  10  11  12

 Reference symmetry:                   2   Doublet 
 Number of electrons:                 25
 Maximum number of shells:             6
 Maximum number of spin couplings:   132

 Reference space:      252 conf      420 CSFs
 N elec internal:    15576 conf    58240 CSFs
 N-1 el internal:    19959 conf   132244 CSFs
 N-2 el internal:    14819 conf   136456 CSFs

 Number of electrons in valence space:                     25
 Maximum number of open shell orbitals in reference space:  5
 Maximum number of open shell orbitals in internal spaces: 11


 Number of closed-shell orbitals:   9 (   6   3 )
 Number of active  orbitals:        7 (   1   6 )
 Number of external orbitals:     265 ( 128 137 )

 Molecular orbitals read from record     2140.2  Type=MCSCF/NATURAL (state averaged)

 Valence orbitals related to previous ones by unitary transformation. Operators transformed.


 Number of p-space configurations:  30

 Reference wavefunction optimized for reference space (refopt=1)

 State     Reference Energy 
     1      -261.34179975
     2      -261.34179975
     3      -261.34179975
     4      -261.09918592
     5      -261.09918592
     6      -261.09918592
     7      -261.09918592
     8      -261.09918592
     9      -261.09387535
    10      -261.09384616
    11      -261.09384616
    12      -261.09384616

 ?WARNING: SMALL EIGENVALUE OF PAIR OVERLAP MATRIX:  0.1007D-06

 ?WARNING: SMALL EIGENVALUE OF PAIR OVERLAP MATRIX:  0.1174D-06

 Number of blocks in overlap matrix:  1216   Smallest eigenvalue:  0.10D-06
 Number of N-2 electron functions:    2959
 Number of N-1 electron functions:  132244

 Number of internal configurations:                29358
 Number of singly external configurations:      17524724
 Number of doubly external configurations:      51960215
 Total number of contracted configurations:     69514297
 Total number of uncontracted configurations: 2410902056

 Diagonal Coupling coefficients finished.               Storage:  34336546 words, CPU-Time:    184.71 seconds.
 Energy denominators for pairs finished in 1 passes.    Storage:   4558846 words, CPU-time:      9.87 seconds.

  ITER. STATE  ROOT     SQ.NORM     CORR.ENERGY   TOTAL ENERGY   ENERGY CHANGE       DEN1      VAR(S)    VAR(P)      TIME
    1     1     1     1.00000000     0.00000000  -261.34179975     0.00000000    -1.10839245  0.46D-01  0.12D+00   208.84
    1     2     2     1.00000000     0.00000000  -261.34179975     0.00000000    -1.10852744  0.46D-01  0.12D+00   208.84
    1     3     3     1.00000000     0.00000000  -261.34179975    -0.00000000    -1.10832750  0.46D-01  0.12D+00   208.84
    1     4     4     1.00000000     0.00000000  -261.09918592     0.00000000    -1.06908428  0.31D-01  0.12D+00   208.84
    1     5     5     1.00000000     0.00000000  -261.09918592    -0.00000000    -1.06648530  0.31D-01  0.12D+00   208.84
    1     6     6     1.00000000     0.00000000  -261.09918592     0.00000000    -1.06667687  0.31D-01  0.12D+00   208.84
    1     7     7     1.00000000     0.00000000  -261.09918592    -0.00000000    -1.06652217  0.31D-01  0.12D+00   208.84
    1     8     8     1.00000000     0.00000000  -261.09918592     0.00000000    -1.06904871  0.31D-01  0.12D+00   208.84
    1     9     9     1.00000000     0.00000000  -261.09387535     0.00000000    -1.07007684  0.32D-01  0.12D+00   208.84
    1    10    10     1.00000000     0.00000000  -261.09384616     0.00000000    -1.07590937  0.38D-01  0.12D+00   208.84
    1    11    11     1.00000000     0.00000000  -261.09384616    -0.00000000    -1.07589326  0.38D-01  0.12D+00   208.84
    1    12    12     1.00000000     0.00000000  -261.09384616     0.00000000    -1.07595728  0.38D-01  0.12D+00   208.84
    2     1     1     1.11073560    -0.89400036  -262.23580011    -0.89400036    -0.03226623  0.63D-02  0.21D-02  3692.87
    2     2     2     1.11071205    -0.89393504  -262.23573480    -0.89393504    -0.03231211  0.63D-02  0.21D-02  3692.87
    2     3     3     1.11070874    -0.89388135  -262.23568109    -0.89388135    -0.03236408  0.63D-02  0.21D-02  3692.87
    2     4     4     1.10050839    -0.87363979  -261.97282571    -0.87363979    -0.02433283  0.23D-02  0.20D-02  3692.87
    2     5     5     1.10052491    -0.87360512  -261.97279105    -0.87360512    -0.02437249  0.23D-02  0.20D-02  3692.87
    2     6     6     1.10058223    -0.87358621  -261.97277213    -0.87358621    -0.02440449  0.24D-02  0.20D-02  3692.87
    2     7     7     1.10092480    -0.87310117  -261.97228709    -0.87310117    -0.02495378  0.23D-02  0.22D-02  3692.87
    2     8     8     1.10093748    -0.87303718  -261.97222310    -0.87303718    -0.02502494  0.23D-02  0.22D-02  3692.87
    2     9     9     1.10151677    -0.87343805  -261.96731340    -0.87343805    -0.02515440  0.23D-02  0.22D-02  3692.87
    2    10    10     1.10426586    -0.87298363  -261.96682979    -0.87298363    -0.02712050  0.38D-02  0.21D-02  3692.87
    2    11    11     1.10428890    -0.87295688  -261.96680305    -0.87295688    -0.02714892  0.38D-02  0.21D-02  3692.87
    2    12    12     1.10427631    -0.87293696  -261.96678312    -0.87293696    -0.02716350  0.39D-02  0.21D-02  3692.87
    3     1     1     1.09708338    -0.92560282  -262.26740258    -0.03160247    -0.00091905  0.88D-04  0.12D-03  7179.96
    3     2     2     1.09705519    -0.92558819  -262.26738795    -0.03165315    -0.00092813  0.88D-04  0.13D-03  7179.96
    3     3     3     1.09704091    -0.92558143  -262.26738117    -0.03170008    -0.00093141  0.88D-04  0.13D-03  7179.96
    3     4     4     1.09125778    -0.89668664  -261.99587257    -0.02304685    -0.00044727  0.35D-04  0.64D-04  7179.96
    3     5     5     1.09124480    -0.89668560  -261.99587153    -0.02308048    -0.00044696  0.34D-04  0.64D-04  7179.96
    3     6     6     1.09124267    -0.89668311  -261.99586903    -0.02309690    -0.00044904  0.35D-04  0.65D-04  7179.96
    3     7     7     1.09126919    -0.89667867  -261.99586459    -0.02357750    -0.00045271  0.33D-04  0.66D-04  7179.96
    3     8     8     1.09125680    -0.89667180  -261.99585773    -0.02363463    -0.00045720  0.34D-04  0.67D-04  7179.96
    3     9     9     1.09202377    -0.89857968  -261.99245503    -0.02514163    -0.00051636  0.54D-04  0.69D-04  7179.96
    3    10    10     1.09202379    -0.89860647  -261.99245263    -0.02562284    -0.00051794  0.54D-04  0.70D-04  7179.96
    3    11    11     1.09201356    -0.89860339  -261.99244956    -0.02564651    -0.00051991  0.54D-04  0.70D-04  7179.96
    3    12    12     1.09157747    -0.89729107  -261.99113724    -0.02435412    -0.00047487  0.37D-04  0.70D-04  7179.96
    4     1     1     1.09797693    -0.92668100  -262.26848075    -0.00107817    -0.00008256  0.44D-05  0.12D-04 10660.74
    4     2     2     1.09796353    -0.92667861  -262.26847836    -0.00109042    -0.00008428  0.45D-05  0.12D-04 10660.74
    4     3     3     1.09795766    -0.92667744  -262.26847719    -0.00109602    -0.00008502  0.46D-05  0.12D-04 10660.74
    4     4     4     1.09162990    -0.89722209  -261.99640801    -0.00053544    -0.00004639  0.20D-05  0.78D-05 10660.74
    4     5     5     1.09163161    -0.89722184  -261.99640776    -0.00053623    -0.00004605  0.20D-05  0.78D-05 10660.74
    4     6     6     1.09162925    -0.89722153  -261.99640745    -0.00053842    -0.00004632  0.20D-05  0.78D-05 10660.74
    4     7     7     1.09162729    -0.89722117  -261.99640709    -0.00054250    -0.00004658  0.20D-05  0.79D-05 10660.74
    4     8     8     1.09162229    -0.89722035  -261.99640627    -0.00054855    -0.00004732  0.20D-05  0.80D-05 10660.74
    4     9     9     1.09211282    -0.89917833  -261.99305368    -0.00059865    -0.00004680  0.27D-05  0.78D-05 10660.74
    4    10    10     1.09211071    -0.89920690  -261.99305307    -0.00060043    -0.00004712  0.27D-05  0.79D-05 10660.74
    4    11    11     1.09210693    -0.89920643  -261.99305260    -0.00060304    -0.00004741  0.27D-05  0.79D-05 10660.74
    4    12    12     1.09194058    -0.89786859  -261.99171475    -0.00057752    -0.00004861  0.21D-05  0.80D-05 10660.74
    5     1     1     1.09880831    -0.92678127  -262.26858102    -0.00010027    -0.00000711  0.31D-06  0.10D-05 14148.99
    5     2     2     1.09880703    -0.92678103  -262.26858078    -0.00010242    -0.00000728  0.31D-06  0.10D-05 14148.99
    5     3     3     1.09880665    -0.92678091  -262.26858066    -0.00010347    -0.00000737  0.32D-06  0.11D-05 14148.99
    5     4     4     1.09208311    -0.89728490  -261.99647082    -0.00006281    -0.00000498  0.28D-06  0.75D-06 14148.99
    5     5     5     1.09208235    -0.89728455  -261.99647048    -0.00006272    -0.00000520  0.29D-06  0.79D-06 14148.99
    5     6     6     1.09208727    -0.89728449  -261.99647041    -0.00006296    -0.00000517  0.28D-06  0.79D-06 14148.99
    5     7     7     1.09208715    -0.89728443  -261.99647035    -0.00006326    -0.00000522  0.29D-06  0.80D-06 14148.99
    5     8     8     1.09208741    -0.89728442  -261.99647035    -0.00006407    -0.00000519  0.28D-06  0.79D-06 14148.99
    5     9     9     1.09250470    -0.89924152  -261.99311687    -0.00006319    -0.00000546  0.32D-06  0.85D-06 14148.99
    5    10    10     1.09250451    -0.89927062  -261.99311679    -0.00006372    -0.00000553  0.32D-06  0.87D-06 14148.99
    5    11    11     1.09250423    -0.89927055  -261.99311671    -0.00006412    -0.00000557  0.33D-06  0.87D-06 14148.99
    5    12    12     1.09241724    -0.89793387  -261.99178004    -0.00006528    -0.00000480  0.27D-06  0.71D-06 14148.99
    6     1     1     1.09888868    -0.92678991  -262.26858966    -0.00000864    -0.00000065  0.31D-07  0.92D-07 17642.74
    6     2     2     1.09888795    -0.92678988  -262.26858963    -0.00000885    -0.00000067  0.32D-07  0.95D-07 17642.74
    6     3     3     1.09888764    -0.92678987  -262.26858961    -0.00000896    -0.00000068  0.32D-07  0.97D-07 17642.74
    6     4     4     1.09212666    -0.89729114  -261.99647706    -0.00000624    -0.00000057  0.22D-07  0.94D-07 17642.74
    6     5     5     1.09212746    -0.89729107  -261.99647700    -0.00000652    -0.00000061  0.23D-07  0.10D-06 17642.74
    6     6     6     1.09212714    -0.89729107  -261.99647699    -0.00000658    -0.00000062  0.24D-07  0.10D-06 17642.74
    6     7     7     1.09212680    -0.89729106  -261.99647699    -0.00000664    -0.00000059  0.23D-07  0.98D-07 17642.74
    6     8     8     1.09212716    -0.89729102  -261.99647694    -0.00000660    -0.00000062  0.24D-07  0.10D-06 17642.74
    6     9     9     1.09255332    -0.89924853  -261.99312388    -0.00000701    -0.00000065  0.26D-07  0.11D-06 17642.74
    6    10    10     1.09255325    -0.89927769  -261.99312386    -0.00000707    -0.00000066  0.26D-07  0.11D-06 17642.74
    6    11    11     1.09255335    -0.89927768  -261.99312385    -0.00000714    -0.00000064  0.26D-07  0.10D-06 17642.74
    6    12    12     1.09246134    -0.89793980  -261.99178597    -0.00000593    -0.00000050  0.19D-07  0.83D-07 17642.74
    7     1     1     1.09890973    -0.92679070  -262.26859045    -0.00000079    -0.00000008  0.70D-08  0.10D-07 21140.02
    7     2     2     1.09890942    -0.92679069  -262.26859045    -0.00000081    -0.00000008  0.73D-08  0.10D-07 21140.02
    7     3     3     1.09890929    -0.92679069  -262.26859044    -0.00000083    -0.00000008  0.74D-08  0.11D-07 21140.02
    7     4     4     1.09214124    -0.89729190  -261.99647782    -0.00000076    -0.00000009  0.74D-08  0.13D-07 21140.02
    7     5     5     1.09214086    -0.89729188  -261.99647781    -0.00000081    -0.00000010  0.81D-08  0.14D-07 21140.02
    7     6     6     1.09214101    -0.89729188  -261.99647780    -0.00000081    -0.00000010  0.80D-08  0.14D-07 21140.02
    7     7     7     1.09214081    -0.89729183  -261.99647775    -0.00000077    -0.00000010  0.80D-08  0.14D-07 21140.02
    7     8     8     1.09214127    -0.89729183  -261.99647775    -0.00000081    -0.00000009  0.70D-08  0.13D-07 21140.02
    7     9     9     1.09256886    -0.89924937  -261.99312472    -0.00000084    -0.00000010  0.84D-08  0.14D-07 21140.02
    7    10    10     1.09256887    -0.89927854  -261.99312471    -0.00000085    -0.00000010  0.86D-08  0.14D-07 21140.02
    7    11    11     1.09256885    -0.89927851  -261.99312467    -0.00000082    -0.00000009  0.82D-08  0.14D-07 21140.02
    7    12    12     1.09247632    -0.89794046  -261.99178662    -0.00000066    -0.00000007  0.58D-08  0.11D-07 21140.02
    8     1     1     1.09891439    -0.92679079  -262.26859054    -0.00000009    -0.00000001  0.58D-09  0.15D-08 24631.95
    8     2     2     1.09891426    -0.92679079  -262.26859054    -0.00000009    -0.00000001  0.60D-09  0.15D-08 24631.95
    8     3     3     1.09891416    -0.92679079  -262.26859054    -0.00000010    -0.00000001  0.61D-09  0.16D-08 24631.95
    8     4     4     1.09214020    -0.89729201  -261.99647794    -0.00000012    -0.00000002  0.76D-09  0.25D-08 24631.95
    8     5     5     1.09214010    -0.89729201  -261.99647793    -0.00000012    -0.00000002  0.80D-09  0.27D-08 24631.95
    8     6     6     1.09214011    -0.89729200  -261.99647793    -0.00000012    -0.00000002  0.81D-09  0.26D-08 24631.95
    8     7     7     1.09214008    -0.89729196  -261.99647788    -0.00000012    -0.00000002  0.80D-09  0.27D-08 24631.95
    8     8     8     1.09214027    -0.89729194  -261.99647786    -0.00000011    -0.00000001  0.70D-09  0.23D-08 24631.95
    8     9     9     1.09256693    -0.89924949  -261.99312484    -0.00000012    -0.00000002  0.88D-09  0.27D-08 24631.95
    8    10    10     1.09256688    -0.89927867  -261.99312483    -0.00000012    -0.00000002  0.90D-09  0.27D-08 24631.95
    8    11    11     1.09256697    -0.89927862  -261.99312479    -0.00000012    -0.00000002  0.86D-09  0.26D-08 24631.95
    8    12    12     1.09247568    -0.89794055  -261.99178671    -0.00000009    -0.00000001  0.61D-09  0.18D-08 24631.95


 =====================================
 Analysis of CPU times by interactions
 =====================================

       I      S      P

 I   0.1%
 S   0.1%  11.2%
 P   0.2%  33.5%  39.5%

 Initialization:   0.8%
 Other:           14.6%

 Total CPU:    24632.0 seconds
 =====================================



 Wavefunction saved on  5203.2

 Reference coefficients greater than 0.0500000
 =============================================
 222222222222/000           0.9474157   0.0131305  -0.0075485  -0.0000000   0.0000000   0.0000000   0.0000003  -0.0000000
                            0.0001147  -0.0000883   0.0744539  -0.0000000
 2222222222/22000           0.0068074   0.0526868   0.9460464  -0.0000000  -0.0000000  -0.0000001   0.0000000   0.0000000
                            0.0006959  -0.0744507  -0.0000894   0.0000000
 22222222222/2000          -0.0135296   0.9459797  -0.0525857   0.0000000  -0.0000001   0.0000000  -0.0000000   0.0000000
                           -0.0744507  -0.0006960   0.0001139   0.0000000
 2222222222//200\           0.0000000  -0.0000000  -0.0000000   0.7691055   0.0001512  -0.0195480   0.0022376   0.1337789
                            0.0000000  -0.0000000  -0.0000000  -0.5521876
 2222222222/2/0\0           0.0000000  -0.0000000  -0.0000000   0.2686742   0.0003557  -0.0094907  -0.0004204   0.7331612
                            0.0000000   0.0000001   0.0000002   0.5521927
 2222222222/2/\00          -0.0641599  -0.0008892   0.0005112  -0.0021710  -0.0000764   0.0001012   0.6762780   0.0011846
                            0.0010138  -0.0007803   0.6577961  -0.0000001
 22222222222//0\0          -0.0641599  -0.0008892   0.0005112   0.0021709   0.0000765  -0.0001012  -0.6762730  -0.0011847
                            0.0010138  -0.0007803   0.6578013  -0.0000002
 22222222222//00\          -0.0009162   0.0640626  -0.0035612  -0.0008162   0.6756272  -0.0297003   0.0000789  -0.0004131
                            0.6577701   0.0061491  -0.0010065  -0.0000001
 2222222222//2\00           0.0009162  -0.0640626   0.0035612  -0.0008161   0.6756266  -0.0297002   0.0000789  -0.0004130
                           -0.6577708  -0.0061491   0.0010064  -0.0000000
 2222222222/2/00\           0.0004610   0.0035680   0.0640671   0.0167078   0.0297128   0.6754161  -0.0000487   0.0026060
                           -0.0061479   0.6577699   0.0007897  -0.0000000
 2222222222//20\0           0.0004610   0.0035680   0.0640672  -0.0167078  -0.0297128  -0.6754146   0.0000486  -0.0026060
                           -0.0061479   0.6577715   0.0007898  -0.0000001
 22222222222//\00           0.0000000  -0.0000000  -0.0000000  -0.5004309   0.0002043   0.0100574  -0.0026579   0.5993917
                           -0.0000000  -0.0000000  -0.0000001  -0.5521851
 222222222222000/           0.0389447   0.0005397  -0.0003103  -0.0000000   0.0000000   0.0000000   0.0000006  -0.0000000
                            0.0001974  -0.0001519   0.1280938  -0.0000000
 2222222222022/00           0.0002798   0.0021658   0.0388884  -0.0000000   0.0000000  -0.0000001   0.0000000   0.0000000
                            0.0011972  -0.1280884  -0.0001538   0.0000000
 22222222222020/0          -0.0005561   0.0388856  -0.0021616   0.0000000  -0.0000001   0.0000000   0.0000000   0.0000000
                           -0.1280883  -0.0011974   0.0001960   0.0000000
 22222222222/\0/0          -0.0323946  -0.0004490   0.0002581  -0.0000135  -0.0000005   0.0000006   0.0042213   0.0000074
                           -0.0001731   0.0001332  -0.1123254   0.0000000
 2222222222/2\/00          -0.0323946  -0.0004490   0.0002581   0.0000136   0.0000005  -0.0000006  -0.0042221  -0.0000074
                           -0.0001731   0.0001332  -0.1123253   0.0000000
 2222222222/\20/0          -0.0002328  -0.0018015  -0.0323476  -0.0001043  -0.0001855  -0.0042164   0.0000003  -0.0000163
                           -0.0010498   0.1123208   0.0001349  -0.0000000
 2222222222/2\00/          -0.0002328  -0.0018015  -0.0323477   0.0001043   0.0001855   0.0042166  -0.0000003   0.0000163
                           -0.0010498   0.1123207   0.0001349  -0.0000000
 22222222222/\00/           0.0004626  -0.0323455   0.0017980  -0.0000051   0.0042177  -0.0001854   0.0000005  -0.0000026
                            0.1123207   0.0010500  -0.0001719  -0.0000000
 2222222222/\2/00           0.0004626  -0.0323455   0.0017980   0.0000051  -0.0042177   0.0001854  -0.0000005   0.0000026
                            0.1123206   0.0010500  -0.0001719  -0.0000000

 Coefficients of fixed reference functions:
 ==========================================

 State      Coefficients
 1           0.953156    0.006849   -0.013612    0.000000   -0.000000   -0.000000    0.000000   -0.000000   -0.000000    0.033812
            -0.000243    0.000483
 2           0.013210    0.053006    0.951711   -0.000000    0.000000   -0.000000   -0.000000   -0.000000    0.000000    0.000469
            -0.001880   -0.033760
 3          -0.007594    0.951778   -0.052904   -0.000000   -0.000000   -0.000000    0.000000    0.000000    0.000000   -0.000269
            -0.033763    0.001877
 4           0.000000    0.000000   -0.000000    0.122455   -0.003072    0.023640   -0.001155    0.948700   -0.000000   -0.000000
             0.000000   -0.000000
 5          -0.000000   -0.000000   -0.000000    0.000433   -0.000108    0.042041    0.955944    0.000060    0.000000    0.000000
            -0.000000    0.000000
 6          -0.000000    0.000000   -0.000000   -0.006710    0.000143    0.955644   -0.042023   -0.022997   -0.000000    0.000000
             0.000001   -0.000000
 7          -0.000000   -0.000000    0.000000   -0.001268    0.956861   -0.000069    0.000112    0.003264   -0.000000    0.000004
            -0.000000    0.000000
 8           0.000000   -0.000000   -0.000000    0.948975    0.001676    0.003687   -0.000584   -0.122577   -0.000006   -0.000000
            -0.000000   -0.000000
 9          -0.000055   -0.000331    0.035399    0.000000   -0.000000    0.000000   -0.000000    0.000000    0.000000    0.001473
            -0.008935    0.955967
 10          0.000042    0.035399    0.000331    0.000000    0.000000   -0.000001    0.000000    0.000000    0.000000   -0.001134
             0.955968    0.008937
 11         -0.035400    0.000043   -0.000054    0.000000   -0.000004   -0.000000   -0.000000    0.000000    0.000000    0.956008
             0.001148   -0.001463
 12          0.000000   -0.000000   -0.000000    0.000006    0.000000    0.000000   -0.000000   -0.000001    0.956721   -0.000000
            -0.000000   -0.000000

 Coefficients of rotated reference functions:
 ============================================

 State      Coefficients
 1           0.953877   -0.000000    0.000000   -0.000000    0.000000   -0.000000   -0.000000   -0.000000   -0.000012    0.000006
            -0.000742    0.000000
 2          -0.000000    0.953877    0.000000    0.000000   -0.000000   -0.000000   -0.000000   -0.000000    0.000741    0.000048
            -0.000011    0.000000
 3           0.000000    0.000000    0.953877   -0.000000    0.000000   -0.000000    0.000000    0.000000   -0.000048    0.000741
             0.000007   -0.000000
 4          -0.000000    0.000000   -0.000000    0.956868    0.000000    0.000000   -0.000000    0.000000    0.000000   -0.000000
             0.000000   -0.000000
 5           0.000000   -0.000000    0.000000    0.000000    0.956868   -0.000000   -0.000000   -0.000000   -0.000000   -0.000000
             0.000000   -0.000000
 6          -0.000000   -0.000000   -0.000000    0.000000   -0.000000    0.956868   -0.000000   -0.000000    0.000000   -0.000000
            -0.000000    0.000000
 7          -0.000000   -0.000000    0.000000   -0.000000   -0.000000   -0.000000    0.956868    0.000000    0.000000    0.000000
             0.000000    0.000000
 8          -0.000000   -0.000000    0.000000    0.000000   -0.000000   -0.000000    0.000000    0.956868    0.000000    0.000000
             0.000000    0.000000
 9          -0.000012    0.000741   -0.000048    0.000000   -0.000000    0.000000    0.000000    0.000000    0.956665   -0.000000
            -0.000000   -0.000000
 10          0.000006    0.000048    0.000741   -0.000000   -0.000000   -0.000000    0.000000    0.000000   -0.000000    0.956665
             0.000000   -0.000000
 11         -0.000742   -0.000011    0.000007    0.000000    0.000000   -0.000000    0.000000    0.000000   -0.000000    0.000000
             0.956665   -0.000000
 12          0.000000    0.000000   -0.000000   -0.000000   -0.000000    0.000000    0.000000    0.000000   -0.000000   -0.000000
            -0.000000    0.956721


 RESULTS FOR STATE 1.2
 =====================

 Coefficient of reference function:   C(0) = 0.95315561 (fixed)   0.95392634 (relaxed)   0.95387670 (rotated)

 Energy contributions of configuration classes

 CLASS          SQ.NORM        ECORR1        ECORR2
 +++++++++++++++++++++++++++++++++++++++++++++++++++
 Internals    0.00011896   -0.00006748   -0.80959329
 Singles      0.01029631   -0.03650377   -0.04189900
 Pairs        0.08862985   -0.00061772   -0.07529850
 Total        1.09904511   -0.03718897   -0.92679079
 +++++++++++++++++++++++++++++++++++++++++++++++++++


 Reference energy                    -261.34147431
 Nuclear energy                         0.00000000
 Kinetic energy                        83.55428084
 One electron energy                 -454.81607674
 Two electron energy                  192.54748620
 Virial quotient                       -3.13890070
 Correlation energy                    -0.92711624
 !MRCI STATE 1.2 Energy              -262.268590543558

 Properties without orbital relaxation:

 !MRCI STATE 1.2 Dipole moment          0.00000000     0.00000000     0.00000000
 Dipole moment /Debye                   0.00000000     0.00000000     0.00000000

 Cluster corrected energies          -262.36041687 (Davidson, fixed reference)
 Cluster corrected energies          -262.36031084 (Davidson, relaxed reference)
 Cluster corrected energies          -262.36041687 (Davidson, rotated reference)

 Cluster corrected energies          -262.36025570 (Pople, fixed reference)
 Cluster corrected energies          -262.36014054 (Pople, relaxed reference)
 Cluster corrected energies          -262.36025570 (Pople, rotated reference)



 RESULTS FOR STATE 2.2
 =====================

 Maximum overlap with reference state  3

 Coefficient of reference function:   C(0) = 0.95171096 (fixed)   0.95392639 (relaxed)   0.95387676 (rotated)

 Energy contributions of configuration classes

 CLASS          SQ.NORM        ECORR1        ECORR2
 +++++++++++++++++++++++++++++++++++++++++++++++++++
 Internals    0.00011896   -0.00006748   -0.84945372
 Singles      0.01029629   -0.03650374   -0.04189898
 Pairs        0.08862973    0.04319055   -0.03543808
 Total        1.09904498    0.00661933   -0.92679079
 +++++++++++++++++++++++++++++++++++++++++++++++++++


 Reference energy                    -261.34147430
 Nuclear energy                         0.00000000
 Kinetic energy                        83.55428036
 One electron energy                 -454.81607588
 Two electron energy                  192.54748534
 Virial quotient                       -3.13890072
 Correlation energy                    -0.92711623
 !MRCI STATE 2.2 Energy              -262.268590539406

 Properties without orbital relaxation:

 !MRCI STATE 2.2 Dipole moment          0.00000000     0.00000000     0.00000000
 Dipole moment /Debye                   0.00000000     0.00000000     0.00000000

 Cluster corrected energies          -262.36041675 (Davidson, fixed reference)
 Cluster corrected energies          -262.36031071 (Davidson, relaxed reference)
 Cluster corrected energies          -262.36041675 (Davidson, rotated reference)

 Cluster corrected energies          -262.36025556 (Pople, fixed reference)
 Cluster corrected energies          -262.36014041 (Pople, relaxed reference)
 Cluster corrected energies          -262.36025556 (Pople, rotated reference)



 RESULTS FOR STATE 3.2
 =====================

 Maximum overlap with reference state  2

 Coefficient of reference function:   C(0) = 0.95177804 (fixed)   0.95392643 (relaxed)   0.95387680 (rotated)

 Energy contributions of configuration classes

 CLASS          SQ.NORM        ECORR1        ECORR2
 +++++++++++++++++++++++++++++++++++++++++++++++++++
 Internals    0.00011896   -0.00006748   -0.80797105
 Singles      0.01029626   -0.03650369   -0.04189895
 Pairs        0.08862967   -0.00240090   -0.07692079
 Total        1.09904489   -0.03897207   -0.92679079
 +++++++++++++++++++++++++++++++++++++++++++++++++++


 Reference energy                    -261.34147431
 Nuclear energy                         0.00000000
 Kinetic energy                        83.55428141
 One electron energy                 -454.81607768
 Two electron energy                  192.54748714
 Virial quotient                       -3.13890068
 Correlation energy                    -0.92711623
 !MRCI STATE 3.2 Energy              -262.268590538504

 Properties without orbital relaxation:

 !MRCI STATE 3.2 Dipole moment          0.00000000     0.00000000     0.00000000
 Dipole moment /Debye                   0.00000000     0.00000000     0.00000000

 Cluster corrected energies          -262.36041666 (Davidson, fixed reference)
 Cluster corrected energies          -262.36031063 (Davidson, relaxed reference)
 Cluster corrected energies          -262.36041666 (Davidson, rotated reference)

 Cluster corrected energies          -262.36025547 (Pople, fixed reference)
 Cluster corrected energies          -262.36014031 (Pople, relaxed reference)
 Cluster corrected energies          -262.36025547 (Pople, rotated reference)



 RESULTS FOR STATE 4.2
 =====================

 Maximum overlap with reference state  8

 Coefficient of reference function:   C(0) = 0.94869959 (fixed)   0.95687395 (relaxed)   0.95686763 (rotated)

 Energy contributions of configuration classes

 CLASS          SQ.NORM        ECORR1        ECORR2
 +++++++++++++++++++++++++++++++++++++++++++++++++++
 Internals    0.00004118   -0.00010700   -0.77901093
 Singles      0.01204527   -0.04650480   -0.05247874
 Pairs        0.08009872    0.00000002   -0.06580235
 Total        1.09218517   -0.04661177   -0.89729201
 +++++++++++++++++++++++++++++++++++++++++++++++++++


 Reference energy                    -261.09918592
 Nuclear energy                         0.00000000
 Kinetic energy                        83.12150984
 One electron energy                 -449.00007040
 Two electron energy                  187.00359246
 Virial quotient                       -3.15196967
 Correlation energy                    -0.89729201
 !MRCI STATE 4.2 Energy              -261.996477936263

 Properties without orbital relaxation:

 !MRCI STATE 4.2 Dipole moment          0.00000000     0.00000000     0.00000000
 Dipole moment /Debye                   0.00000000     0.00000000     0.00000000

 Cluster corrected energies          -262.07919495 (Davidson, fixed reference)
 Cluster corrected energies          -262.07918201 (Davidson, relaxed reference)
 Cluster corrected energies          -262.07919495 (Davidson, rotated reference)

 Cluster corrected energies          -262.07854898 (Pople, fixed reference)
 Cluster corrected energies          -262.07853509 (Pople, relaxed reference)
 Cluster corrected energies          -262.07854898 (Pople, rotated reference)



 RESULTS FOR STATE 5.2
 =====================

[...]
   27    3.2  1.5  1.5   0.001%   0.000%   0.000%   0.064%   0.187%   2.546%   0.000%   0.000%   0.000%   0.000%
   28    4.2  1.5  1.5   0.000%  10.972%   0.520%   0.001%   0.011%   0.001%   0.638%   0.001%  11.226%   0.378%
   29    5.2  1.5  1.5   0.000%   2.161%   0.520%   0.001%   0.011%   0.001%   0.634%   0.001%  11.271%   0.379%
   30    6.2  1.5  1.5   6.923%   0.000%   0.001%   0.522%   0.001%   0.011%   0.003%   2.478%   0.399%  11.887%
   31    7.2  1.5  1.5   7.429%   0.000%   0.001%   0.539%   0.000%   0.003%   0.003%   2.353%   0.394%  12.197%
   32    8.2  1.5  1.5  13.165%   0.000%   0.000%   0.003%   0.037%   0.499%   0.000%   0.127%   0.009%   0.050%
   33    9.2  1.5  1.5   0.000%   0.000%   0.000%   0.754%   2.222%  30.315%   0.000%   0.000%   0.001%   0.085%
   34    1.2  1.5  0.5   0.000%   0.000%   0.003%   1.541%   0.039%   0.573%   0.008%   5.780%   0.000%   0.001%
   35    2.2  1.5  0.5   0.002%   0.000%   0.003%   0.909%   0.089%   1.165%   0.008%   5.802%   0.000%   0.000%
   36    3.2  1.5  0.5   0.000%   0.001%   0.309%   0.001%   0.006%   0.001%  23.054%   0.031%   0.005%   0.000%
   37    4.2  1.5  0.5   6.427%   0.000%   0.000%   0.012%   0.035%   0.484%   0.003%   1.908%   0.003%   0.299%
   38    5.2  1.5  0.5  29.897%   0.001%   0.000%   0.012%   0.036%   0.488%   0.003%   1.882%   0.005%   0.416%
   39    6.2  1.5  0.5   0.000%  15.755%   0.013%   0.000%   0.488%   0.036%   0.000%   0.000%   0.365%   0.004%
   40    7.2  1.5  0.5   0.000%   0.523%   0.003%   0.000%   0.502%   0.037%   0.138%   0.000%   0.037%   0.008%
   41    8.2  1.5  0.5   0.000%   6.516%   0.543%   0.001%   0.003%   0.000%   2.411%   0.003%  12.202%   0.393%
   42    9.2  1.5  0.5   0.000%   0.000%  32.445%   0.078%   0.688%   0.067%   0.000%   0.000%   2.745%   0.092%
   43    1.2  1.5 -0.5   0.000%   0.000%   1.541%   0.003%   0.573%   0.039%   5.780%   0.008%   0.001%   0.000%
   44    2.2  1.5 -0.5   0.000%   0.002%   0.909%   0.003%   1.165%   0.089%   5.802%   0.008%   0.000%   0.000%
   45    3.2  1.5 -0.5   0.001%   0.000%   0.001%   0.309%   0.001%   0.006%   0.031%  23.054%   0.000%   0.005%
   46    4.2  1.5 -0.5   0.000%   6.427%   0.012%   0.000%   0.484%   0.035%   1.908%   0.003%   0.299%   0.003%
   47    5.2  1.5 -0.5   0.001%  29.897%   0.012%   0.000%   0.488%   0.036%   1.882%   0.003%   0.416%   0.005%
   48    6.2  1.5 -0.5  15.755%   0.000%   0.000%   0.013%   0.036%   0.488%   0.000%   0.000%   0.004%   0.365%
   49    7.2  1.5 -0.5   0.523%   0.000%   0.000%   0.003%   0.037%   0.502%   0.000%   0.138%   0.008%   0.037%
   50    8.2  1.5 -0.5   6.516%   0.000%   0.001%   0.543%   0.000%   0.003%   0.003%   2.411%   0.393%  12.202%
   51    9.2  1.5 -0.5   0.000%   0.000%   0.078%  32.445%   0.067%   0.688%   0.000%   0.000%   0.092%   2.745%
   52    1.2  1.5 -1.5   0.000%   0.000%   0.002%   0.910%   0.002%   0.020%   0.023%  17.291%   0.000%   0.000%
   53    2.2  1.5 -1.5   0.000%   0.000%   0.002%   0.911%   0.002%   0.018%   0.023%  17.273%   0.000%   0.000%
   54    3.2  1.5 -1.5   0.000%   0.001%   0.064%   0.000%   2.546%   0.187%   0.000%   0.000%   0.000%   0.000%
   55    4.2  1.5 -1.5  10.972%   0.000%   0.001%   0.520%   0.001%   0.011%   0.001%   0.638%   0.378%  11.226%
   56    5.2  1.5 -1.5   2.161%   0.000%   0.001%   0.520%   0.001%   0.011%   0.001%   0.634%   0.379%  11.271%
   57    6.2  1.5 -1.5   0.000%   6.923%   0.522%   0.001%   0.011%   0.001%   2.478%   0.003%  11.887%   0.399%
   58    7.2  1.5 -1.5   0.000%   7.429%   0.539%   0.001%   0.003%   0.000%   2.353%   0.003%  12.197%   0.394%
   59    8.2  1.5 -1.5   0.000%  13.165%   0.003%   0.000%   0.499%   0.037%   0.127%   0.000%   0.050%   0.009%
   60    9.2  1.5 -1.5   0.000%   0.000%   0.754%   0.000%  30.315%   2.222%   0.000%   0.000%   0.085%   0.001%

   Nr   State  S   Sz      41       42       43       44       45       46       47       48       49       50

    1    1.2  0.5  0.5   0.000%   0.003%   0.000%   0.000%   0.000%   0.000%   0.000%   0.000%   0.000%   0.000%
    2    2.2  0.5  0.5   0.056%   0.003%   0.000%   0.000%   0.000%   0.000%   0.000%   0.000%   0.000%   0.000%
    3    3.2  0.5  0.5   0.083%   0.004%   0.000%   0.000%   0.000%   0.000%   0.000%   0.000%   0.000%   0.000%
    4    4.2  0.5  0.5   0.016%   0.369%   0.003%   0.000%   0.023%   8.777%   1.053%   0.044%   0.002%   1.865%
    5    5.2  0.5  0.5   1.392%   0.061%   4.705%   0.968%   4.814%   0.032%   0.062%   0.003%   6.948%   0.000%
    6    6.2  0.5  0.5   0.387%   0.028%   4.646%   0.957%   1.305%   0.005%   0.570%   3.130%   2.378%   0.000%
    7    7.2  0.5  0.5   0.164%   3.210%   1.002%   4.873%   0.072%   1.040%   2.725%   0.826%   0.001%  17.500%
    8    8.2  0.5  0.5   0.160%   3.092%   0.001%   0.002%   0.142%   1.002%   6.887%   1.913%   0.001%  16.417%
    9    9.2  0.5  0.5   9.642%   0.531%   0.000%   0.000%   0.003%   0.000%   0.000%   0.003%   0.005%   0.000%
   10   10.2  0.5  0.5  14.628%   0.702%   0.000%   0.000%   0.002%   0.000%   0.000%   0.001%   0.004%   0.000%
   11   11.2  0.5  0.5   0.011%   0.479%   0.000%   0.000%   0.000%   0.002%   0.001%   0.000%   0.000%   0.000%
   12   12.2  0.5  0.5   0.000%   0.000%   0.000%   0.000%   0.000%   0.001%   0.000%   0.000%   0.000%   0.000%
   13    1.2  0.5 -0.5   0.003%   0.000%   0.000%   0.000%   0.000%   0.000%   0.000%   0.000%   0.000%   0.000%
   14    2.2  0.5 -0.5   0.003%   0.056%   0.000%   0.000%   0.000%   0.000%   0.000%   0.000%   0.000%   0.000%
   15    3.2  0.5 -0.5   0.004%   0.083%   0.000%   0.000%   0.000%   0.000%   0.000%   0.000%   0.000%   0.000%
   16    4.2  0.5 -0.5   0.369%   0.016%   0.000%   0.003%   8.777%   0.023%   0.044%   1.053%   1.865%   0.002%
   17    5.2  0.5 -0.5   0.061%   1.392%   0.968%   4.705%   0.032%   4.814%   0.003%   0.062%   0.000%   6.948%
   18    6.2  0.5 -0.5   0.028%   0.387%   0.957%   4.646%   0.005%   1.305%   3.130%   0.570%   0.000%   2.378%
   19    7.2  0.5 -0.5   3.210%   0.164%   4.873%   1.002%   1.040%   0.072%   0.826%   2.725%  17.500%   0.001%
   20    8.2  0.5 -0.5   3.092%   0.160%   0.002%   0.001%   1.002%   0.142%   1.913%   6.887%  16.417%   0.001%
   21    9.2  0.5 -0.5   0.531%   9.642%   0.000%   0.000%   0.000%   0.003%   0.003%   0.000%   0.000%   0.005%
   22   10.2  0.5 -0.5   0.702%  14.628%   0.000%   0.000%   0.000%   0.002%   0.001%   0.000%   0.000%   0.004%
   23   11.2  0.5 -0.5   0.479%   0.011%   0.000%   0.000%   0.002%   0.000%   0.000%   0.001%   0.000%   0.000%
   24   12.2  0.5 -0.5   0.000%   0.000%   0.000%   0.000%   0.001%   0.000%   0.000%   0.000%   0.000%   0.000%
   25    1.2  1.5  1.5   0.000%   0.000%   0.363%   1.764%   0.161%   5.977%   3.488%   1.388%   0.000%   0.083%
   26    2.2  1.5  1.5   0.000%   0.002%   0.366%   1.783%   0.144%   0.264%   8.497%   2.126%   0.000%   0.113%
   27    3.2  1.5  1.5   0.000%   0.000%   6.486%   1.335%   0.349%   0.025%   0.292%   0.965%  12.712%   0.001%
   28    4.2  1.5  1.5   0.011%   0.410%   0.396%   1.924%   0.146%   2.156%  16.508%   3.172%   0.000%   0.007%
   29    5.2  1.5  1.5   0.008%   0.334%   0.376%   1.827%   0.203%  20.362%   0.738%   0.872%   0.000%   0.018%
   30    6.2  1.5  1.5   0.345%   0.008%   0.000%   0.000%   3.717%   0.006%   0.079%   1.092%   0.006%   0.000%
   31    7.2  1.5  1.5   0.044%   0.009%   1.088%   0.224%   2.639%   0.007%   0.243%   2.006%   0.003%   0.000%
   32    8.2  1.5  1.5  11.855%   0.589%  19.623%   4.037%   2.275%   0.081%   0.777%   2.160%   0.340%   0.000%
   33    9.2  1.5  1.5   2.728%   0.139%   0.000%   0.000%   0.001%   0.000%   0.000%   0.000%  30.742%   0.002%
   34    1.2  1.5  0.5   0.000%   0.000%   4.919%   1.012%   4.719%   0.030%   0.065%   0.001%   2.785%   0.000%
   35    2.2  1.5  0.5   0.001%   0.000%   4.858%   0.999%   1.201%   0.019%   0.514%   3.080%   5.790%   0.000%
   36    3.2  1.5  0.5   0.000%   0.000%   0.000%   0.000%   0.018%  10.929%   3.194%   0.231%   0.000%   0.029%
   37    4.2  1.5  0.5  11.364%   0.580%   0.598%   0.123%   9.086%   0.018%   0.069%   1.589%   0.364%   0.000%
   38    5.2  1.5  0.5  11.572%   0.592%   0.574%   0.119%   6.907%   0.012%   0.315%   3.220%   0.366%   0.000%
   39    6.2  1.5  0.5   0.568%  11.146%   0.428%   2.080%   0.432%   6.095%  16.517%   4.996%   0.000%   0.429%
   40    7.2  1.5  0.5   0.595%  11.935%   4.131%  20.084%   0.070%   2.112%   1.790%   0.655%   0.000%   0.359%
   41    8.2  1.5  0.5   0.009%   0.047%   0.226%   1.097%   0.007%   2.611%   1.915%   0.228%   0.000%   0.002%
   42    9.2  1.5  0.5   0.002%   0.086%   0.000%   0.000%   0.000%   0.000%   0.001%   0.000%   0.000%   0.726%
   43    1.2  1.5 -0.5   0.000%   0.000%   1.012%   4.919%   0.030%   4.719%   0.001%   0.065%   0.000%   2.785%
   44    2.2  1.5 -0.5   0.000%   0.001%   0.999%   4.858%   0.019%   1.201%   3.080%   0.514%   0.000%   5.790%
   45    3.2  1.5 -0.5   0.000%   0.000%   0.000%   0.000%  10.929%   0.018%   0.231%   3.194%   0.029%   0.000%
   46    4.2  1.5 -0.5   0.580%  11.364%   0.123%   0.598%   0.018%   9.086%   1.589%   0.069%   0.000%   0.364%
   47    5.2  1.5 -0.5   0.592%  11.572%   0.119%   0.574%   0.012%   6.907%   3.220%   0.315%   0.000%   0.366%
   48    6.2  1.5 -0.5  11.146%   0.568%   2.080%   0.428%   6.095%   0.432%   4.996%  16.517%   0.429%   0.000%
   49    7.2  1.5 -0.5  11.935%   0.595%  20.084%   4.131%   2.112%   0.070%   0.655%   1.790%   0.359%   0.000%
   50    8.2  1.5 -0.5   0.047%   0.009%   1.097%   0.226%   2.611%   0.007%   0.228%   1.915%   0.002%   0.000%
   51    9.2  1.5 -0.5   0.086%   0.002%   0.000%   0.000%   0.000%   0.000%   0.000%   0.001%   0.726%   0.000%
   52    1.2  1.5 -1.5   0.000%   0.000%   1.764%   0.363%   5.977%   0.161%   1.388%   3.488%   0.083%   0.000%
   53    2.2  1.5 -1.5   0.002%   0.000%   1.783%   0.366%   0.264%   0.144%   2.126%   8.497%   0.113%   0.000%
   54    3.2  1.5 -1.5   0.000%   0.000%   1.335%   6.486%   0.025%   0.349%   0.965%   0.292%   0.001%  12.712%
   55    4.2  1.5 -1.5   0.410%   0.011%   1.924%   0.396%   2.156%   0.146%   3.172%  16.508%   0.007%   0.000%
   56    5.2  1.5 -1.5   0.334%   0.008%   1.827%   0.376%  20.362%   0.203%   0.872%   0.738%   0.018%   0.000%
   57    6.2  1.5 -1.5   0.008%   0.345%   0.000%   0.000%   0.006%   3.717%   1.092%   0.079%   0.000%   0.006%
   58    7.2  1.5 -1.5   0.009%   0.044%   0.224%   1.088%   0.007%   2.639%   2.006%   0.243%   0.000%   0.003%
   59    8.2  1.5 -1.5   0.589%  11.855%   4.037%  19.623%   0.081%   2.275%   2.160%   0.777%   0.000%   0.340%
   60    9.2  1.5 -1.5   0.139%   2.728%   0.000%   0.000%   0.000%   0.001%   0.000%   0.000%   0.002%  30.742%

   Nr   State  S   Sz      51       52       53       54       55       56       57       58       59       60

    1    1.2  0.5  0.5   0.000%   0.000%   0.000%   0.027%   0.096%   0.000%   0.002%   0.000%   0.000%   0.000%
    2    2.2  0.5  0.5   0.000%   0.000%   0.027%   0.000%   0.000%   0.096%   0.000%   0.001%   0.001%   0.000%
    3    3.2  0.5  0.5   0.000%   0.000%   0.027%   0.000%   0.000%   0.096%   0.000%   0.000%   0.001%   0.000%
    4    4.2  0.5  0.5   0.224%  16.158%   0.000%   0.001%   0.000%   0.000%  10.159%   0.002%   0.009%   1.509%
    5    5.2  0.5  0.5  10.740%   0.166%   0.000%   0.000%   0.000%   0.000%   0.002%   6.621%   4.959%   0.068%
    6    6.2  0.5  0.5  15.226%   0.209%   0.000%   0.000%   0.000%   0.000%   0.006%  10.416%   1.199%   0.029%
    7    7.2  0.5  0.5   0.006%   0.397%   0.000%   0.000%   0.000%   0.000%   0.442%   0.002%   0.201%  11.004%
    8    8.2  0.5  0.5   0.026%   1.836%   0.000%   0.000%   0.000%   0.000%   1.512%   0.002%   0.192%   9.969%
    9    9.2  0.5  0.5   0.001%   0.000%  12.365%   0.036%   0.002%   5.540%   0.000%   2.734%   3.485%   0.073%
   10   10.2  0.5  0.5   0.000%   0.000%  12.310%   0.034%   0.002%   5.528%   0.002%   0.653%   5.564%   0.091%
   11   11.2  0.5  0.5   0.000%   0.008%   0.036%  12.420%   5.549%   0.002%   6.037%   0.001%   0.001%   0.238%
   12   12.2  0.5  0.5   0.000%   0.001%   0.085%  31.042%  14.996%   0.004%   0.000%   0.000%   0.000%   0.000%
   13    1.2  0.5 -0.5   0.000%   0.000%   0.027%   0.000%   0.000%   0.096%   0.000%   0.002%   0.000%   0.000%
   14    2.2  0.5 -0.5   0.000%   0.000%   0.000%   0.027%   0.096%   0.000%   0.001%   0.000%   0.000%   0.001%
   15    3.2  0.5 -0.5   0.000%   0.000%   0.000%   0.027%   0.096%   0.000%   0.000%   0.000%   0.000%   0.001%
   16    4.2  0.5 -0.5  16.158%   0.224%   0.001%   0.000%   0.000%   0.000%   0.002%  10.159%   1.509%   0.009%
   17    5.2  0.5 -0.5   0.166%  10.740%   0.000%   0.000%   0.000%   0.000%   6.621%   0.002%   0.068%   4.959%
   18    6.2  0.5 -0.5   0.209%  15.226%   0.000%   0.000%   0.000%   0.000%  10.416%   0.006%   0.029%   1.199%
   19    7.2  0.5 -0.5   0.397%   0.006%   0.000%   0.000%   0.000%   0.000%   0.002%   0.442%  11.004%   0.201%
   20    8.2  0.5 -0.5   1.836%   0.026%   0.000%   0.000%   0.000%   0.000%   0.002%   1.512%   9.969%   0.192%
   21    9.2  0.5 -0.5   0.000%   0.001%   0.036%  12.365%   5.540%   0.002%   2.734%   0.000%   0.073%   3.485%
   22   10.2  0.5 -0.5   0.000%   0.000%   0.034%  12.310%   5.528%   0.002%   0.653%   0.002%   0.091%   5.564%
   23   11.2  0.5 -0.5   0.008%   0.000%  12.420%   0.036%   0.002%   5.549%   0.001%   6.037%   0.238%   0.001%
   24   12.2  0.5 -0.5   0.001%   0.000%  31.042%   0.085%   0.004%  14.996%   0.000%   0.000%   0.000%   0.000%
   25    1.2  1.5  1.5   0.064%   4.149%   0.003%   1.015%   2.749%   0.001%   5.238%   0.001%   0.001%   0.208%
   26    2.2  1.5  1.5   0.063%   4.076%   0.003%   1.036%   2.749%   0.001%   5.240%   0.001%   0.001%   0.207%
   27    3.2  1.5  1.5   0.302%   0.004%   0.000%   0.000%   0.000%   0.000%   0.003%   0.625%  15.477%   0.283%
   28    4.2  1.5  1.5   0.007%   0.432%   0.004%   1.334%   2.870%   0.001%   4.391%   0.000%   0.001%   0.173%
   29    5.2  1.5  1.5   0.006%   0.407%   0.004%   1.309%   2.871%   0.001%   4.388%   0.000%   0.001%   0.175%
   30    6.2  1.5  1.5   0.330%   0.005%   5.499%   0.015%   0.003%  11.399%   0.000%   4.396%   0.175%   0.001%
   31    7.2  1.5  1.5   0.329%   0.005%   5.210%   0.014%   0.003%  10.810%   0.000%   4.552%   0.006%   0.001%
   32    8.2  1.5  1.5   0.002%   0.000%   0.283%   0.001%   0.000%   0.594%   0.001%   0.007%   4.458%   0.078%
   33    9.2  1.5  1.5   0.718%   0.011%   0.000%   0.000%   0.000%   0.000%   0.002%   0.432%  10.684%   0.195%
   34    1.2  1.5  0.5   7.139%   0.110%   0.311%   0.001%   0.000%   0.913%   0.000%   9.633%   3.049%   0.075%
   35    2.2  1.5  0.5   4.239%   0.066%   0.306%   0.001%   0.000%   0.907%   0.003%   4.801%   7.841%   0.116%
   36    3.2  1.5  0.5   0.020%   1.310%   0.004%   1.354%   3.648%   0.001%   1.759%   0.000%   0.000%   0.071%
   37    4.2  1.5  0.5   0.011%   0.000%   4.161%   0.011%   0.003%   8.568%   0.001%   0.177%   4.290%   0.078%
   38    5.2  1.5  0.5   0.007%   0.000%   4.188%   0.011%   0.003%   8.551%   0.001%   0.172%   4.310%   0.079%
   39    6.2  1.5  0.5   0.000%   0.013%   0.000%   0.000%   0.000%   0.000%   0.176%   0.001%   0.079%   4.315%
   40    7.2  1.5  0.5   0.000%   0.002%   0.001%   0.284%   0.599%   0.000%   0.006%   0.001%   0.078%   4.460%
   41    8.2  1.5  0.5   0.006%   0.371%   0.014%   5.212%  10.840%   0.003%   4.534%   0.000%   0.002%   0.006%
   42    9.2  1.5  0.5   0.469%  30.327%   0.000%   0.002%   0.000%   0.000%  10.864%   0.001%   0.002%   0.433%
   43    1.2  1.5 -0.5   0.110%   7.139%   0.001%   0.311%   0.913%   0.000%   9.633%   0.000%   0.075%   3.049%
   44    2.2  1.5 -0.5   0.066%   4.239%   0.001%   0.306%   0.907%   0.000%   4.801%   0.003%   0.116%   7.841%
   45    3.2  1.5 -0.5   1.310%   0.020%   1.354%   0.004%   0.001%   3.648%   0.000%   1.759%   0.071%   0.000%
   46    4.2  1.5 -0.5   0.000%   0.011%   0.011%   4.161%   8.568%   0.003%   0.177%   0.001%   0.078%   4.290%
   47    5.2  1.5 -0.5   0.000%   0.007%   0.011%   4.188%   8.551%   0.003%   0.172%   0.001%   0.079%   4.310%
   48    6.2  1.5 -0.5   0.013%   0.000%   0.000%   0.000%   0.000%   0.000%   0.001%   0.176%   4.315%   0.079%
   49    7.2  1.5 -0.5   0.002%   0.000%   0.284%   0.001%   0.000%   0.599%   0.001%   0.006%   4.460%   0.078%
   50    8.2  1.5 -0.5   0.371%   0.006%   5.212%   0.014%   0.003%  10.840%   0.000%   4.534%   0.006%   0.002%
   51    9.2  1.5 -0.5  30.327%   0.469%   0.002%   0.000%   0.000%   0.000%   0.001%  10.864%   0.433%   0.002%
   52    1.2  1.5 -1.5   4.149%   0.064%   1.015%   0.003%   0.001%   2.749%   0.001%   5.238%   0.208%   0.001%
   53    2.2  1.5 -1.5   4.076%   0.063%   1.036%   0.003%   0.001%   2.749%   0.001%   5.240%   0.207%   0.001%
   54    3.2  1.5 -1.5   0.004%   0.302%   0.000%   0.000%   0.000%   0.000%   0.625%   0.003%   0.283%  15.477%
   55    4.2  1.5 -1.5   0.432%   0.007%   1.334%   0.004%   0.001%   2.870%   0.000%   4.391%   0.173%   0.001%
   56    5.2  1.5 -1.5   0.407%   0.006%   1.309%   0.004%   0.001%   2.871%   0.000%   4.388%   0.175%   0.001%
   57    6.2  1.5 -1.5   0.005%   0.330%   0.015%   5.499%  11.399%   0.003%   4.396%   0.000%   0.001%   0.175%
   58    7.2  1.5 -1.5   0.005%   0.329%   0.014%   5.210%  10.810%   0.003%   4.552%   0.000%   0.001%   0.006%
   59    8.2  1.5 -1.5   0.000%   0.002%   0.001%   0.283%   0.594%   0.000%   0.007%   0.001%   0.078%   4.458%
   60    9.2  1.5 -1.5   0.011%   0.718%   0.000%   0.000%   0.000%   0.000%   0.432%   0.002%   0.195%  10.684%


 Property matrices transformed in SO basis (not sym. adapted)
 ============================================================

 No matrix element <i|DMX|i> larger than 5E-7
 No matrix element <i|DMX|1> larger than 5E-7

 No matrix element <i|DMY|i> larger than 5E-7
 No matrix element <i|DMY|1> larger than 5E-7

 No matrix element <i|DMZ|i> larger than 5E-7
 No matrix element <i|DMZ|1> larger than 5E-7


 **********************************************************************************************************************************
 DATASETS  * FILE   NREC   LENGTH (MB)   RECORD NAMES
              1      21       94.20       500      610      700      900      950      970     1000      129      960     1100   
                                          VAR    BASINP    GEOM    SYMINP    ZMAT    AOBASIS   BASIS     P2S    ABASIS      S 
                                         1400     1410     1420     1200     1210     1080     1700     1600     1650     1380   
                                           T        V       ECP      H0       H01     AOSYM    OPER      SMH    MOLCAS    JKOP   
                                         1700(1)
                                         OPER   

              2       7    10024.70       700     1000      520     2100     2140     5203     5303   
                                         GEOM     BASIS   MCVARS     RHF     MCSCF    MRCI     MRCI   

 PROGRAMS   *        TOTAL        CI        CI        CI     MULTI   RHF-SCF       INT
 CPU TIMES  *    416617.04 377131.08  12369.37  27091.81     13.20      1.41      9.77
 REAL TIME  *    421747.12 SEC
 DISK USED  *         9.88 GB (local),      159.51 GB (total)
 SF USED    *        61.74 GB
 GA USED    *         0.00 MB       (max)       0.00 MB       (current)
 **********************************************************************************************************************************

 CI/USERDEF energy=   -262.006184452439

              CI              CI           MULTI         RHF-SCF
   -261.99174270   -261.99178671   -261.09411593   -261.43915862
 **********************************************************************************************************************************
 Molpro calculation terminated with 1 warning(s)
