
 Working directory              : /wrk/irikura/molpro.aHju3dQSAB/
 Global scratch directory       : /wrk/irikura/molpro.aHju3dQSAB/
 Wavefunction directory         : /home/irikura/wfu/
 Main file repository           : /wrk/irikura/molpro.aHju3dQSAB/

 id        : nistki

 Nodes            nprocs
 pn125343.nist.gov   14
 GA implementation: MPI file
 GA implementation (serial work in mppx): MPI file

 Using customized tuning parameters: mindgm=1; mindgv=20; mindgc=4; mindgr=1; noblas=0; minvec=7
 default implementation of scratch files=sf  


 Variables initialized (1042), CPU time= 0.01 sec
 ***,Kr SO-CI
                                                                                 ! active space (8/7)
                                                                                 ! extra diffuse spdf
 memory,4000,M;
 
 gprint,orbitals,civector;
 
 symmetry,xyz
 geometry={Kr};
 
 basis={spdfgh,kr,AWCVQZ-X2C;C; spdf,1,even,nprim=1,ratio=3.0}
 
 set,dkho=101
 
                                                                                 ! cation orbitals
 {rhf;wf,nelec=35,sym=1,spin=1}
 
 {multi,wmk
     occ,9,12
     wf,nelec=36,sym=1,spin=0;state,10; weight,99,1,1,1,1,1,1,1,1,1
     wf,nelec=36,sym=1,spin=2;state,9;
     expec2,lxx,lyy,lzz;
 }
 table, energy, ll
 title, Energies and &lt;L**2&gt; values
 
 core,2,3
 
 {ci;wf,sym=1,spin=0;state,10; save,5201.2}
 hlsdiag = energd4
 {ci;wf,sym=1,spin=2;state,9; save,5202.2}
 hlsdiag(11) = energd
 
 table,hlsdiag
 
 lsint                                                                           ! fails without this line
 {ci;hlsmat,ls,5201.2,5202.2;print,vls=0,hls=0}                                  !compute and diagonalize SO matrix
 Commands initialized (847), CPU time= 0.01 sec, 718 directives.
 Default parameters read. Elapsed time= 0.11 sec

 Checking input...
 Passed
1


                                         ***  PROGRAM SYSTEM MOLPRO  ***
                                       Copyright, TTI GmbH Stuttgart, 2015
                                    Version 2024.1 linked Mon Jun 17 07:53:25 2024


 **********************************************************************************************************************************
 LABEL *   Kr SO-CI                                                                                                                                                      
  (64 PROC) 64 bit mpp version                                                           DATE: 07-Oct-24          TIME: 14:31:18  
 **********************************************************************************************************************************

 SHA1:             0134236b472f03f1f5189f93707d8671e415b05c
 **********************************************************************************************************************************

 Memory per process:      4000 MW
 Total memory per node:  56000 MW

 GA preallocation disabled
 GA check disabled

 Variable memory set to 4000.0 MW


 ZSYMEL=XYZ

 SETTING BASIS          =    USERDEF
 SETTING DKHO           =       101.00000000                                  


 Recomputing integrals since basis changed


 Using spherical harmonics

 Library entry KR     S AWCVQZ-X2C           selected for orbital group  1
 Even tempered Kr S diffuse               selected for group 1    nprim= 1    centre=  0.017    ratio= 3.000    dratio= 1.000
 Library entry KR     P AWCVQZ-X2C           selected for orbital group  1
 Even tempered Kr P diffuse               selected for group 1    nprim= 1    centre=  0.011    ratio= 3.000    dratio= 1.000
 Library entry KR     D AWCVQZ-X2C           selected for orbital group  1
 Even tempered Kr D diffuse               selected for group 1    nprim= 1    centre=  0.035    ratio= 3.000    dratio= 1.000
 Library entry KR     F AWCVQZ-X2C           selected for orbital group  1
 Even tempered Kr F diffuse               selected for group 1    nprim= 1    centre=  0.075    ratio= 3.000    dratio= 1.000
 Library entry KR     G AWCVQZ-X2C           selected for orbital group  1
 Library entry KR     H AWCVQZ-X2C           selected for orbital group  1


 PROGRAM * SEWARD (Integral evaluation for generally contracted gaussian basis sets)     Author: Roland Lindh, 1990

 Geometry written to block  1 of record 700

 Orientation using atomic masses  
 Molecule type: Atom
 User-specified symmetry elements: XYZ
 Symmetry elements: XYZ
 Rotational constants:       0.0000000      0.0000000      0.0000000 GHz  (calculated with average atomic masses)

 Point group  Ci  



 ATOMIC COORDINATES

 NR  ATOM    CHARGE       X              Y              Z

   1  KR     36.00    0.000000000    0.000000000    0.000000000

 NUCLEAR CHARGE:                   36
 NUMBER OF PRIMITIVE AOS:         342
 NUMBER OF SYMMETRY AOS:          270
 NUMBER OF CONTRACTIONS:          186   (   93Ag  +   93Au  )
 NUMBER OF INNER CORE ORBITALS:     5   (    2Ag  +    3Au  )
 NUMBER OF OUTER CORE ORBITALS:     9   (    6Ag  +    3Au  )
 NUMBER OF VALENCE ORBITALS:        4   (    1Ag  +    3Au  )


 NUCLEAR REPULSION ENERGY    0.00000000

 One-electron integrals computed with SEWARD

 eXact-2-Component (X2C) method activated

 Computing Douglas-Kroll / X2C integrals

 AO integral compression algorithm  1   Integral accuracy      1.0D-11

     142.344 MB (compressed) written to integral file ( 13.1%)

     Node minimum: 2.884 MB, node maximum: 17.564 MB


 NUMBER OF SORTED TWO-ELECTRON INTEGRALS:    5458440.     BUFFER LENGTH:  32768
 NUMBER OF SEGMENTS:   1  SEGMENT LENGTH:    5458440      RECORD LENGTH: 524288

 Memory used in sort:       6.02 MW

 SORT1 READ   136462603. AND WROTE     1063065. INTEGRALS IN      4 RECORDS. CPU TIME:     0.55 SEC, REAL TIME:     0.59 SEC
 SORT2 READ    14108795. AND WROTE    76426935. INTEGRALS IN    434 RECORDS. CPU TIME:     0.09 SEC, REAL TIME:     0.11 SEC

 Node minimum:     5452200.  Node maximum:     5473431. integrals

 OPERATOR DM      FOR CENTER  0  COORDINATES:    0.000000    0.000000    0.000000

 EXTRA SYMMETRY OF AOS IN SYMMETRY 1:   1 1 1 1 1 1 1 1 1 1   1 1 2 3 4 5 6 2 3 4   5 6 2 3 4 5 6 2 3 4   5 6 2 3 4 5 6 2 3 4
                                        5 6 2 3 4 5 6 2 3 4   5 6 2 3 4 5 6 7 8 9  101112131415 7 8 910  1112131415 7 8 91011
                                       12131415 7 8 9101112  131415
 EXTRA SYMMETRY OF AOS IN SYMMETRY 2:   1 2 3 1 2 3 1 2 3 1   2 3 1 2 3 1 2 3 1 2   3 1 2 3 1 2 3 1 2 3   1 2 3 4 5 6 7 8 910
                                        4 5 6 7 8 910 4 5 6   7 8 910 4 5 6 7 8 9  10 4 5 6 7 8 910 4 5   6 7 8 910 4 5 6 7 8
                                        9101112131415161718  192021

 Eigenvalues of metric

         1 0.253E-05 0.213E-03 0.250E-02 0.697E-02 0.743E-02 0.743E-02 0.743E-02 0.743E-02
         2 0.136E-04 0.136E-04 0.136E-04 0.453E-03 0.453E-03 0.453E-03 0.215E-01 0.215E-01


 **********************************************************************************************************************************
 DATASETS  * FILE   NREC   LENGTH (MB)   RECORD NAMES
              1      22       30.04       500      610      700      900      950      970     1000      129      960     1700   
                                          VAR    BASINP    GEOM    SYMINP    ZMAT    AOBASIS   BASIS     P2S    ABASIS    OPER   
                                         1101     1401     1411     1412     1650     1100     1400     1410     1200     1210   
                                          SR      EKINR    POTR     PVPR    MOLCAS      S      EKIN      POT      H0       H01  
                                         1080     1600   
                                         AOSYM     SMH  

 PROGRAMS   *        TOTAL       INT
 CPU TIMES  *         3.76      3.58
 REAL TIME  *         5.48 SEC
 DISK USED  *        30.42 MB (local),      708.20 MB (total)
 GA USED    *         0.00 MB       (max)       0.00 MB       (current)
 **********************************************************************************************************************************


 Program * Restricted Hartree-Fock

 Orbital guess generated from atomic densities.

 Initial alpha occupancy:   9   9
 Initial beta  occupancy:   8   9

 NELEC=   35   SYM=1   MS2= 1   THRE=1.0D-08   THRD=3.2D-06   THRG=3.2D-06  HFMA2=F  DIIS_START=2   DIIS_MAX=10   DIIS_INCORE=F

 Level shifts:    0.00 (CLOSED)    0.00 (OPEN)    0.30 (GAP_MIN)

 ITER           ETOT              DE          GRAD        DDIFF     DIIS  NEXP   TIME(IT)  TIME(TOT)  DIAG
   1    -2787.10907933   -2787.10907933     0.00D+00     0.91D-01     0     0       0.03      0.07    start
   2    -2787.15446075      -0.04538142     0.16D-01     0.12D-01     1     0       0.04      0.11    diag2
   3    -2787.15552889      -0.00106813     0.30D-02     0.23D-02     2     0       0.03      0.14    diag2
   4    -2787.15562777      -0.00009889     0.60D-03     0.76D-03     3     0       0.04      0.18    diag2
   5    -2787.15563604      -0.00000826     0.16D-03     0.14D-03     4     0       0.03      0.21    diag2
   6    -2787.15563624      -0.00000020     0.10D-04     0.21D-04     5     0       0.04      0.25    diag2
   7    -2787.15563624      -0.00000000     0.11D-05     0.21D-05     6     0       0.04      0.29    diag2
   8    -2787.15563624      -0.00000000     0.90D-07     0.23D-06     0     0       0.03      0.32    fixocc

 Final alpha occupancy:   9   9
 Final beta  occupancy:   8   9

 !RHF STATE 1.1 Energy              -2787.155636238232
  RHF One-electron energy           -3858.461241015937
  RHF Two-electron energy            1071.305604777705
  RHF Kinetic energy                 2992.873581869418
  RHF Nuclear energy                    0.000000000000
  RHF Virial quotient                  -0.931264071133

 !RHF STATE 1.1 Dipole moment           0.00000000     0.00000000     0.00000000
 Dipole moment /Debye                   0.00000000     0.00000000     0.00000000

 ELECTRON ORBITALS
 =================

  Orbital  Occupation    Energy    Cen Mu Typ  Coefficients
    1.1     2.00000  -529.89637     1  1  s    0.99998
    2.1     2.00000   -72.56290     1  2  s    1.00017
    3.1     2.00000   -11.72368     1  3  s    0.99341
    4.1     2.00000    -4.26025     1  1  d0   1.00127
    5.1     2.00000    -4.26025     1  1  d2-  1.00122
    6.1     2.00000    -4.26025     1  1  d1-  1.00050
    7.1     2.00000    -4.26025     1  1  d1+  1.00057
    8.1     2.00000    -4.26025     1  1  d2+  1.00117
    9.1     1.00000    -1.67235     1  4  s    1.10392
    1.2     2.00000   -64.03349     1  1  pz   1.00054
    2.2     2.00000   -64.03349     1  1  px   0.88851    1  1  py   0.46013
    3.2     2.00000   -64.03349     1  1  px  -0.46021    1  1  py   0.88848
    4.2     2.00000    -8.92481     1  2  pz   0.99715
    5.2     2.00000    -8.92481     1  2  py   0.97664
    6.2     2.00000    -8.92481     1  2  px   0.97664
    7.2     2.00000    -0.90993     1  3  pz   1.09945
    8.2     2.00000    -0.90993     1  3  px   0.50806    1  3  py   0.97502
    9.2     2.00000    -0.90993     1  3  px   0.97502    1  3  py  -0.50806


 HOMO      9.2    -0.909926 =     -24.7604eV
 LUMO     10.1    -0.137332 =      -3.7370eV
 LUMO-HOMO         0.772595 =      21.0234eV

 Orbitals saved in record  2100.2


 **********************************************************************************************************************************
 DATASETS  * FILE   NREC   LENGTH (MB)   RECORD NAMES
              1      22       30.04       500      610      700      900      950      970     1000      129      960     1700   
                                          VAR    BASINP    GEOM    SYMINP    ZMAT    AOBASIS   BASIS     P2S    ABASIS    OPER   
                                         1101     1401     1411     1412     1650     1100     1400     1410     1200     1210   
                                          SR      EKINR    POTR     PVPR    MOLCAS      S      EKIN      POT      H0       H01  
                                         1080     1600   
                                         AOSYM     SMH  

              2       4        0.94       700     1000      520     2100   
                                         GEOM     BASIS   MCVARS     RHF  

 PROGRAMS   *        TOTAL   RHF-SCF       INT
 CPU TIMES  *         4.08      0.32      3.58
 REAL TIME  *         5.83 SEC
 DISK USED  *        33.09 MB (local),      745.58 MB (total)
 GA USED    *         0.00 MB       (max)       0.00 MB       (current)
 **********************************************************************************************************************************

 PROGRAM * MULTI (Direct Multiconfiguration SCF)       Authors: P.J. Knowles, H.-J. Werner (1984)
                                                                D.A. Kreplin, P.J. Knowles, H.-J. Werner (2019)

 Number of closed-shell orbitals:  14 (    8    6)
 Number of active  orbitals:        7 (    1    6)
 Number of external orbitals:     165 (   84   81)

 State symmetry 1

 Number of active electrons:   8    Spin symmetry=Singlet   Space symmetry=1
 Number of states:            10
 Number of CSFs:             280   (625 determinants, 1225 intermediate states)

 State symmetry 2

 Number of active electrons:   8    Spin symmetry=Triplet   Space symmetry=1
 Number of states:             9
 Number of CSFs:             294   (345 determinants, 735 intermediate states)

 Molecular orbitals read from record     2100.2  Type=RHF/CANONICAL  
 *** IN SYMMETRY 1 ORBITAL  4 SYMMETRY CONTAMINATION OF 0.168D-01 HAS BEEN REMOVED
 *** IN SYMMETRY 1 ORBITAL  5 SYMMETRY CONTAMINATION OF 0.246D-01 HAS BEEN REMOVED
 *** IN SYMMETRY 1 ORBITAL  6 SYMMETRY CONTAMINATION OF 0.556D-01 HAS BEEN REMOVED
 *** IN SYMMETRY 1 ORBITAL  7 SYMMETRY CONTAMINATION OF 0.498D-01 HAS BEEN REMOVED
 *** IN SYMMETRY 1 ORBITAL  8 SYMMETRY CONTAMINATION OF 0.264D-01 HAS BEEN REMOVED

 EXTRA SYMMETRY OF MOS IN SYMMETRY 1:   1 1 1 2 3 6 4 5 1 1   3 5 6 4 2 1 2 3 5 6   4 1 2 3 5 4 6 2 6 4   3 5 7151411 912 813
                                       10 11514 7 91112 813  10 6 4 5 3 2 1 2 6 4   5 3 91112 81310 715  14 1 4 6 3 5 2141510
                                       13 7 91112 8 2 4 6 3   5 1 1
 *** IN SYMMETRY 2 ORBITAL  1 SYMMETRY CONTAMINATION OF 0.168D-01 HAS BEEN REMOVED
 *** IN SYMMETRY 2 ORBITAL  2 SYMMETRY CONTAMINATION OF 0.346D+00 HAS BEEN REMOVED
 *** IN SYMMETRY 2 ORBITAL  3 SYMMETRY CONTAMINATION OF 0.345D+00 HAS BEEN REMOVED
 *** IN SYMMETRY 2 ORBITAL  4 SYMMETRY CONTAMINATION OF 0.526D-04 HAS BEEN REMOVED
 *** IN SYMMETRY 2 ORBITAL  5 SYMMETRY CONTAMINATION OF 0.171D+00 HAS BEEN REMOVED
 *** IN SYMMETRY 2 ORBITAL  6 SYMMETRY CONTAMINATION OF 0.171D+00 HAS BEEN REMOVED
 *** IN SYMMETRY 2 ORBITAL  7 SYMMETRY CONTAMINATION OF 0.142D-02 HAS BEEN REMOVED
 *** IN SYMMETRY 2 ORBITAL  8 SYMMETRY CONTAMINATION OF 0.343D+00 HAS BEEN REMOVED
 *** IN SYMMETRY 2 ORBITAL  9 SYMMETRY CONTAMINATION OF 0.343D+00 HAS BEEN REMOVED
 *** IN SYMMETRY 2 ORBITAL 10 SYMMETRY CONTAMINATION OF 0.126D-03 HAS BEEN REMOVED
 *** IN SYMMETRY 2 ORBITAL 11 SYMMETRY CONTAMINATION OF 0.208D+00 HAS BEEN REMOVED
 *** IN SYMMETRY 2 ORBITAL 12 SYMMETRY CONTAMINATION OF 0.208D+00 HAS BEEN REMOVED
 EXTRA SYMMETRY OF MOS IN SYMMETRY 2:   3 1 2 3 2 1 3 2 1 3   2 1 3 2 1 6 5 4 810   7 9 3 2 1 5 4 7 910   8 6 3 2 1 5 4 7 9 6
                                        810 5 4 7 9 610 8 3   2 1 6 4 5 9 710 8 3   1 22018191321111217  151614 6 9 710 8 4 5
                                        3 2 1 9 7 6 4 510 8   3 2 1

 Wavefunction dump at record             2140.2

 Convergence thresholds  0.10E-04 (gradient)  0.10E-05 (energy)

 Weight factors for state symmetry  1:    0.84615   0.00855   0.00855   0.00855   0.00855   0.00855   0.00855   0.00855
                                          0.00855   0.00855
 Weight factors for state symmetry  2:    0.00855   0.00855   0.00855   0.00855   0.00855   0.00855   0.00855   0.00855
                                          0.00855
 
 Number of orbital rotations:  1772  ( 44 closed/active, 1158 closed/virtual, 0 active/active, 570 active/virtual )
 Total number of variables:    11127
 
 Second-order MCSCF: L-BFGS accelerated
 
 ITER  MIC  NCI  NEG     ENERGY(VAR)    ENERGY(PROJ) ENERGY CHANGE       GRAD(0)  GRAD(ORB)   GRAD(CI)      STEP      TIME
   1    5   16    0  -2788.20122489   -2788.23031889   -0.02909400    0.34654775 0.00108239 0.00083706  0.38E+00      3.03
   2    6   17    0  -2788.23092606   -2788.23096098   -0.00003492    0.01058091 0.00005286 0.00002448  0.38E-01      6.21
   3    6   19    0  -2788.23096103   -2788.23096103   -0.00000001    0.00001284 0.00000000 0.00000006  0.12E-02      9.35
   4    2    4    0  -2788.23096103   -2788.23096103   -0.00000000    0.00000001 0.00000000 0.00000004  0.12E-06     10.57

 CONVERGENCE REACHED!  Final gradient:    0.00000003 ( 0.30E-07)
                       Final energy:  -2788.23096103
 
 Results for state 1.1 Singlet
 =============================
 !MCSCF STATE 1.1 Singlet Energy             -2788.296219967093
 Nuclear energy                                  0.00000000
 Kinetic energy                               2994.44608630
 One electron energy                         -3877.16321081
 Two electron energy                          1088.86699084
 Virial ratio                                    1.93115593
 
 !MCSCF STATE 1.1 Singlet Dipole moment          0.00000000     0.00000000     0.00000000
 Dipole moment /Debye                            0.00000000     0.00000000     0.00000000
 
 Results for state 2.1 Singlet
 =============================
 !MCSCF STATE 2.1 Singlet Energy             -2787.873349767972
 Nuclear energy                                  0.00000000
 Kinetic energy                               2992.33318581
 One electron energy                         -3864.53444487
 Two electron energy                          1076.66109510
 Virial ratio                                    1.93167210
 
 !MCSCF STATE 2.1 Singlet Dipole moment          0.00000000     0.00000000     0.00000000
 Dipole moment /Debye                            0.00000000     0.00000000     0.00000000
 
 Results for state 3.1 Singlet
 =============================
 !MCSCF STATE 3.1 Singlet Energy             -2787.873349767875
 Nuclear energy                                  0.00000000
 Kinetic energy                               2992.33318581
 One electron energy                         -3864.53444487
 Two electron energy                          1076.66109510
 Virial ratio                                    1.93167210
 
 !MCSCF STATE 3.1 Singlet Dipole moment          0.00000000     0.00000000     0.00000000
 Dipole moment /Debye                            0.00000000     0.00000000     0.00000000
 
 Results for state 4.1 Singlet
 =============================
 !MCSCF STATE 4.1 Singlet Energy             -2787.873349765734
 Nuclear energy                                  0.00000000
 Kinetic energy                               2992.33318583
 One electron energy                         -3864.53444504
 Two electron energy                          1076.66109527
 Virial ratio                                    1.93167210
 
 !MCSCF STATE 4.1 Singlet Dipole moment          0.00000000     0.00000000     0.00000000
 Dipole moment /Debye                            0.00000000     0.00000000     0.00000000
 
 Results for state 5.1 Singlet
 =============================
 !MCSCF STATE 5.1 Singlet Energy             -2787.873349764820
 Nuclear energy                                  0.00000000
 Kinetic energy                               2992.33318584
 One electron energy                         -3864.53444511
 Two electron energy                          1076.66109535
 Virial ratio                                    1.93167210
 
 !MCSCF STATE 5.1 Singlet Dipole moment          0.00000000     0.00000000     0.00000000
 Dipole moment /Debye                            0.00000000     0.00000000     0.00000000
 
 Results for state 6.1 Singlet
 =============================
 !MCSCF STATE 6.1 Singlet Energy             -2787.873349764350
 Nuclear energy                                  0.00000000
 Kinetic energy                               2992.33318585
 One electron energy                         -3864.53444515
 Two electron energy                          1076.66109539
 Virial ratio                                    1.93167210
 
 !MCSCF STATE 6.1 Singlet Dipole moment          0.00000000     0.00000000     0.00000000
 Dipole moment /Debye                            0.00000000     0.00000000     0.00000000
 
 Results for state 7.1 Singlet
 =============================
 !MCSCF STATE 7.1 Singlet Energy             -2787.869050384035
 Nuclear energy                                  0.00000000
 Kinetic energy                               2992.31966799
 One electron energy                         -3864.50274695
 Two electron energy                          1076.63369656
 Virial ratio                                    1.93167487
 
 !MCSCF STATE 7.1 Singlet Dipole moment          0.00000000     0.00000000     0.00000000
 Dipole moment /Debye                            0.00000000     0.00000000     0.00000000
 
 Results for state 8.1 Singlet
 =============================
 !MCSCF STATE 8.1 Singlet Energy             -2787.869050381750
 Nuclear energy                                  0.00000000
 Kinetic energy                               2992.31966801
 One electron energy                         -3864.50274711
 Two electron energy                          1076.63369673
 Virial ratio                                    1.93167487
 
 !MCSCF STATE 8.1 Singlet Dipole moment          0.00000000     0.00000000     0.00000000
 Dipole moment /Debye                            0.00000000     0.00000000     0.00000000
 
 Results for state 9.1 Singlet
 =============================
 !MCSCF STATE 9.1 Singlet Energy             -2787.869050380773
 Nuclear energy                                  0.00000000
 Kinetic energy                               2992.31966802
 One electron energy                         -3864.50274718
 Two electron energy                          1076.63369680
 Virial ratio                                    1.93167487
 
 !MCSCF STATE 9.1 Singlet Dipole moment          0.00000000     0.00000000     0.00000000
 Dipole moment /Debye                            0.00000000     0.00000000     0.00000000
 
 Results for state 10.1 Singlet
 ==============================
 !MCSCF STATE 10.1 Singlet Energy            -2787.839121805873
 Nuclear energy                                  0.00000000
 Kinetic energy                               2993.06962965
 One electron energy                         -3866.57421498
 Two electron energy                          1078.73509317
 Virial ratio                                    1.93143143
 
 !MCSCF STATE 10.1 Singlet Dipole moment         0.00000000     0.00000000     0.00000000
 Dipole moment /Debye                            0.00000000     0.00000000     0.00000000
 
 Results for state 1.1 Triplet
 =============================
 !MCSCF STATE 1.1 Triplet Energy             -2787.889582516551
 Nuclear energy                                  0.00000000
 Kinetic energy                               2992.26479157
 One electron energy                         -3864.36495449
 Two electron energy                          1076.47537198
 Virial ratio                                    1.93169882
 
 !MCSCF STATE 1.1 Triplet Dipole moment          0.00000000     0.00000000     0.00000000
 Dipole moment /Debye                            0.00000000     0.00000000     0.00000000
 
 Results for state 2.1 Triplet
 =============================
 !MCSCF STATE 2.1 Triplet Energy             -2787.877208692601
 Nuclear energy                                  0.00000000
 Kinetic energy                               2992.29879954
 One electron energy                         -3864.45099066
 Two electron energy                          1076.57378197
 Virial ratio                                    1.93168410
 
 !MCSCF STATE 2.1 Triplet Dipole moment          0.00000000     0.00000000     0.00000000
 Dipole moment /Debye                            0.00000000     0.00000000     0.00000000
 
 Results for state 3.1 Triplet
 =============================
 !MCSCF STATE 3.1 Triplet Energy             -2787.877208692511
 Nuclear energy                                  0.00000000
 Kinetic energy                               2992.29879954
 One electron energy                         -3864.45099067
 Two electron energy                          1076.57378197
 Virial ratio                                    1.93168410
 
 !MCSCF STATE 3.1 Triplet Dipole moment          0.00000000     0.00000000     0.00000000
 Dipole moment /Debye                            0.00000000     0.00000000     0.00000000
 
 Results for state 4.1 Triplet
 =============================
 !MCSCF STATE 4.1 Triplet Energy             -2787.877208690718
 Nuclear energy                                  0.00000000
 Kinetic energy                               2992.29879956
 One electron energy                         -3864.45099083
 Two electron energy                          1076.57378214
 Virial ratio                                    1.93168410
 
 !MCSCF STATE 4.1 Triplet Dipole moment          0.00000000     0.00000000     0.00000000
 Dipole moment /Debye                            0.00000000     0.00000000     0.00000000
 
 Results for state 5.1 Triplet
 =============================
 !MCSCF STATE 5.1 Triplet Energy             -2787.877208689953
 Nuclear energy                                  0.00000000
 Kinetic energy                               2992.29879957
 One electron energy                         -3864.45099090
 Two electron energy                          1076.57378221
 Virial ratio                                    1.93168410
 
 !MCSCF STATE 5.1 Triplet Dipole moment          0.00000000     0.00000000     0.00000000
 Dipole moment /Debye                            0.00000000     0.00000000     0.00000000
 
 Results for state 6.1 Triplet
 =============================
 !MCSCF STATE 6.1 Triplet Energy             -2787.877208689569
 Nuclear energy                                  0.00000000
 Kinetic energy                               2992.29879958
 One electron energy                         -3864.45099094
 Two electron energy                          1076.57378225
 Virial ratio                                    1.93168410
 
 !MCSCF STATE 6.1 Triplet Dipole moment          0.00000000     0.00000000     0.00000000
 Dipole moment /Debye                            0.00000000     0.00000000     0.00000000
 
 Results for state 7.1 Triplet
 =============================
 !MCSCF STATE 7.1 Triplet Energy             -2787.869338779336
 Nuclear energy                                  0.00000000
 Kinetic energy                               2992.31336841
 One electron energy                         -3864.48586216
 Two electron energy                          1076.61652338
 Virial ratio                                    1.93167693
 
 !MCSCF STATE 7.1 Triplet Dipole moment          0.00000000     0.00000000     0.00000000
 Dipole moment /Debye                            0.00000000     0.00000000     0.00000000
 
 Results for state 8.1 Triplet
 =============================
 !MCSCF STATE 8.1 Triplet Energy             -2787.869338777075
 Nuclear energy                                  0.00000000
 Kinetic energy                               2992.31336843
 One electron energy                         -3864.48586232
 Two electron energy                          1076.61652355
 Virial ratio                                    1.93167693
 
 !MCSCF STATE 8.1 Triplet Dipole moment          0.00000000     0.00000000     0.00000000
 Dipole moment /Debye                            0.00000000     0.00000000     0.00000000
 
 Results for state 9.1 Triplet
 =============================
 !MCSCF STATE 9.1 Triplet Energy             -2787.869338776110
 Nuclear energy                                  0.00000000
 Kinetic energy                               2992.31336844
 One electron energy                         -3864.48586240
 Two electron energy                          1076.61652362
 Virial ratio                                    1.93167693
 
 !MCSCF STATE 9.1 Triplet Dipole moment          0.00000000     0.00000000     0.00000000
 Dipole moment /Debye                            0.00000000     0.00000000     0.00000000
 
 State-averaged charge density matrix saved on record 2140.2 (density set 1)
 
 No non-zero expectation values
 
 Expectation values for two-electron operators:
 
 ? Warning
 ? Transition properties are only calculated between states of the same symmetry
 ? The problem occurs in mu_properties_expec2

 !MCSCF expec      <1.1 Singlet|LXLX|1.1 Singlet>     0.000000000000
 !MCSCF expec      <2.1 Singlet|LXLX|2.1 Singlet>     1.548470575019
 !MCSCF expec      <3.1 Singlet|LXLX|3.1 Singlet>     1.000000000102
 !MCSCF expec      <4.1 Singlet|LXLX|4.1 Singlet>     3.999999999819
 !MCSCF expec      <5.1 Singlet|LXLX|5.1 Singlet>     1.000000000088
 !MCSCF expec      <6.1 Singlet|LXLX|6.1 Singlet>     2.451529424971
 !MCSCF expec      <7.1 Singlet|LXLX|7.1 Singlet>     0.999999999605
 !MCSCF expec      <8.1 Singlet|LXLX|8.1 Singlet>     0.000000000445
 !MCSCF expec      <9.1 Singlet|LXLX|9.1 Singlet>     0.999999999952
 !MCSCF expec    <10.1 Singlet|LXLX|10.1 Singlet>     0.000000000000
 !MCSCF expec      <1.1 Triplet|LXLX|1.1 Triplet>     0.000000000000
 !MCSCF expec      <2.1 Triplet|LXLX|2.1 Triplet>     1.548217803390
 !MCSCF expec      <3.1 Triplet|LXLX|3.1 Triplet>     1.000000000090
 !MCSCF expec      <4.1 Triplet|LXLX|4.1 Triplet>     3.999999999874
 !MCSCF expec      <5.1 Triplet|LXLX|5.1 Triplet>     1.000000000054
 !MCSCF expec      <6.1 Triplet|LXLX|6.1 Triplet>     2.451778043528
 !MCSCF expec      <7.1 Triplet|LXLX|7.1 Triplet>     0.999999999973
 !MCSCF expec      <8.1 Triplet|LXLX|8.1 Triplet>     0.000000000025
 !MCSCF expec      <9.1 Triplet|LXLX|9.1 Triplet>     0.999999999991
 
 !MCSCF expec      <1.1 Singlet|LYLY|1.1 Singlet>    -0.000000000000
 !MCSCF expec      <2.1 Singlet|LYLY|2.1 Singlet>     0.538432236775
 !MCSCF expec      <3.1 Singlet|LYLY|3.1 Singlet>     1.000000000073
 !MCSCF expec      <4.1 Singlet|LYLY|4.1 Singlet>     1.000000000092
 !MCSCF expec      <5.1 Singlet|LYLY|5.1 Singlet>     3.999999999852
 !MCSCF expec      <6.1 Singlet|LYLY|6.1 Singlet>     3.461567763208
 !MCSCF expec      <7.1 Singlet|LYLY|7.1 Singlet>     0.999999999998
 !MCSCF expec      <8.1 Singlet|LYLY|8.1 Singlet>     0.999999999952
 !MCSCF expec      <9.1 Singlet|LYLY|9.1 Singlet>     0.000000000051
 !MCSCF expec    <10.1 Singlet|LYLY|10.1 Singlet>     0.000000000000
 !MCSCF expec      <1.1 Triplet|LYLY|1.1 Triplet>     0.000000000000
 !MCSCF expec      <2.1 Triplet|LYLY|2.1 Triplet>     0.538609368684
 !MCSCF expec      <3.1 Triplet|LYLY|3.1 Triplet>     1.000000000042
 !MCSCF expec      <4.1 Triplet|LYLY|4.1 Triplet>     1.000000000135
 !MCSCF expec      <5.1 Triplet|LYLY|5.1 Triplet>     3.999999999907
 !MCSCF expec      <6.1 Triplet|LYLY|6.1 Triplet>     3.461393541856
 !MCSCF expec      <7.1 Triplet|LYLY|7.1 Triplet>     0.999999999987
 !MCSCF expec      <8.1 Triplet|LYLY|8.1 Triplet>     0.999999999988
 !MCSCF expec      <9.1 Triplet|LYLY|9.1 Triplet>     0.000000000022
 
 !MCSCF expec      <1.1 Singlet|LZLZ|1.1 Singlet>     0.000000000000
 !MCSCF expec      <2.1 Singlet|LZLZ|2.1 Singlet>     3.913097188207
 !MCSCF expec      <3.1 Singlet|LZLZ|3.1 Singlet>     3.999999999826
 !MCSCF expec      <4.1 Singlet|LZLZ|4.1 Singlet>     1.000000000087
 !MCSCF expec      <5.1 Singlet|LZLZ|5.1 Singlet>     1.000000000060
 !MCSCF expec      <6.1 Singlet|LZLZ|6.1 Singlet>     0.086902811822
 !MCSCF expec      <7.1 Singlet|LZLZ|7.1 Singlet>     0.000000000397
 !MCSCF expec      <8.1 Singlet|LZLZ|8.1 Singlet>     0.999999999605
 !MCSCF expec      <9.1 Singlet|LZLZ|9.1 Singlet>     0.999999999998
 !MCSCF expec    <10.1 Singlet|LZLZ|10.1 Singlet>     0.000000000000
 !MCSCF expec      <1.1 Triplet|LZLZ|1.1 Triplet>     0.000000000000
 !MCSCF expec      <2.1 Triplet|LZLZ|2.1 Triplet>     3.913172827926
 !MCSCF expec      <3.1 Triplet|LZLZ|3.1 Triplet>     3.999999999868
 !MCSCF expec      <4.1 Triplet|LZLZ|4.1 Triplet>     0.999999999991
 !MCSCF expec      <5.1 Triplet|LZLZ|5.1 Triplet>     1.000000000038
 !MCSCF expec      <6.1 Triplet|LZLZ|6.1 Triplet>     0.086828414615
 !MCSCF expec      <7.1 Triplet|LZLZ|7.1 Triplet>     0.000000000040
 !MCSCF expec      <8.1 Triplet|LZLZ|8.1 Triplet>     0.999999999988
 !MCSCF expec      <9.1 Triplet|LZLZ|9.1 Triplet>     0.999999999987
 
 !MCSCF expec      <1.1 Singlet|L**2|1.1 Singlet>    -0.000000000000
 !MCSCF expec      <2.1 Singlet|L**2|2.1 Singlet>     6.000000000000
 !MCSCF expec      <3.1 Singlet|L**2|3.1 Singlet>     6.000000000000
 !MCSCF expec      <4.1 Singlet|L**2|4.1 Singlet>     5.999999999998
 !MCSCF expec      <5.1 Singlet|L**2|5.1 Singlet>     5.999999999999
 !MCSCF expec      <6.1 Singlet|L**2|6.1 Singlet>     6.000000000000
 !MCSCF expec      <7.1 Singlet|L**2|7.1 Singlet>     2.000000000000
 !MCSCF expec      <8.1 Singlet|L**2|8.1 Singlet>     2.000000000002
 !MCSCF expec      <9.1 Singlet|L**2|9.1 Singlet>     2.000000000001
 !MCSCF expec    <10.1 Singlet|L**2|10.1 Singlet>     0.000000000000
 !MCSCF expec      <1.1 Triplet|L**2|1.1 Triplet>     0.000000000000
 !MCSCF expec      <2.1 Triplet|L**2|2.1 Triplet>     6.000000000000
 !MCSCF expec      <3.1 Triplet|L**2|3.1 Triplet>     6.000000000000
 !MCSCF expec      <4.1 Triplet|L**2|4.1 Triplet>     6.000000000000
 !MCSCF expec      <5.1 Triplet|L**2|5.1 Triplet>     6.000000000000
 !MCSCF expec      <6.1 Triplet|L**2|6.1 Triplet>     6.000000000000
 !MCSCF expec      <7.1 Triplet|L**2|7.1 Triplet>     2.000000000000
 !MCSCF expec      <8.1 Triplet|L**2|8.1 Triplet>     2.000000000000
 !MCSCF expec      <9.1 Triplet|L**2|9.1 Triplet>     2.000000000000
 
 EXTRA SYMMETRY OF MOS IN SYMMETRY 1:   1 1 1 3 2 4 5 6 1 1   2 3 5 6 4 1 2 3 5 6   4 1 2 3 5 6 4 4 3 5   2 6 71514 91310 812
                                       11 1 915141310 812 7  11 4 3 5 6 2 1 2 4 6   5 3 91310 8121514 7  11 1 4 6 3 5 21310 9
                                       1514 812 711 2 4 6 3   5 1 1
 EXTRA SYMMETRY OF MOS IN SYMMETRY 2:   1 3 2 1 3 2 2 3 1 1   3 2 3 1 2 6 5 810 4   7 9 3 1 2 4 5 7 910   8 6 3 1 2 4 5 7 9 6
                                       10 8 4 5 7 9 610 8 3   1 2 6 4 9 7 510 8 3   1 22018111715211316  141912 9 7 6 810 4 5
                                        3 1 2 9 7 4 6 5 810   3 2 1
 
  NATURAL ORBITALS (STATE AVERAGED)
  =================================

  Orbital  Occupation    Energy    Cen Mu Typ  Coefficients
    1.1     2.00000  -529.41946     1  1  s    0.99998
    2.1     2.00000   -72.09376     1  2  s    0.99976
    3.1     2.00000   -11.26206     1  3  s    0.99975
    4.1     2.00000    -3.79066     1  1  d2-  1.00007
    5.1     2.00000    -3.79066     1  1  d0   1.00007
    6.1     2.00000    -3.79066     1  1  d1+  1.00007
    7.1     2.00000    -3.79066     1  1  d2+  1.00007
    8.1     2.00000    -3.79066     1  1  d1-  1.00007
    9.1     1.99997    -1.22274     1  4  s    0.99906
    1.2     2.00000   -63.55925     1  1  px   1.00009
    2.2     2.00000   -63.55925     1  1  pz   1.00009
    3.2     2.00000   -63.55925     1  1  py   1.00009
    4.2     2.00000    -8.45459     1  2  px   0.99981
    5.2     2.00000    -8.45459     1  2  pz   0.99981
    6.2     2.00000    -8.45459     1  2  py   0.99981
    7.2     1.94706    -0.54591     1  3  py   1.00931
    8.2     1.94706    -0.54591     1  3  pz   1.00931
    9.2     1.94706    -0.54591     1  3  px   1.00931
   10.2     0.05296     0.08608     1  3  px  -0.43234    1 10  px   0.70049    1 11  px   0.33163
   11.2     0.05296     0.08608     1  3  pz  -0.43234    1 10  pz   0.70049    1 11  pz   0.33163
   12.2     0.05296     0.08608     1  3  py  -0.43234    1 10  py   0.70049    1 11  py   0.33163
 
 Natural orbital dump (state averaged) at molpro section 2140.2 (Orbital set 2)
 
 Transform the CI vectors
 
 CI Coefficients of symmetry 1 (Singlet)
 =======================================

 State:              1               2               3               4               5               6               7
 2 222000       0.99909737     -0.00000000     -0.00000000      0.00000000      0.00000000      0.00000000     -0.00000000
 2 2a20b0       0.00815190     -0.08444242      0.00000005     -0.00000422      0.00000184      0.56663598     -0.00000000
 2 2b20a0      -0.00815190      0.08444242     -0.00000005      0.00000422     -0.00000184     -0.56663598      0.00000000
 2 a2200b       0.00815190      0.53294244      0.00000512      0.00000382     -0.00000070     -0.21018876     -0.00000000
 2 b2200a      -0.00815190     -0.53294244     -0.00000512     -0.00000382      0.00000070      0.21018876      0.00000000
 2 b220a0       0.00000000      0.00000223      0.00000293     -0.49613994     -0.00000243     -0.00000336     -0.00000986
 2 a220b0      -0.00000000     -0.00000223     -0.00000293      0.49613994      0.00000243      0.00000336      0.00000986
 2 22a0b0      -0.00000000      0.00000002     -0.00000238     -0.00000243      0.49614005     -0.00000161     -0.00000066
 2 22b0a0       0.00000000     -0.00000002      0.00000238      0.00000243     -0.49614005      0.00000161      0.00000066
 2 b22a00       0.00000000      0.00000508     -0.49614018     -0.00000293     -0.00000238      0.00000080      0.49642786
 2 a22b00      -0.00000000     -0.00000508      0.49614018      0.00000293      0.00000238     -0.00000080     -0.49642786
 2 22a00b       0.00000000     -0.00000508      0.49614039      0.00000293      0.00000238     -0.00000080      0.49642765
 2 22b00a      -0.00000000      0.00000508     -0.49614039     -0.00000293     -0.00000238      0.00000080     -0.49642765
 2 2b2a00      -0.00000000     -0.00000002      0.00000238      0.00000243     -0.49614053      0.00000161     -0.00000066
 2 2a2b00       0.00000000      0.00000002     -0.00000238     -0.00000243      0.49614053     -0.00000161      0.00000066
 2 2b200a       0.00000000      0.00000223      0.00000293     -0.49614064     -0.00000243     -0.00000336      0.00000986
 2 2a200b      -0.00000000     -0.00000223     -0.00000293      0.49614064      0.00000243      0.00000336     -0.00000986
 2 22ba00      -0.00815190      0.44849995      0.00000517     -0.00000039      0.00000113      0.35644736     -0.00000000
 2 22ab00       0.00815190     -0.44849995     -0.00000517      0.00000039     -0.00000113     -0.35644736      0.00000000
 2 202020      -0.01184680      0.01154534     -0.00000001      0.00000058     -0.00000025     -0.07747297      0.00000000
 2 022002      -0.01184679     -0.07286623     -0.00000070     -0.00000052      0.00000010      0.02873793      0.00000000
 2 220200      -0.01184679      0.06132089      0.00000071     -0.00000005      0.00000016      0.04873505     -0.00000000
 
 Energy:    -2788.29621997  -2787.87334977  -2787.87334977  -2787.87334977  -2787.87334976  -2787.87334976  -2787.86905038

 State:              8               9              10
 2 222000       0.00000000      0.00000000     -0.02620397
 2 2a20b0      -0.00000000     -0.00000000      0.40170609
 2 2b20a0       0.00000000      0.00000000     -0.40170609
 2 a2200b       0.00000000      0.00000000      0.40170596
 2 b2200a      -0.00000000     -0.00000000     -0.40170596
 2 b220a0       0.49642811     -0.00000344     -0.00000000
 2 a220b0      -0.49642811      0.00000344      0.00000000
 2 22a0b0       0.00000344      0.49642800      0.00000000
 2 22b0a0      -0.00000344     -0.49642800     -0.00000000
 2 b22a00       0.00000986      0.00000066     -0.00000000
 2 a22b00      -0.00000986     -0.00000066      0.00000000
 2 22a00b       0.00000986      0.00000066      0.00000000
 2 22b00a      -0.00000986     -0.00000066     -0.00000000
 2 2b2a00       0.00000344      0.49642752     -0.00000000
 2 2a2b00      -0.00000344     -0.49642752      0.00000000
 2 2b200a      -0.49642741      0.00000344     -0.00000000
 2 2a200b       0.49642741     -0.00000344      0.00000000
 2 22ba00       0.00000000     -0.00000000     -0.40170600
 2 22ab00      -0.00000000      0.00000000      0.40170600
 2 202020       0.00000000      0.00000000     -0.05367300
 2 022002      -0.00000000     -0.00000000     -0.05367298
 2 220200       0.00000000     -0.00000000     -0.05367299
 
 Energy:    -2787.86905038  -2787.86905038  -2787.83912181
 
 
 CI Coefficients of symmetry 1 (Triplet)
 =======================================

 State:              1               2               3               4               5               6               7
 2 2a20a0       0.57419984     -0.11951963      0.00000090     -0.00000873     -0.00000146      0.80237213      0.00000000
 2 a2200a       0.57420003      0.75463435     -0.00000082      0.00000291      0.00000005     -0.29767895      0.00000000
 2 2a200a      -0.00000000      0.00000032      0.00000385      0.70254162      0.00000296      0.00000769     -0.00000363
 2 2a2a00      -0.00000000      0.00000049     -0.00000263     -0.00000296      0.70254155      0.00000135     -0.00000256
 2 22a00a      -0.00000000      0.00000048      0.70254145     -0.00000385      0.00000263     -0.00000072     -0.70213921
 2 a22a00      -0.00000000      0.00000048      0.70254130     -0.00000385      0.00000263     -0.00000072      0.70213936
 2 22a0a0      -0.00000000      0.00000049     -0.00000263     -0.00000296      0.70254121      0.00000135      0.00000256
 2 a220a0      -0.00000000      0.00000032      0.00000385      0.70254114      0.00000296      0.00000769      0.00000363
 2 22aa00       0.57419997     -0.63511482     -0.00000009      0.00000582      0.00000141     -0.50469296     -0.00000000
 
 Energy:    -2787.88958252  -2787.87720869  -2787.87720869  -2787.87720869  -2787.87720869  -2787.87720869  -2787.86933878

 State:              8               9
 2 2a20a0       0.00000000      0.00000000
 2 a2200a      -0.00000000     -0.00000000
 2 2a200a      -0.70213904      0.00000243
 2 2a2a00       0.00000243      0.70213911
 2 22a00a       0.00000363     -0.00000256
 2 a22a00      -0.00000363      0.00000256
 2 22a0a0      -0.00000243     -0.70213945
 2 a220a0       0.70213952     -0.00000243
 2 22aa00      -0.00000000     -0.00000000
 
 Energy:    -2787.86933878  -2787.86933878
 


 **********************************************************************************************************************************
 DATASETS  * FILE   NREC   LENGTH (MB)   RECORD NAMES
              1      24       76.53       500      610      700      900      950      970     1000      129      960     1700   
                                          VAR    BASINP    GEOM    SYMINP    ZMAT    AOBASIS   BASIS     P2S    ABASIS    OPER   
                                         1101     1401     1411     1412     1650     1100     1400     1410     1200     1210   
                                          SR      EKINR    POTR     PVPR    MOLCAS      S      EKIN      POT      H0       H01  
                                         1080     1600     1380     1700(1)
                                         AOSYM     SMH     JKOP     OPER   

              2       5        1.64       700     1000      520     2100     2140   
                                         GEOM     BASIS   MCVARS     RHF     MCSCF   

 PROGRAMS   *        TOTAL     MULTI   RHF-SCF       INT
 CPU TIMES  *        11.02      6.94      0.32      3.58
 REAL TIME  *        17.63 SEC
 DISK USED  *        78.27 MB (local),        1.35 GB (total)
 SF USED    *       116.75 MB
 GA USED    *         0.00 MB       (max)       0.00 MB       (current)
 **********************************************************************************************************************************

 Energies and &lt;L**2&gt; values

          ENERGY    LL
    -2788.296220  -0.0
    -2787.873350   6.0
    -2787.873350   6.0
    -2787.873350   6.0
    -2787.873350   6.0
    -2787.873350   6.0
    -2787.869050   2.0
    -2787.869050   2.0
    -2787.869050   2.0
    -2787.839122   0.0
    -2787.889583   0.0
    -2787.877209   6.0
    -2787.877209   6.0
    -2787.877209   6.0
    -2787.877209   6.0
    -2787.877209   6.0
    -2787.869339   2.0
    -2787.869339   2.0
    -2787.869339   2.0
                                                  


 PROGRAM * CI (Multireference internally contracted CI)     Authors: H.-J. Werner, P.J. Knowles, 1987


 Convergence thresholds:  THRVAR = 1.00D-08  THRDEN = 1.00D-06

 Number of optimized states: 10  Roots:   1   2   3   4   5   6   7   8   9  10
 Number of reference states: 10  Roots:   1   2   3   4   5   6   7   8   9  10

 Reference symmetry:                   1   Singlet 
 Number of electrons:                 36
 Maximum number of shells:             6
 Maximum number of spin couplings:    42

 Reference space:      231 conf      280 CSFs
 N elec internal:     9996 conf    21280 CSFs
 N-1 el internal:    15576 conf    58240 CSFs
 N-2 el internal:    14289 conf    77596 CSFs

 Number of electrons in valence space:                     26
 Maximum number of open shell orbitals in reference space:  6
 Maximum number of open shell orbitals in internal spaces: 10


 Number of core orbitals:           5 (   2   3 )
 Number of closed-shell orbitals:   9 (   6   3 )
 Number of active  orbitals:        7 (   1   6 )
 Number of external orbitals:     165 (  84  81 )

 Molecular orbitals read from record     2140.2  Type=MCSCF/NATURAL (state averaged)

 Integral transformation finished. Total CPU:   0.37 sec, npass=  1  Memory used:   2.93 MW


 Number of p-space configurations:  10

 Reference wavefunction optimized for reference space (refopt=1)

 State     Reference Energy 
     1     -2788.29621997
     2     -2787.87334977
     3     -2787.87334977
     4     -2787.87334977
     5     -2787.87334976
     6     -2787.87334976
     7     -2787.86905038
     8     -2787.86905038
     9     -2787.86905038
    10     -2787.83912181

 ?WARNING: SMALL EIGENVALUE OF PAIR OVERLAP MATRIX:  0.9071D-07

 ?WARNING: SMALL EIGENVALUE OF PAIR OVERLAP MATRIX:  0.1228D-06

 Number of blocks in overlap matrix:  1034   Smallest eigenvalue:  0.91D-07
 Number of N-2 electron functions:    2442
 Number of N-1 electron functions:   58240

 Number of internal configurations:                10822
 Number of singly external configurations:       4804086
 Number of doubly external configurations:      16629762
 Total number of contracted configurations:     21444670
 Total number of uncontracted configurations:  532289236

 Diagonal Coupling coefficients finished.               Storage:  15136507 words, CPU-Time:     29.98 seconds.
 Energy denominators for pairs finished in 1 passes.    Storage:   2162587 words, CPU-time:      1.13 seconds.

  ITER. STATE  ROOT     SQ.NORM     CORR.ENERGY   TOTAL ENERGY   ENERGY CHANGE       DEN1      VAR(S)    VAR(P)      TIME
    1     1     1     1.00000000     0.00000000 -2788.29621997    -0.00000000    -1.12295970  0.72D-02  0.64D-01    37.35
    1     2     2     1.00000000     0.00000000 -2787.87334977     0.00000000    -1.14213375  0.34D-01  0.67D-01    37.35
    1     3     3     1.00000000     0.00000000 -2787.87334977    -0.00000000    -1.13650324  0.35D-01  0.63D-01    37.35
    1     4     4     1.00000000     0.00000000 -2787.87334977    -0.00000000    -1.13630746  0.35D-01  0.63D-01    37.35
    1     5     5     1.00000000     0.00000000 -2787.87334976    -0.00000000    -1.13626185  0.35D-01  0.63D-01    37.35
    1     6     6     1.00000000     0.00000000 -2787.87334976     0.00000000    -1.14457334  0.34D-01  0.68D-01    37.35
    1     7     7     1.00000000     0.00000000 -2787.86905038    -0.00000000    -1.13885708  0.36D-01  0.64D-01    37.35
    1     8     8     1.00000000     0.00000000 -2787.86905038    -0.00000000    -1.13875999  0.36D-01  0.64D-01    37.35
    1     9     9     1.00000000     0.00000000 -2787.86905038    -0.00000000    -1.13868945  0.36D-01  0.64D-01    37.35
    1    10    10     1.00000000     0.00000000 -2787.83912181     0.00000000    -1.16278311  0.83D-01  0.64D-01    37.35
    2     1     1     1.05632944    -1.00110427 -2789.29732424    -1.00110427    -0.01743238  0.11D-02  0.12D-02   667.79
    2     2     2     1.07388987    -0.98909532 -2788.86244508    -0.98909532    -0.01924581  0.33D-02  0.91D-03   667.79
    2     3     3     1.07387485    -0.98906784 -2788.86241761    -0.98906784    -0.01926352  0.33D-02  0.91D-03   667.79
    2     4     4     1.07393862    -0.98906742 -2788.86241718    -0.98906742    -0.01925623  0.33D-02  0.91D-03   667.79
    2     5     5     1.07539321    -0.98895378 -2788.86230354    -0.98895378    -0.01933373  0.31D-02  0.10D-02   667.79
    2     6     6     1.07608757    -0.98849334 -2788.86184311    -0.98849334    -0.01973236  0.30D-02  0.11D-02   667.79
    2     7     7     1.07502556    -0.99006897 -2788.85911935    -0.99006897    -0.01903993  0.33D-02  0.89D-03   667.79
    2     8     8     1.07503100    -0.99003627 -2788.85908665    -0.99003627    -0.01905192  0.33D-02  0.89D-03   667.79
    2     9     9     1.07500273    -0.99002575 -2788.85907613    -0.99002575    -0.01906618  0.33D-02  0.89D-03   667.79
    2    10    10     1.10366593    -0.97839601 -2788.81751782    -0.97839601    -0.03979487  0.16D-01  0.12D-02   667.79
    3     1     1     1.06081643    -1.01880371 -2789.31502367    -0.01769943    -0.00077344  0.92D-05  0.91D-04  1297.64
    3     2     2     1.06603775    -1.00799637 -2788.88134614    -0.01890105    -0.00069165  0.58D-04  0.75D-04  1297.64
    3     3     3     1.06602593    -1.00798968 -2788.88133945    -0.01892184    -0.00069515  0.58D-04  0.75D-04  1297.64
    3     4     4     1.06603577    -1.00798319 -2788.88133296    -0.01891578    -0.00069757  0.58D-04  0.76D-04  1297.64
    3     5     5     1.06623116    -1.00796809 -2788.88131786    -0.01901431    -0.00069937  0.56D-04  0.79D-04  1297.64
    3     6     6     1.06619776    -1.00794064 -2788.88129040    -0.01944730    -0.00071856  0.55D-04  0.84D-04  1297.64
    3     7     7     1.06665645    -1.00881572 -2788.87786611    -0.01874675    -0.00068647  0.64D-04  0.72D-04  1297.64
    3     8     8     1.06663591    -1.00880632 -2788.87785670    -0.01877005    -0.00069170  0.64D-04  0.73D-04  1297.64
    3     9     9     1.06664093    -1.00880475 -2788.87785514    -0.01877901    -0.00069204  0.64D-04  0.73D-04  1297.64
    3    10    10     1.07045679    -1.01788957 -2788.85701138    -0.03949356    -0.00136580  0.18D-03  0.12D-03  1297.64
    4     1     1     1.06429894    -1.01979859 -2789.31601855    -0.00099488    -0.00005752  0.19D-05  0.51D-05  1928.67
    4     2     2     1.06700144    -1.00884174 -2788.88219150    -0.00084537    -0.00007071  0.28D-05  0.81D-05  1928.67
    4     3     3     1.06699848    -1.00884047 -2788.88219024    -0.00085079    -0.00007142  0.29D-05  0.82D-05  1928.67
    4     4     4     1.06699349    -1.00883879 -2788.88218855    -0.00085559    -0.00007249  0.29D-05  0.83D-05  1928.67
    4     5     5     1.06691946    -1.00883377 -2788.88218354    -0.00086568    -0.00007686  0.31D-05  0.88D-05  1928.67
    4     6     6     1.06687830    -1.00883053 -2788.88218029    -0.00088989    -0.00007951  0.32D-05  0.92D-05  1928.67
    4     7     7     1.06739546    -1.00965135 -2788.87870174    -0.00083563    -0.00007102  0.28D-05  0.82D-05  1928.67
    4     8     8     1.06738983    -1.00965001 -2788.87870040    -0.00084369    -0.00007198  0.28D-05  0.83D-05  1928.67
    4     9     9     1.06738696    -1.00964938 -2788.87869976    -0.00084463    -0.00007232  0.29D-05  0.83D-05  1928.67
    4    10    10     1.07087586    -1.01943066 -2788.85855246    -0.00154109    -0.00010954  0.44D-05  0.13D-04  1928.67
    5     1     1     1.06474895    -1.01986665 -2789.31608662    -0.00006806    -0.00000386  0.14D-06  0.36D-06  2559.45
    5     2     2     1.06755921    -1.00893134 -2788.88228111    -0.00008960    -0.00000760  0.31D-06  0.80D-06  2559.45
    5     3     3     1.06757400    -1.00893128 -2788.88228105    -0.00009081    -0.00000744  0.28D-06  0.81D-06  2559.45
    5     4     4     1.06757431    -1.00893103 -2788.88228079    -0.00009224    -0.00000757  0.29D-06  0.82D-06  2559.45
    5     5     5     1.06756076    -1.00893102 -2788.88228078    -0.00009724    -0.00000776  0.32D-06  0.81D-06  2559.45
    5     6     6     1.06757324    -1.00893088 -2788.88228065    -0.00010036    -0.00000770  0.29D-06  0.83D-06  2559.45
    5     7     7     1.06795746    -1.00974156 -2788.87879194    -0.00009021    -0.00000745  0.27D-06  0.80D-06  2559.45
    5     8     8     1.06795726    -1.00974142 -2788.87879180    -0.00009140    -0.00000754  0.28D-06  0.80D-06  2559.45
    5     9     9     1.06795712    -1.00974132 -2788.87879170    -0.00009193    -0.00000761  0.28D-06  0.81D-06  2559.45
    5    10    10     1.07151234    -1.01957209 -2788.85869390    -0.00014143    -0.00001285  0.70D-06  0.14D-05  2559.45
    6     1     1     1.06473311    -1.01987130 -2789.31609127    -0.00000465    -0.00000034  0.79D-08  0.35D-07  3188.88
    6     2     2     1.06759304    -1.00894087 -2788.88229063    -0.00000953    -0.00000095  0.30D-07  0.11D-06  3188.88
    6     3     3     1.06759030    -1.00894085 -2788.88229062    -0.00000958    -0.00000089  0.27D-07  0.11D-06  3188.88
    6     4     4     1.06759216    -1.00894081 -2788.88229057    -0.00000978    -0.00000099  0.31D-07  0.12D-06  3188.88
    6     5     5     1.06759270    -1.00894078 -2788.88229055    -0.00000977    -0.00000097  0.31D-07  0.11D-06  3188.88
    6     6     6     1.06759017    -1.00894074 -2788.88229050    -0.00000985    -0.00000092  0.28D-07  0.11D-06  3188.88
    6     7     7     1.06798322    -1.00975105 -2788.87880143    -0.00000949    -0.00000090  0.27D-07  0.11D-06  3188.88
    6     8     8     1.06798279    -1.00975101 -2788.87880139    -0.00000959    -0.00000093  0.28D-07  0.11D-06  3188.88
    6     9     9     1.06798271    -1.00975101 -2788.87880139    -0.00000969    -0.00000092  0.27D-07  0.11D-06  3188.88
    6    10    10     1.07150065    -1.01958888 -2788.85871069    -0.00001679    -0.00000176  0.88D-07  0.21D-06  3188.88
    7     1     1     1.06474259    -1.01987171 -2789.31609167    -0.00000041    -0.00000004  0.13D-08  0.33D-08  3819.51
    7     2     2     1.06759090    -1.00894210 -2788.88229186    -0.00000123    -0.00000015  0.63D-08  0.16D-07  3819.51
    7     3     3     1.06759047    -1.00894209 -2788.88229186    -0.00000124    -0.00000016  0.67D-08  0.17D-07  3819.51
    7     4     4     1.06759062    -1.00894204 -2788.88229181    -0.00000124    -0.00000016  0.65D-08  0.16D-07  3819.51
    7     5     5     1.06759103    -1.00894203 -2788.88229179    -0.00000124    -0.00000015  0.63D-08  0.16D-07  3819.51
    7     6     6     1.06759067    -1.00894194 -2788.88229171    -0.00000120    -0.00000015  0.64D-08  0.16D-07  3819.51
    7     7     7     1.06797937    -1.00975221 -2788.87880259    -0.00000116    -0.00000014  0.57D-08  0.15D-07  3819.51
    7     8     8     1.06797905    -1.00975221 -2788.87880259    -0.00000120    -0.00000015  0.59D-08  0.16D-07  3819.51
    7     9     9     1.06797918    -1.00975219 -2788.87880257    -0.00000118    -0.00000015  0.58D-08  0.15D-07  3819.51
    7    10    10     1.07153081    -1.01959110 -2788.85871291    -0.00000222    -0.00000032  0.21D-07  0.32D-07  3819.51
    8     1     1     1.06474314    -1.01987172 -2789.31609169    -0.00000001    -0.00000002  0.44D-09  0.24D-08  4395.90
    8     2     2     1.06759523    -1.00894229 -2788.88229206    -0.00000020    -0.00000003  0.16D-08  0.25D-08  4395.90
    8     3     3     1.06759542    -1.00894228 -2788.88229205    -0.00000019    -0.00000003  0.15D-08  0.23D-08  4395.90
    8     4     4     1.06759525    -1.00894223 -2788.88229200    -0.00000019    -0.00000003  0.15D-08  0.24D-08  4395.90
    8     5     5     1.06759606    -1.00894221 -2788.88229198    -0.00000018    -0.00000003  0.14D-08  0.22D-08  4395.90
    8     6     6     1.06759579    -1.00894213 -2788.88229189    -0.00000019    -0.00000003  0.14D-08  0.22D-08  4395.90
    8     7     7     1.06798356    -1.00975239 -2788.87880277    -0.00000018    -0.00000003  0.14D-08  0.22D-08  4395.90
    8     8     8     1.06798367    -1.00975239 -2788.87880277    -0.00000018    -0.00000002  0.13D-08  0.21D-08  4395.90
    8     9     9     1.06798363    -1.00975236 -2788.87880274    -0.00000018    -0.00000002  0.14D-08  0.21D-08  4395.90
    8    10    10     1.07152672    -1.01959153 -2788.85871333    -0.00000042    -0.00000003  0.16D-08  0.31D-08  4395.90


 =====================================
 Analysis of CPU times by interactions
 =====================================

       I      S      P

 I   0.2%
 S   0.3%   3.8%
 P   0.2%  33.8%  47.3%

 Initialization:   0.7%
 Other:           13.7%

 Total CPU:     4395.9 seconds
 =====================================



 Wavefunction saved on  5201.2

 Reference coefficients greater than 0.0500000
 =============================================
 2222222222222000           0.9686374  -0.0000000  -0.0000000  -0.0000000   0.0000000  -0.0000000  -0.0000000  -0.0000000
                            0.0000000  -0.0020788
 222222222222/\00          -0.0021174   0.0003032   0.0004736   0.0001050  -0.0998738   0.7776976   0.0000001  -0.0000000
                            0.0000000   0.5487096
 22222222222/20\0          -0.0021173  -0.0007066  -0.0007428  -0.0016595   0.7234404  -0.3023556   0.0000000  -0.0000001
                           -0.0000001   0.5487095
 22222222222/2\00          -0.0000000   0.0013620   0.0011774   0.6790331   0.0016077   0.0001135  -0.0055109  -0.0004312
                            0.6793281  -0.0000000
 222222222222/0\0           0.0000000   0.0013621   0.0011774   0.6790334   0.0016075   0.0001135   0.0055108   0.0004312
                           -0.6793278  -0.0000000
 222222222222/00\           0.0000000   0.6790362  -0.0026308  -0.0013588   0.0005785  -0.0001887   0.6785133  -0.0331580
                            0.0054832   0.0000000
 22222222222/200\          -0.0000000   0.0026278   0.6790348  -0.0011840   0.0005537  -0.0003432   0.0331535   0.6785369
                            0.0006997  -0.0000000
 2222222222/220\0          -0.0000000   0.0026278   0.6790274  -0.0011839   0.0005535  -0.0003433  -0.0331539  -0.6785443
                           -0.0006996  -0.0000000
 2222222222/22\00           0.0000000   0.6790255  -0.0026307  -0.0013588   0.0005786  -0.0001885  -0.6785239   0.0331586
                           -0.0054833   0.0000000
 2222222222/2200\          -0.0021173   0.0004034   0.0002693   0.0015545  -0.6235673  -0.4753426  -0.0000001   0.0000002
                            0.0000000   0.5487089
 2222222222220200          -0.0097684  -0.0000295  -0.0000460  -0.0000102   0.0097034  -0.0755583  -0.0000000   0.0000000
                           -0.0000000  -0.0528288
 2222222222202020          -0.0097686   0.0000687   0.0000722   0.0001612  -0.0702871   0.0293763  -0.0000000   0.0000000
                            0.0000000  -0.0528293
 22222222222//\\0          -0.0111014   0.0000256   0.0000171   0.0000988  -0.0396453  -0.0302223  -0.0000000   0.0000000
                            0.0000000  -0.0683996
 2222222222//20\\          -0.0111015   0.0000193   0.0000301   0.0000067  -0.0063498   0.0494451   0.0000000  -0.0000000
                            0.0000000  -0.0683995
 2222222222/2/\0\          -0.0111014  -0.0000449  -0.0000472  -0.0001055   0.0459951  -0.0192233   0.0000000  -0.0000000
                           -0.0000000  -0.0683994
 2222222222022002          -0.0097687  -0.0000392  -0.0000262  -0.0001510   0.0605842   0.0461834   0.0000000  -0.0000000
                           -0.0000000  -0.0528296

 Coefficients of fixed reference functions:
 ==========================================

 State      Coefficients
 1           0.968826    0.000000    0.000000    0.000000    0.000000    0.000000   -0.000000    0.000000   -0.000000   -0.023717
 2          -0.000000    0.000199    0.967811    0.003745    0.001941   -0.000852    0.000007    0.000000   -0.000000   -0.000000
 3           0.000000   -0.000009   -0.003750    0.967811    0.001678   -0.000928   -0.000000    0.000005   -0.000000    0.000000
 4           0.000000    0.001324   -0.001937   -0.001687    0.967815   -0.001874    0.000000   -0.000000   -0.000001    0.000000
 5          -0.000000   -0.500722    0.000825    0.000789    0.002291    0.828219   -0.000000    0.000000    0.000000   -0.000000
 6          -0.000000   -0.828222   -0.000269   -0.000489    0.000162   -0.500724   -0.000000    0.000000   -0.000000   -0.000000
 7           0.000000   -0.000000   -0.000007   -0.000000   -0.000000   -0.000000    0.966460    0.047223   -0.007849    0.000000
 8           0.000000    0.000000    0.000000   -0.000005    0.000000   -0.000000   -0.047230    0.966492   -0.000614    0.000000
 9           0.000000    0.000000   -0.000000    0.000000    0.000001   -0.000000    0.007810    0.000997    0.967613   -0.000000
 10          0.023318   -0.000001    0.000000   -0.000000   -0.000000   -0.000000   -0.000000   -0.000000    0.000000    0.965760

 Coefficients of rotated reference functions:
 ============================================

 State      Coefficients
 1           0.969117    0.000000   -0.000000   -0.000000    0.000000   -0.000000   -0.000000   -0.000000    0.000000   -0.000162
 2           0.000000    0.967821   -0.000000   -0.000000    0.000000   -0.000000    0.000000   -0.000000   -0.000000    0.000000
 3          -0.000000   -0.000000    0.967821    0.000000    0.000000   -0.000000   -0.000000   -0.000000   -0.000000   -0.000000
 4          -0.000000   -0.000000    0.000000    0.967821    0.000000   -0.000000    0.000000    0.000000   -0.000000   -0.000000
 5           0.000000    0.000000    0.000000    0.000000    0.967820    0.000000    0.000000   -0.000000   -0.000000   -0.000000
 6          -0.000000   -0.000000   -0.000000   -0.000000    0.000000    0.967820    0.000000   -0.000000    0.000000    0.000000
 7          -0.000000    0.000000   -0.000000    0.000000    0.000000    0.000000    0.967645   -0.000000    0.000000   -0.000000
 8          -0.000000   -0.000000   -0.000000    0.000000   -0.000000   -0.000000   -0.000000    0.967645   -0.000000   -0.000000
 9           0.000000   -0.000000   -0.000000   -0.000000   -0.000000    0.000000    0.000000   -0.000000    0.967645    0.000000
 10         -0.000162    0.000000   -0.000000   -0.000000   -0.000000    0.000000   -0.000000   -0.000000    0.000000    0.966041


 RESULTS FOR STATE 1.1
 =====================

 Coefficient of reference function:   C(0) = 0.96882641 (fixed)   0.96911880 (relaxed)   0.96911664 (rotated)

 Energy contributions of configuration classes

 CLASS          SQ.NORM        ECORR1        ECORR2
 +++++++++++++++++++++++++++++++++++++++++++++++++++
 Internals    0.00000701   -0.00001144   -0.99426853
 Singles      0.00293330   -0.01389873   -0.01586506
 Pairs        0.06181030    0.05266788   -0.00973813
 Total        1.06475061    0.03875771   -1.01987172
 +++++++++++++++++++++++++++++++++++++++++++++++++++


 Reference energy                   -2788.29594993
 Nuclear energy                         0.00000000
 Kinetic energy                      2995.21992867
 One electron energy                -3876.25623647
 Two electron energy                 1086.94014479
 Virial quotient                       -0.93125585
 Correlation energy                    -1.02014175
 !MRCI STATE 1.1 Energy             -2789.316091687164

 Properties without orbital relaxation:

 !MRCI STATE 1.1 Dipole moment          0.00000000     0.00000000     0.00000000
 Dipole moment /Debye                   0.00000000     0.00000000     0.00000000

 Cluster corrected energies         -2789.38214648 (Davidson, fixed reference)
 Cluster corrected energies         -2789.38214164 (Davidson, relaxed reference)
 Cluster corrected energies         -2789.38214648 (Davidson, rotated reference)

 Cluster corrected energies         -2789.38057819 (Pople, fixed reference)
 Cluster corrected energies         -2789.38057319 (Pople, relaxed reference)
 Cluster corrected energies         -2789.38057819 (Pople, rotated reference)



 RESULTS FOR STATE 2.1
 =====================

 Maximum overlap with reference state  3

 Coefficient of reference function:   C(0) = 0.96781111 (fixed)   0.96782143 (relaxed)   0.96782070 (rotated)

 Energy contributions of configuration classes

 CLASS          SQ.NORM        ECORR1        ECORR2
 +++++++++++++++++++++++++++++++++++++++++++++++++++
 Internals    0.00000821   -0.00003701   -0.90288477
 Singles      0.01368108   -0.04502720   -0.05510465
 Pairs        0.05391470    0.00000001   -0.05095287
 Total        1.06760399   -0.04506420   -1.00894229
 +++++++++++++++++++++++++++++++++++++++++++++++++++


 Reference energy                   -2787.87334977
 Nuclear energy                         0.00000000
 Kinetic energy                      2994.24351777
 One electron energy                -3865.49815381
 Two electron energy                 1076.61586175
 Virial quotient                       -0.93141465
 Correlation energy                    -1.00894229
 !MRCI STATE 2.1 Energy             -2788.882292059345

 Properties without orbital relaxation:

 !MRCI STATE 2.1 Dipole moment          0.00000000     0.00000000     0.00000000
 Dipole moment /Debye                   0.00000000     0.00000000     0.00000000

 Cluster corrected energies         -2788.95050058 (Davidson, fixed reference)
 Cluster corrected energies         -2788.95049895 (Davidson, relaxed reference)
 Cluster corrected energies         -2788.95050058 (Davidson, rotated reference)

 Cluster corrected energies         -2788.94904956 (Pople, fixed reference)
 Cluster corrected energies         -2788.94904787 (Pople, relaxed reference)
 Cluster corrected energies         -2788.94904956 (Pople, rotated reference)



 RESULTS FOR STATE 3.1
 =====================

 Maximum overlap with reference state  4

 Coefficient of reference function:   C(0) = 0.96781145 (fixed)   0.96782134 (relaxed)   0.96782061 (rotated)

 Energy contributions of configuration classes

 CLASS          SQ.NORM        ECORR1        ECORR2
 +++++++++++++++++++++++++++++++++++++++++++++++++++
 Internals    0.00000820   -0.00003701   -0.90288457
 Singles      0.01368107   -0.04502719   -0.05510464
 Pairs        0.05391491   -0.00000003   -0.05095307
 Total        1.06760418   -0.04506423   -1.00894228
 +++++++++++++++++++++++++++++++++++++++++++++++++++


 Reference energy                   -2787.87334977
 Nuclear energy                         0.00000000
 Kinetic energy                      2994.24367067
 One electron energy                -3865.49825920
 Two electron energy                 1076.61596715
 Virial quotient                       -0.93141461
 Correlation energy                    -1.00894228
 !MRCI STATE 3.1 Energy             -2788.882292049515

 Properties without orbital relaxation:

 !MRCI STATE 3.1 Dipole moment          0.00000000     0.00000000     0.00000000
 Dipole moment /Debye                   0.00000000     0.00000000     0.00000000

 Cluster corrected energies         -2788.95050077 (Davidson, fixed reference)
 Cluster corrected energies         -2788.95049914 (Davidson, relaxed reference)
 Cluster corrected energies         -2788.95050077 (Davidson, rotated reference)

 Cluster corrected energies         -2788.94904975 (Pople, fixed reference)
 Cluster corrected energies         -2788.94904806 (Pople, relaxed reference)
 Cluster corrected energies         -2788.94904975 (Pople, rotated reference)



 RESULTS FOR STATE 4.1
 =====================

 Maximum overlap with reference state  5

 Coefficient of reference function:   C(0) = 0.96781456 (fixed)   0.96782142 (relaxed)   0.96782069 (rotated)

 Energy contributions of configuration classes

 CLASS          SQ.NORM        ECORR1        ECORR2
 +++++++++++++++++++++++++++++++++++++++++++++++++++
 Internals    0.00000821   -0.00003701   -0.90288474
 Singles      0.01368103   -0.04502712   -0.05510455
 Pairs        0.05391477   -0.00000003   -0.05095294
 Total        1.06760401   -0.04506416   -1.00894223
 +++++++++++++++++++++++++++++++++++++++++++++++++++


 Reference energy                   -2787.87334976
 Nuclear energy                         0.00000000
 Kinetic energy                      2994.24361833
 One electron energy                -3865.49822539
 Two electron energy                 1076.61593339
 Virial quotient                       -0.93141462
 Correlation energy                    -1.00894223
 !MRCI STATE 4.1 Energy             -2788.882291996949

 Properties without orbital relaxation:

 !MRCI STATE 4.1 Dipole moment          0.00000000     0.00000000     0.00000000
 Dipole moment /Debye                   0.00000000     0.00000000     0.00000000

 Cluster corrected energies         -2788.95050053 (Davidson, fixed reference)
 Cluster corrected energies         -2788.95049891 (Davidson, relaxed reference)
 Cluster corrected energies         -2788.95050053 (Davidson, rotated reference)

 Cluster corrected energies         -2788.94904951 (Pople, fixed reference)
 Cluster corrected energies         -2788.94904782 (Pople, relaxed reference)
 Cluster corrected energies         -2788.94904951 (Pople, rotated reference)



 RESULTS FOR STATE 5.1
 =====================

 Maximum overlap with reference state  6

 Coefficient of reference function:   C(0) = 0.82821914 (fixed)   0.96782105 (relaxed)   0.96782033 (rotated)

 Energy contributions of configuration classes

 CLASS          SQ.NORM        ECORR1        ECORR2
 +++++++++++++++++++++++++++++++++++++++++++++++++++
 Internals    0.00000820   -0.00003701   -0.90288423
 Singles      0.01368108   -0.04502728   -0.05510457
 Pairs        0.05391553    0.00000035   -0.05095340
 Total        1.06760481   -0.04506395   -1.00894221
 +++++++++++++++++++++++++++++++++++++++++++++++++++


 Reference energy                   -2787.87334977
 Nuclear energy                         0.00000000
 Kinetic energy                      2994.24372852
 One electron energy                -3865.49831385
 Two electron energy                 1076.61602188
 Virial quotient                       -0.93141459
 Correlation energy                    -1.00894221
 !MRCI STATE 5.1 Energy             -2788.882291975613

 Properties without orbital relaxation:

 !MRCI STATE 5.1 Dipole moment          0.00000000     0.00000000     0.00000000
 Dipole moment /Debye                   0.00000000     0.00000000     0.00000000

 Cluster corrected energies         -2788.95050132 (Davidson, fixed reference)
 Cluster corrected energies         -2788.95049970 (Davidson, relaxed reference)
 Cluster corrected energies         -2788.95050132 (Davidson, rotated reference)

 Cluster corrected energies         -2788.94905033 (Pople, fixed reference)
 Cluster corrected energies         -2788.94904865 (Pople, relaxed reference)
 Cluster corrected energies         -2788.94905033 (Pople, rotated reference)



 RESULTS FOR STATE 6.1
 =====================

 Maximum overlap with reference state  2

 Coefficient of reference function:   C(0) = 0.82822214 (fixed)   0.96782118 (relaxed)   0.96782045 (rotated)

 Energy contributions of configuration classes

 CLASS          SQ.NORM        ECORR1        ECORR2
 +++++++++++++++++++++++++++++++++++++++++++++++++++
 Internals    0.00000820   -0.00003701   -0.90288438
 Singles      0.01368104   -0.04502718   -0.05510446
 Pairs        0.05391530    0.00000024   -0.05095329
 Total        1.06760454   -0.04506395   -1.00894213
 +++++++++++++++++++++++++++++++++++++++++++++++++++


 Reference energy                   -2787.87334977
 Nuclear energy                         0.00000000
 Kinetic energy                      2994.24366957
 One electron energy                -3865.49827611
 Two electron energy                 1076.61598421
 Virial quotient                       -0.93141461
 Correlation energy                    -1.00894213
 !MRCI STATE 6.1 Energy             -2788.882291894579

 Properties without orbital relaxation:

 !MRCI STATE 6.1 Dipole moment          0.00000000     0.00000000     0.00000000
 Dipole moment /Debye                   0.00000000     0.00000000     0.00000000

 Cluster corrected energies         -2788.95050096 (Davidson, fixed reference)
 Cluster corrected energies         -2788.95049934 (Davidson, relaxed reference)
 Cluster corrected energies         -2788.95050096 (Davidson, rotated reference)

 Cluster corrected energies         -2788.94904996 (Pople, fixed reference)
 Cluster corrected energies         -2788.94904828 (Pople, relaxed reference)
 Cluster corrected energies         -2788.94904996 (Pople, rotated reference)



 RESULTS FOR STATE 7.1
 =====================

 Coefficient of reference function:   C(0) = 0.96646045 (fixed)   0.96764533 (relaxed)   0.96764530 (rotated)

 Energy contributions of configuration classes

 CLASS          SQ.NORM        ECORR1        ECORR2
 +++++++++++++++++++++++++++++++++++++++++++++++++++
 Internals    0.00000701   -0.00003692   -0.90221640
 Singles      0.01415423   -0.04620042   -0.05664094
 Pairs        0.05382981   -0.00000001   -0.05089504
 Total        1.06799105   -0.04623734   -1.00975239
 +++++++++++++++++++++++++++++++++++++++++++++++++++


 Reference energy                   -2787.86905038
 Nuclear energy                         0.00000000
 Kinetic energy                      2994.24078364
 One electron energy                -3865.48147371
 Two electron energy                 1076.60267094
 Virial quotient                       -0.93141434
 Correlation energy                    -1.00975239
 !MRCI STATE 7.1 Energy             -2788.878802770962

 Properties without orbital relaxation:

 !MRCI STATE 7.1 Dipole moment          0.00000000     0.00000000     0.00000000
 Dipole moment /Debye                   0.00000000     0.00000000     0.00000000

 Cluster corrected energies         -2788.94745690 (Davidson, fixed reference)
 Cluster corrected energies         -2788.94745684 (Davidson, relaxed reference)
 Cluster corrected energies         -2788.94745690 (Davidson, rotated reference)

 Cluster corrected energies         -2788.94601944 (Pople, fixed reference)
 Cluster corrected energies         -2788.94601938 (Pople, relaxed reference)
 Cluster corrected energies         -2788.94601944 (Pople, rotated reference)



 RESULTS FOR STATE 8.1
 =====================

 Coefficient of reference function:   C(0) = 0.96649176 (fixed)   0.96764528 (relaxed)   0.96764525 (rotated)

 Energy contributions of configuration classes

 CLASS          SQ.NORM        ECORR1        ECORR2
 +++++++++++++++++++++++++++++++++++++++++++++++++++
 Internals    0.00000701   -0.00003692   -0.90221631
 Singles      0.01415421   -0.04620040   -0.05664092
 Pairs        0.05382994   -0.00000002   -0.05089515
 Total        1.06799116   -0.04623734   -1.00975239
 +++++++++++++++++++++++++++++++++++++++++++++++++++


 Reference energy                   -2787.86905038
 Nuclear energy                         0.00000000
 Kinetic energy                      2994.24086420
 One electron energy                -3865.48153109
 Two electron energy                 1076.60272832
 Virial quotient                       -0.93141431
 Correlation energy                    -1.00975239
 !MRCI STATE 8.1 Energy             -2788.878802768242

 Properties without orbital relaxation:

 !MRCI STATE 8.1 Dipole moment          0.00000000     0.00000000     0.00000000
 Dipole moment /Debye                   0.00000000     0.00000000     0.00000000

 Cluster corrected energies         -2788.94745701 (Davidson, fixed reference)
 Cluster corrected energies         -2788.94745695 (Davidson, relaxed reference)
 Cluster corrected energies         -2788.94745701 (Davidson, rotated reference)

 Cluster corrected energies         -2788.94601956 (Pople, fixed reference)
 Cluster corrected energies         -2788.94601950 (Pople, relaxed reference)
 Cluster corrected energies         -2788.94601956 (Pople, rotated reference)



 RESULTS FOR STATE 9.1
 =====================

 Coefficient of reference function:   C(0) = 0.96761324 (fixed)   0.96764530 (relaxed)   0.96764527 (rotated)

 Energy contributions of configuration classes

 CLASS          SQ.NORM        ECORR1        ECORR2
 +++++++++++++++++++++++++++++++++++++++++++++++++++
 Internals    0.00000701   -0.00003692   -0.90221636
 Singles      0.01415422   -0.04620039   -0.05664090
 Pairs        0.05382988    0.00000001   -0.05089510
 Total        1.06799112   -0.04623731   -1.00975236
 +++++++++++++++++++++++++++++++++++++++++++++++++++


 Reference energy                   -2787.86905038
 Nuclear energy                         0.00000000
 Kinetic energy                      2994.24083308
 One electron energy                -3865.48150978
 Two electron energy                 1076.60270703
 Virial quotient                       -0.93141432
 Correlation energy                    -1.00975236
 !MRCI STATE 9.1 Energy             -2788.878802744020

 Properties without orbital relaxation:

 !MRCI STATE 9.1 Dipole moment          0.00000000     0.00000000     0.00000000
 Dipole moment /Debye                   0.00000000     0.00000000     0.00000000

 Cluster corrected energies         -2788.94745693 (Davidson, fixed reference)
 Cluster corrected energies         -2788.94745687 (Davidson, relaxed reference)
 Cluster corrected energies         -2788.94745693 (Davidson, rotated reference)

 Cluster corrected energies         -2788.94601948 (Pople, fixed reference)
 Cluster corrected energies         -2788.94601942 (Pople, relaxed reference)
 Cluster corrected energies         -2788.94601948 (Pople, rotated reference)



 RESULTS FOR STATE 10.1
 ======================

 Coefficient of reference function:   C(0) = 0.96576001 (fixed)   0.96604424 (relaxed)   0.96604147 (rotated)

 Energy contributions of configuration classes

 CLASS          SQ.NORM        ECORR1        ECORR2
 +++++++++++++++++++++++++++++++++++++++++++++++++++
 Internals    0.00001256   -0.00004978    0.00010089
 Singles      0.01673760   -0.04917271   -0.06181890
 Pairs        0.05479002   -0.97053973   -0.95787351
 Total        1.07154018   -1.01976221   -1.01959153
 +++++++++++++++++++++++++++++++++++++++++++++++++++


 Reference energy                   -2787.83939184
 Nuclear energy                         0.00000000
 Kinetic energy                      2994.49453977
 One electron energy                -3866.33296486
 Two electron energy                 1077.47425153
 Virial quotient                       -0.93132870
 Correlation energy                    -1.01932149
 !MRCI STATE 10.1 Energy            -2788.858713333213

 Properties without orbital relaxation:

 !MRCI STATE 10.1 Dipole moment         0.00000000     0.00000000     0.00000000
 Dipole moment /Debye                   0.00000000     0.00000000     0.00000000

 Cluster corrected energies         -2788.93163578 (Davidson, fixed reference)
 Cluster corrected energies         -2788.93162950 (Davidson, relaxed reference)
 Cluster corrected energies         -2788.93163578 (Davidson, rotated reference)

 Cluster corrected energies         -2788.93033416 (Pople, fixed reference)
 Cluster corrected energies         -2788.93032761 (Pople, relaxed reference)
[...]
  6  1     6    1  |0 0>          0.00%    0.00%    0.00%    0.00%    0.00%    0.36%   41.51%    0.00%
  7  1     7    1  |0 0>          0.00%    0.00%    0.00%    2.87%    0.00%    0.00%    0.00%    0.00%
  8  1     8    1  |0 0>          0.00%    2.87%    0.00%    0.00%    0.00%    0.00%    0.00%    0.00%
  9  1     9    1  |0 0>          0.00%    0.00%    2.87%    0.00%    0.00%    0.00%    0.00%    0.00%
 10  1    10    1  |0 0>          0.00%    0.00%    0.00%    0.00%    0.00%    0.00%    0.00%    0.00%
 11  1     1    1  |1 1>+         0.00%    0.00%   85.02%    0.00%    0.00%    0.00%    0.00%    0.00%
 12  1     2    1  |1 1>+         0.00%    0.00%    0.03%    0.00%    0.00%    0.00%    0.00%    0.00%
 13  1     3    1  |1 1>+         0.00%    0.00%    0.01%    0.00%    0.00%    0.02%    0.02%    0.00%
 14  1     4    1  |1 1>+         0.00%    0.00%    0.00%    0.00%    0.01%   16.48%   19.38%    0.00%
 15  1     5    1  |1 1>+         0.00%    0.03%    0.00%    0.00%    8.91%    0.00%    0.00%    0.01%
 16  1     6    1  |1 1>+         0.00%    0.00%    0.00%    0.03%    0.01%    0.00%    0.00%    8.91%
 17  1     7    1  |1 1>+         0.00%    6.01%    0.00%    0.00%    2.13%    0.00%    0.00%    0.00%
 18  1     8    1  |1 1>+         0.00%    0.00%    0.00%    6.01%    0.00%    0.00%    0.00%    2.13%
 19  1     9    1  |1 1>+         0.01%    0.00%    0.00%    0.00%    0.00%    1.54%    1.31%    0.00%
 20  1     1    1  |1 0>          0.00%    0.08%    0.00%   84.94%    0.00%    0.00%    0.00%    0.00%
 21  1     2    1  |1 0>          0.00%    0.00%    0.00%    0.03%    0.00%    0.00%    0.00%   10.17%
 22  1     3    1  |1 0>          0.00%    0.00%    0.00%    0.01%    0.00%    0.00%    0.00%   25.79%
 23  1     4    1  |1 0>          0.00%    0.03%    0.00%    0.00%    8.92%    0.00%    0.00%    0.01%
 24  1     5    1  |1 0>          0.00%    0.00%    0.00%    0.00%    0.00%    3.19%   32.65%    0.00%
 25  1     6    1  |1 0>          0.00%    0.00%    0.03%    0.00%    0.00%    0.00%    0.07%    0.00%
 26  1     7    1  |1 0>          0.01%    0.00%    0.00%    0.00%    0.00%    2.59%    0.25%    0.00%
 27  1     8    1  |1 0>          0.00%    0.00%    6.01%    0.00%    0.00%    0.00%    0.00%    0.00%
 28  1     9    1  |1 0>          0.00%    6.00%    0.00%    0.01%    2.13%    0.00%    0.00%    0.00%
 29  1     1    1  |1 1>-         0.00%   84.94%    0.00%    0.08%    0.00%    0.00%    0.00%    0.00%
 30  1     2    1  |1 1>-         0.00%    0.00%    0.00%    0.00%   35.94%    0.01%    0.00%    0.00%
 31  1     3    1  |1 1>-         0.00%    0.04%    0.00%    0.00%    0.05%    0.00%    0.00%    0.00%
 32  1     4    1  |1 1>-         0.00%    0.00%    0.00%    0.03%    0.00%    0.00%    0.00%    8.95%
 33  1     5    1  |1 1>-         0.00%    0.00%    0.03%    0.00%    0.00%    0.07%    0.00%    0.00%
 34  1     6    1  |1 1>-         0.00%    0.00%    0.00%    0.00%    0.01%   34.07%    1.73%    0.00%
 35  1     7    1  |1 1>-         0.00%    0.00%    6.01%    0.00%    0.00%    0.00%    0.00%    0.00%
 36  1     8    1  |1 1>-         0.01%    0.00%    0.00%    0.00%    0.00%    0.14%    2.70%    0.00%
 37  1     9    1  |1 1>-         0.00%    0.01%    0.00%    6.00%    0.00%    0.00%    0.00%    2.13%

   Total
 Nr Sym  State Sym Spin / Nr.      9       10       11       12       13       14       15       16

  1  1     1    1  |0 0>          0.00%    0.00%    0.00%    0.00%    0.00%    0.00%    0.00%    0.00%
  2  1     2    1  |0 0>          0.00%    0.00%    0.00%    0.00%    0.00%    0.00%    0.00%    0.00%
  3  1     3    1  |0 0>          0.00%    0.00%    0.00%    0.00%    0.00%    0.00%    0.00%    0.00%
  4  1     4    1  |0 0>         41.87%    0.00%    0.00%    0.00%    0.00%    0.00%    0.00%    0.00%
  5  1     5    1  |0 0>          0.00%    0.00%    0.00%    0.00%    0.00%    0.00%    0.00%    0.00%
  6  1     6    1  |0 0>          0.01%    0.00%    0.00%    0.00%    0.00%    0.00%    0.00%    0.00%
  7  1     7    1  |0 0>          0.00%    0.00%    0.00%    0.00%    0.00%    0.00%    0.00%    0.00%
  8  1     8    1  |0 0>          0.00%    0.00%    0.00%    0.00%    0.00%    0.00%    0.00%    0.00%
  9  1     9    1  |0 0>          0.00%    0.00%    0.00%    0.00%    0.00%    0.00%    0.00%    0.00%
 10  1    10    1  |0 0>          0.00%    0.00%    0.00%    0.00%    0.00%    0.00%    0.00%    0.00%
 11  1     1    1  |1 1>+         0.00%    0.00%    0.00%    0.00%    0.00%    0.00%    0.00%    0.00%
 12  1     2    1  |1 1>+         7.91%   48.69%    1.39%    0.00%    0.00%    0.00%    4.04%    0.00%
 13  1     3    1  |1 1>+        28.02%    9.39%    0.27%    0.00%    0.00%    0.00%   29.49%    0.00%
 14  1     4    1  |1 1>+         0.04%    0.00%    0.00%    0.00%    0.00%    0.00%    0.00%   33.32%
 15  1     5    1  |1 1>+         0.00%    0.00%    0.04%    8.80%   44.51%    0.04%    0.00%    0.00%
 16  1     6    1  |1 1>+         0.00%    0.63%   22.14%    0.00%    0.00%   30.60%    0.00%    0.00%
 17  1     7    1  |1 1>+         0.00%    0.00%    0.00%    0.00%    0.00%    0.00%    0.00%    0.00%
 18  1     8    1  |1 1>+         0.00%    0.00%    0.00%    0.00%    0.00%    0.00%    0.00%    0.00%
 19  1     9    1  |1 1>+         0.00%    0.00%    0.00%    0.00%    0.00%    0.00%    0.00%    0.00%
 20  1     1    1  |1 0>          0.00%    0.00%    0.00%    0.00%    0.00%    0.00%    0.00%    0.00%
 21  1     2    1  |1 0>          0.00%    1.25%   43.86%    0.00%    0.02%    7.31%    0.00%    0.00%
 22  1     3    1  |1 0>          0.00%    0.41%   14.39%    0.09%    0.05%   25.89%    0.00%    0.00%
 23  1     4    1  |1 0>          0.00%    0.00%    0.01%   51.85%    1.46%    0.05%    0.00%    0.00%
 24  1     5    1  |1 0>          0.03%    0.08%    0.00%    0.00%    0.00%    0.00%    0.01%   33.27%
 25  1     6    1  |1 0>          8.90%   24.46%    0.70%    0.00%    0.00%    0.00%   28.14%    0.04%
 26  1     7    1  |1 0>          0.00%    0.00%    0.00%    0.00%    0.00%    0.00%    0.00%    0.00%
 27  1     8    1  |1 0>          2.13%    0.00%    0.00%    0.00%    0.00%    0.00%    0.00%    0.00%
 28  1     9    1  |1 0>          0.00%    0.00%    0.00%    0.00%    0.00%    0.00%    0.00%    0.00%
 29  1     1    1  |1 1>-         0.00%    0.00%    0.00%    0.00%    0.00%    0.00%    0.00%    0.00%
 30  1     2    1  |1 1>-         0.00%    0.00%    0.00%   24.38%    8.82%    0.06%    0.00%    0.00%
 31  1     3    1  |1 1>-         0.00%    0.00%    0.02%   14.82%   45.11%    0.02%    0.00%    0.00%
 32  1     4    1  |1 1>-         0.00%    0.47%   16.77%    0.06%    0.02%   36.03%    0.00%    0.00%
 33  1     5    1  |1 1>-         8.93%   14.61%    0.41%    0.00%    0.00%    0.00%   38.30%    0.00%
 34  1     6    1  |1 1>-         0.03%    0.00%    0.00%    0.00%    0.00%    0.00%    0.02%   33.36%
 35  1     7    1  |1 1>-         2.13%    0.00%    0.00%    0.00%    0.00%    0.00%    0.00%    0.00%
 36  1     8    1  |1 1>-         0.00%    0.00%    0.00%    0.00%    0.00%    0.00%    0.00%    0.00%
 37  1     9    1  |1 1>-         0.00%    0.00%    0.00%    0.00%    0.00%    0.00%    0.00%    0.00%

   Total
 Nr Sym  State Sym Spin / Nr.     17       18       19       20       21       22       23       24

  1  1     1    1  |0 0>          0.00%    0.00%    0.00%    0.00%    0.00%    0.00%    0.00%    0.00%
  2  1     2    1  |0 0>          0.00%    0.00%    0.00%    0.00%    0.01%    0.00%    0.00%   23.84%
  3  1     3    1  |0 0>          0.00%    0.00%    0.00%    0.00%   23.84%    0.00%    0.00%    0.01%
  4  1     4    1  |0 0>          0.00%    0.00%    0.00%    0.01%    0.00%   23.81%    0.03%    0.00%
  5  1     5    1  |0 0>          0.00%    0.00%    0.00%   20.45%    0.00%    0.00%    3.39%    0.00%
  6  1     6    1  |0 0>          0.00%    0.00%    0.00%    3.39%    0.00%    0.04%   20.42%    0.00%
  7  1     7    1  |0 0>          0.01%    0.00%   51.41%    0.00%    0.00%    0.00%    0.00%    0.00%
  8  1     8    1  |0 0>         51.42%    0.00%    0.01%    0.00%    0.00%    0.00%    0.00%    0.00%
  9  1     9    1  |0 0>          0.00%   51.42%    0.00%    0.00%    0.00%    0.00%    0.00%    0.00%
 10  1    10    1  |0 0>          0.00%    0.00%    0.00%    0.00%    0.00%    0.00%    0.00%    0.00%
 11  1     1    1  |1 1>+         0.00%    0.42%    0.00%    0.00%    0.00%    0.00%    0.00%    0.00%
 12  1     2    1  |1 1>+         0.00%    7.86%    0.00%    0.00%    0.00%    0.53%    0.00%    0.00%
 13  1     3    1  |1 1>+         0.00%    2.21%    0.00%    0.00%    0.00%    1.90%    0.00%    0.00%
 14  1     4    1  |1 1>+         0.00%    0.00%    0.00%    1.80%    0.00%    0.00%    0.63%    0.00%
 15  1     5    1  |1 1>+         7.55%    0.00%    0.00%    0.00%    0.61%    0.00%    0.00%    0.00%
 16  1     6    1  |1 1>+         0.00%    0.00%    7.55%    0.00%    0.00%    0.00%    0.00%    0.61%
 17  1     7    1  |1 1>+        11.50%    0.00%    0.00%    0.00%   36.25%    0.00%    0.00%    0.00%
 18  1     8    1  |1 1>+         0.00%    0.00%   11.50%    0.00%    0.00%    0.00%    0.00%   36.25%
 19  1     9    1  |1 1>+         0.00%    0.00%    0.00%   12.48%    0.00%    0.02%   35.83%    0.00%
 20  1     1    1  |1 0>          0.00%    0.00%    0.42%    0.00%    0.00%    0.00%    0.00%    0.00%
 21  1     2    1  |1 0>          0.01%    0.00%    7.21%    0.00%    0.00%    0.00%    0.00%    0.69%
 22  1     3    1  |1 0>          0.00%    0.00%    2.84%    0.00%    0.00%    0.00%    0.00%    1.75%
 23  1     4    1  |1 0>          7.54%    0.00%    0.01%    0.00%    0.61%    0.00%    0.00%    0.00%
 24  1     5    1  |1 0>          0.00%    0.01%    0.00%    0.00%    0.00%    0.00%    2.43%    0.00%
 25  1     6    1  |1 0>          0.00%    7.54%    0.00%    0.00%    0.00%    0.61%    0.00%    0.00%
 26  1     7    1  |1 0>          0.00%    0.01%    0.00%   48.32%    0.00%    0.00%    0.00%    0.00%
 27  1     8    1  |1 0>          0.00%   11.48%    0.00%    0.01%    0.00%   36.21%    0.04%    0.00%
 28  1     9    1  |1 0>         11.48%    0.00%    0.01%    0.00%   36.24%    0.00%    0.00%    0.02%
 29  1     1    1  |1 1>-         0.42%    0.00%    0.00%    0.00%    0.00%    0.00%    0.00%    0.00%
 30  1     2    1  |1 1>-         0.01%    0.00%    0.00%    0.00%    2.43%    0.00%    0.00%    0.00%
 31  1     3    1  |1 1>-        10.05%    0.00%    0.00%    0.00%    0.00%    0.00%    0.00%    0.00%
 32  1     4    1  |1 1>-         0.00%    0.00%    7.55%    0.00%    0.00%    0.00%    0.00%    0.61%
 33  1     5    1  |1 1>-         0.00%    7.54%    0.00%    0.00%    0.00%    0.61%    0.00%    0.00%
 34  1     6    1  |1 1>-         0.00%    0.01%    0.00%    1.84%    0.00%    0.00%    0.59%    0.00%
 35  1     7    1  |1 1>-         0.00%   11.49%    0.00%    0.00%    0.00%   36.25%    0.00%    0.00%
 36  1     8    1  |1 1>-         0.00%    0.01%    0.00%   11.70%    0.00%    0.01%   36.62%    0.00%
 37  1     9    1  |1 1>-         0.01%    0.00%   11.48%    0.00%    0.02%    0.00%    0.00%   36.23%

   Total
 Nr Sym  State Sym Spin / Nr.     25       26       27       28       29       30       31       32

  1  1     1    1  |0 0>          0.03%    0.00%    0.00%    0.00%    0.00%    0.00%    0.00%    0.00%
  2  1     2    1  |0 0>          0.00%    0.00%    0.00%    0.00%    0.00%    0.00%    0.00%    0.04%
  3  1     3    1  |0 0>          0.00%    0.00%    0.00%    0.00%    0.03%   34.24%    0.00%    0.00%
  4  1     4    1  |0 0>          0.00%    0.00%    0.00%    0.00%    0.00%    0.00%   34.26%    0.01%
  5  1     5    1  |0 0>          0.00%    0.00%    0.00%    0.00%   30.77%    0.03%    0.00%    3.46%
  6  1     6    1  |0 0>          0.00%    0.00%    0.00%    0.00%    3.47%    0.00%    0.01%   30.75%
  7  1     7    1  |0 0>          0.00%    0.01%    1.88%   24.66%    0.00%    0.00%    0.00%    0.00%
  8  1     8    1  |0 0>          0.00%    0.09%   24.57%    1.89%    0.00%    0.00%    0.00%    0.00%
  9  1     9    1  |0 0>          0.00%   26.46%    0.10%    0.00%    0.00%    0.00%    0.00%    0.00%
 10  1    10    1  |0 0>         32.58%    0.00%    0.00%    0.00%    0.00%    0.00%    0.00%    0.00%
 11  1     1    1  |1 1>+         0.00%    0.57%    0.00%    0.00%    0.00%    0.00%    0.00%    0.00%
 12  1     2    1  |1 1>+         0.00%   22.20%    0.08%    0.00%    0.00%    0.00%    6.21%    0.00%
 13  1     3    1  |1 1>+         0.00%    6.23%    0.02%    0.00%    0.01%    0.00%   22.10%    0.00%
 14  1     4    1  |1 1>+         0.00%    0.00%    0.00%    0.00%   19.38%    0.02%    0.00%    8.91%
 15  1     5    1  |1 1>+         0.00%    0.07%   19.70%    1.63%    0.01%    7.06%    0.00%    0.00%
 16  1     6    1  |1 1>+         0.00%    0.00%    1.62%   19.78%    0.00%    0.01%    0.00%    0.01%
 17  1     7    1  |1 1>+         0.00%    0.00%    0.69%    0.06%    0.01%   11.62%    0.00%    0.00%
 18  1     8    1  |1 1>+         0.00%    0.00%    0.06%    0.70%    0.00%    0.00%    0.00%    0.01%
 19  1     9    1  |1 1>+        22.47%    0.00%    0.00%    0.00%    4.87%    0.00%    0.01%   10.60%
 20  1     1    1  |1 0>          0.00%    0.00%    0.06%    0.52%    0.00%    0.00%    0.00%    0.00%
 21  1     2    1  |1 0>          0.00%    0.01%    2.05%   18.43%    0.00%    0.00%    0.00%    0.01%
 22  1     3    1  |1 0>          0.00%    0.00%    0.64%    7.42%    0.00%    0.00%    0.00%    0.02%
 23  1     4    1  |1 0>          0.00%    0.07%   19.34%    1.99%    0.01%    7.08%    0.00%    0.00%
 24  1     5    1  |1 0>          0.00%    0.03%    0.00%    0.00%    0.15%    0.00%    0.00%   28.12%
 25  1     6    1  |1 0>          0.00%   21.29%    0.08%    0.00%    0.00%    0.00%    7.09%    0.02%
 26  1     7    1  |1 0>         22.45%    0.00%    0.00%    0.00%   15.38%    0.01%    0.01%    0.08%
 27  1     8    1  |1 0>          0.02%    0.75%    0.00%    0.00%    0.01%    0.00%   11.58%    0.00%
 28  1     9    1  |1 0>          0.00%    0.00%    0.68%    0.07%    0.01%   11.58%    0.00%    0.00%
 29  1     1    1  |1 1>-         0.00%    0.00%    0.52%    0.06%    0.00%    0.00%    0.00%    0.00%
 30  1     2    1  |1 1>-         0.00%    0.00%    0.04%    0.00%    0.03%   28.26%    0.00%    0.00%
 31  1     3    1  |1 1>-         0.00%    0.10%   25.89%    2.51%    0.00%    0.04%    0.00%    0.00%
 32  1     4    1  |1 1>-         0.00%    0.01%    1.81%   19.60%    0.00%    0.00%    0.00%    0.01%
 33  1     5    1  |1 1>-         0.00%   21.29%    0.08%    0.00%    0.04%    0.00%    7.05%    0.02%
 34  1     6    1  |1 1>-         0.00%    0.03%    0.00%    0.00%   22.87%    0.03%    0.03%    5.36%
 35  1     7    1  |1 1>-         0.02%    0.76%    0.00%    0.00%    0.00%    0.00%   11.63%    0.00%
 36  1     8    1  |1 1>-        22.45%    0.00%    0.00%    0.00%    2.94%    0.00%    0.00%   12.52%
 37  1     9    1  |1 1>-         0.00%    0.00%    0.07%    0.68%    0.00%    0.00%    0.00%    0.01%

   Total
 Nr Sym  State Sym Spin / Nr.     33       34       35       36       37

  1  1     1    1  |0 0>          0.00%    0.00%    0.00%    0.00%    0.01%
  2  1     2    1  |0 0>         34.23%    0.00%    0.00%    0.00%    0.00%
  3  1     3    1  |0 0>          0.00%    0.00%    0.00%    0.00%    0.00%
  4  1     4    1  |0 0>          0.00%    0.00%    0.00%    0.00%    0.00%
  5  1     5    1  |0 0>          0.00%    0.00%    0.00%    0.00%    0.00%
  6  1     6    1  |0 0>          0.04%    0.00%    0.00%    0.00%    0.00%
  7  1     7    1  |0 0>          0.00%    0.00%    0.00%   19.14%    0.00%
  8  1     8    1  |0 0>          0.00%    0.00%   19.14%    0.00%    0.00%
  9  1     9    1  |0 0>          0.00%   19.14%    0.00%    0.00%    0.00%
 10  1    10    1  |0 0>          0.00%    0.00%    0.00%    0.00%   67.42%
 11  1     1    1  |1 1>+         0.00%   13.98%    0.00%    0.00%    0.00%
 12  1     2    1  |1 1>+         0.00%    1.06%    0.00%    0.00%    0.00%
 13  1     3    1  |1 1>+         0.00%    0.30%    0.00%    0.00%    0.00%
 14  1     4    1  |1 1>+         0.01%    0.00%    0.00%    0.00%    0.00%
 15  1     5    1  |1 1>+         0.01%    0.00%    1.02%    0.00%    0.00%
 16  1     6    1  |1 1>+         7.07%    0.00%    0.00%    1.02%    0.00%
 17  1     7    1  |1 1>+         0.00%    0.00%   31.71%    0.00%    0.00%
 18  1     8    1  |1 1>+        11.60%    0.00%    0.00%   31.73%    0.00%
 19  1     9    1  |1 1>+         0.01%    0.00%    0.00%    0.00%   10.85%
 20  1     1    1  |1 0>          0.00%    0.00%    0.02%   13.97%    0.00%
 21  1     2    1  |1 0>          7.98%    0.00%    0.00%    0.98%    0.00%
 22  1     3    1  |1 0>         20.31%    0.00%    0.00%    0.38%    0.00%
 23  1     4    1  |1 0>          0.01%    0.00%    1.02%    0.00%    0.00%
 24  1     5    1  |1 0>          0.03%    0.00%    0.00%    0.00%    0.00%
 25  1     6    1  |1 0>          0.00%    1.02%    0.00%    0.00%    0.00%
 26  1     7    1  |1 0>          0.00%    0.02%    0.00%    0.00%   10.85%
 27  1     8    1  |1 0>          0.00%   31.73%    0.00%    0.00%    0.01%
 28  1     9    1  |1 0>          0.00%    0.00%   31.72%    0.04%    0.00%
 29  1     1    1  |1 1>-         0.00%    0.00%   13.97%    0.02%    0.00%
 30  1     2    1  |1 1>-         0.00%    0.00%    0.00%    0.00%    0.00%
 31  1     3    1  |1 1>-         0.00%    0.00%    1.36%    0.00%    0.00%
 32  1     4    1  |1 1>-         7.07%    0.00%    0.00%    1.02%    0.00%
 33  1     5    1  |1 1>-         0.00%    1.02%    0.00%    0.00%    0.00%
 34  1     6    1  |1 1>-         0.01%    0.00%    0.00%    0.00%    0.00%
 35  1     7    1  |1 1>-         0.00%   31.69%    0.00%    0.00%    0.01%
 36  1     8    1  |1 1>-         0.01%    0.02%    0.00%    0.00%   10.85%
 37  1     9    1  |1 1>-        11.60%    0.00%    0.04%   31.70%    0.00%


 No matrix element <i|DMX|i> larger than 5E-7
 No matrix element <i|DMX|1> larger than 5E-7


 **********************************************************************************************************************************
 DATASETS  * FILE   NREC   LENGTH (MB)   RECORD NAMES
              1      24     1483.10       500      610      700      900      950      970     1000      129      960     1700   
                                          VAR    BASINP    GEOM    SYMINP    ZMAT    AOBASIS   BASIS     P2S    ABASIS    OPER   
                                         1101     1401     1411     1412     1650     1100     1400     1410     1200     1210   
                                          SR      EKINR    POTR     PVPR    MOLCAS      S      EKIN      POT      H0       H01  
                                         1080     1600     1380     1700(1)
                                         AOSYM     SMH     JKOP     OPER   

              2       7     3265.70       700     1000      520     2100     2140     5201     5202   
                                         GEOM     BASIS   MCVARS     RHF     MCSCF    MRCI     MRCI   

 PROGRAMS   *        TOTAL        CI     LSINT        CI        CI     MULTI   RHF-SCF       INT
 CPU TIMES  *     81260.93  71343.03     25.19   5121.44   4760.18      6.94      0.32      3.58
 REAL TIME  *     82142.18 SEC
 DISK USED  *         3.26 GB (local),       50.58 GB (total)
 SF USED    *        16.21 GB
 GA USED    *         0.00 MB       (max)       0.00 MB       (current)
 **********************************************************************************************************************************

 CI/USERDEF energy=  -2788.924588856801

              CI              CI           MULTI         RHF-SCF
  -2788.87861419  -2788.85871333  -2787.86933878  -2787.15563624
 **********************************************************************************************************************************
 Molpro calculation terminated with 1 warning(s)
