
 Working directory              : /wrk/irikura/molpro.CPBoO66x5I/
 Global scratch directory       : /wrk/irikura/molpro.CPBoO66x5I/
 Wavefunction directory         : /home/irikura/wfu/
 Main file repository           : /wrk/irikura/molpro.CPBoO66x5I/

 id        : nistki

 Nodes            nprocs
 pn125343.nist.gov   14
 GA implementation: MPI file
 GA implementation (serial work in mppx): MPI file

 Using customized tuning parameters: mindgm=1; mindgv=20; mindgc=4; mindgr=1; noblas=0; minvec=7
 default implementation of scratch files=sf  


 Variables initialized (1042), CPU time= 0.01 sec
 ***,Kr SO-CI
                                                                                 ! active space (8/7)
                                                                                 ! extra diffuse spdf
 memory,4000,M;
 
 gprint,orbitals,civector;
 
 symmetry,xyz
 geometry={Kr};
 
 basis={spdfg,kr,AWCVTZ-X2C;C; spdf,1,even,nprim=1,ratio=3.0}
 
 set,dkho=101
 
                                                                                 ! cation orbitals
 {rhf;wf,nelec=35,sym=1,spin=1}
 
 {multi,wmk
     occ,9,12
     wf,nelec=36,sym=1,spin=0;state,10; weight,10,1,1,1,1,1,1,1,1,1
     wf,nelec=36,sym=1,spin=2;state,9;
     expec2,lxx,lyy,lzz;
 }
 table, energy, ll
 title, Energies and &lt;L**2&gt; values
 
 core,2,3
 
 {ci;wf,sym=1,spin=0;state,10; save,5201.2}
 hlsdiag = energd4
 {ci;wf,sym=1,spin=2;state,9; save,5202.2}
 hlsdiag(11) = energd
 
 table,hlsdiag
 
 lsint                                                                           ! fails without this line
 {ci;hlsmat,ls,5201.2,5202.2;print,vls=0,hls=0}                                  !compute and diagonalize SO matrix
 Commands initialized (847), CPU time= 0.00 sec, 718 directives.
 Default parameters read. Elapsed time= 0.10 sec

 Checking input...
 Passed
1


                                         ***  PROGRAM SYSTEM MOLPRO  ***
                                       Copyright, TTI GmbH Stuttgart, 2015
                                    Version 2024.1 linked Mon Jun 17 07:53:25 2024


 **********************************************************************************************************************************
 LABEL *   Kr SO-CI                                                                                                                                                      
  (64 PROC) 64 bit mpp version                                                           DATE: 05-Oct-24          TIME: 12:19:31  
 **********************************************************************************************************************************

 SHA1:             0134236b472f03f1f5189f93707d8671e415b05c
 **********************************************************************************************************************************

 Memory per process:      4000 MW
 Total memory per node:  56000 MW

 GA preallocation disabled
 GA check disabled

 Variable memory set to 4000.0 MW


 ZSYMEL=XYZ

 SETTING BASIS          =    USERDEF
 SETTING DKHO           =       101.00000000                                  


 Recomputing integrals since basis changed


 Using spherical harmonics

 Library entry KR     S AWCVTZ-X2C           selected for orbital group  1
 Even tempered Kr S diffuse               selected for group 1    nprim= 1    centre=  0.017    ratio= 3.000    dratio= 1.000
 Library entry KR     P AWCVTZ-X2C           selected for orbital group  1
 Even tempered Kr P diffuse               selected for group 1    nprim= 1    centre=  0.013    ratio= 3.000    dratio= 1.000
 Library entry KR     D AWCVTZ-X2C           selected for orbital group  1
 Even tempered Kr D diffuse               selected for group 1    nprim= 1    centre=  0.042    ratio= 3.000    dratio= 1.000
 Library entry KR     F AWCVTZ-X2C           selected for orbital group  1
 Even tempered Kr F diffuse               selected for group 1    nprim= 1    centre=  0.109    ratio= 3.000    dratio= 1.000
 Library entry KR     G AWCVTZ-X2C           selected for orbital group  1


 PROGRAM * SEWARD (Integral evaluation for generally contracted gaussian basis sets)     Author: Roland Lindh, 1990

 Geometry written to block  1 of record 700

 Orientation using atomic masses  
 Molecule type: Atom
 User-specified symmetry elements: XYZ
 Symmetry elements: XYZ
 Rotational constants:       0.0000000      0.0000000      0.0000000 GHz  (calculated with average atomic masses)

 Point group  Ci  



 ATOMIC COORDINATES

 NR  ATOM    CHARGE       X              Y              Z

   1  KR     36.00    0.000000000    0.000000000    0.000000000

 NUCLEAR CHARGE:                   36
 NUMBER OF PRIMITIVE AOS:         218
 NUMBER OF SYMMETRY AOS:          184
 NUMBER OF CONTRACTIONS:          116   (   54Ag  +   62Au  )
 NUMBER OF INNER CORE ORBITALS:     5   (    2Ag  +    3Au  )
 NUMBER OF OUTER CORE ORBITALS:     9   (    6Ag  +    3Au  )
 NUMBER OF VALENCE ORBITALS:        4   (    1Ag  +    3Au  )


 NUCLEAR REPULSION ENERGY    0.00000000

 One-electron integrals computed with SEWARD

 eXact-2-Component (X2C) method activated

 Computing Douglas-Kroll / X2C integrals

 AO integral compression algorithm  1   Integral accuracy      1.0D-11

     28.312 MB (compressed) written to integral file ( 14.9%)

     Node minimum: 1.049 MB, node maximum: 2.884 MB


 NUMBER OF SORTED TWO-ELECTRON INTEGRALS:     834859.     BUFFER LENGTH:  32768
 NUMBER OF SEGMENTS:   1  SEGMENT LENGTH:     834859      RECORD LENGTH: 524288

 Memory used in sort:       1.39 MW

 SORT1 READ    23841670. AND WROTE      173335. INTEGRALS IN      1 RECORDS. CPU TIME:     0.13 SEC, REAL TIME:     0.13 SEC
 SORT2 READ     2334873. AND WROTE    11712051. INTEGRALS IN    154 RECORDS. CPU TIME:     0.02 SEC, REAL TIME:     0.03 SEC

 Node minimum:      833389.  Node maximum:      839561. integrals

 OPERATOR DM      FOR CENTER  0  COORDINATES:    0.000000    0.000000    0.000000

 EXTRA SYMMETRY OF AOS IN SYMMETRY 1:   1 1 1 1 1 1 1 1 1 1   2 3 4 5 6 2 3 4 5 6   2 3 4 5 6 2 3 4 5 6   2 3 4 5 6 2 3 4 5 6
                                        2 3 4 5 6 7 8 91011  12131415
 EXTRA SYMMETRY OF AOS IN SYMMETRY 2:   1 2 3 1 2 3 1 2 3 1   2 3 1 2 3 1 2 3 1 2   3 1 2 3 1 2 3 4 5 6   7 8 910 4 5 6 7 8 9
                                       10 4 5 6 7 8 910 4 5   6 7 8 910 4 5 6 7 8   910

 Eigenvalues of metric

         1 0.896E-04 0.208E-02 0.141E-01 0.377E-01 0.377E-01 0.377E-01 0.377E-01 0.377E-01
         2 0.291E-02 0.291E-02 0.291E-02 0.115E-01 0.115E-01 0.115E-01 0.657E-01 0.657E-01


 **********************************************************************************************************************************
 DATASETS  * FILE   NREC   LENGTH (MB)   RECORD NAMES
              1      22       29.21       500      610      700      900      950      970     1000      129      960     1700   
                                          VAR    BASINP    GEOM    SYMINP    ZMAT    AOBASIS   BASIS     P2S    ABASIS    OPER   
                                         1101     1401     1411     1412     1650     1100     1400     1410     1200     1210   
                                          SR      EKINR    POTR     PVPR    MOLCAS      S      EKIN      POT      H0       H01  
                                         1080     1600   
                                         AOSYM     SMH  

 PROGRAMS   *        TOTAL       INT
 CPU TIMES  *         1.44      1.26
 REAL TIME  *         2.98 SEC
 DISK USED  *        29.56 MB (local),      483.57 MB (total)
 GA USED    *         0.00 MB       (max)       0.00 MB       (current)
 **********************************************************************************************************************************


 Program * Restricted Hartree-Fock

 Orbital guess generated from atomic densities.

 Initial alpha occupancy:   9   9
 Initial beta  occupancy:   8   9

 NELEC=   35   SYM=1   MS2= 1   THRE=1.0D-08   THRD=3.2D-06   THRG=3.2D-06  HFMA2=F  DIIS_START=2   DIIS_MAX=10   DIIS_INCORE=F

 Level shifts:    0.00 (CLOSED)    0.00 (OPEN)    0.30 (GAP_MIN)

 ITER           ETOT              DE          GRAD        DDIFF     DIIS  NEXP   TIME(IT)  TIME(TOT)  DIAG
   1    -2787.10631280   -2787.10631280     0.00D+00     0.14D+00     0     0       0.01      0.02    start
   2    -2787.14744263      -0.04112983     0.12D-01     0.10D-01     1     0       0.00      0.02    diag2
   3    -2787.14835220      -0.00090958     0.32D-02     0.22D-02     2     0       0.01      0.03    diag2
   4    -2787.14842922      -0.00007702     0.47D-03     0.92D-03     3     0       0.01      0.04    diag2
   5    -2787.14843600      -0.00000678     0.19D-03     0.17D-03     4     0       0.01      0.05    diag2
   6    -2787.14843609      -0.00000008     0.95D-05     0.17D-04     5     0       0.00      0.05    diag2
   7    -2787.14843609      -0.00000000     0.12D-05     0.28D-05     6     0       0.01      0.06    diag2
   8    -2787.14843609      -0.00000000     0.58D-07     0.17D-06     0     0       0.01      0.07    fixocc

 Final alpha occupancy:   9   9
 Final beta  occupancy:   8   9

 !RHF STATE 1.1 Energy              -2787.148436087694
  RHF One-electron energy           -3858.448225732895
  RHF Two-electron energy            1071.299789645201
  RHF Kinetic energy                 2992.657328216169
  RHF Nuclear energy                    0.000000000000
  RHF Virial quotient                  -0.931328959654

 !RHF STATE 1.1 Dipole moment           0.00000000     0.00000000     0.00000000
 Dipole moment /Debye                   0.00000000     0.00000000     0.00000000

 ELECTRON ORBITALS
 =================

  Orbital  Occupation    Energy    Cen Mu Typ  Coefficients
    1.1     2.00000  -529.89691     1  1  s    0.99998
    2.1     2.00000   -72.56316     1  2  s    0.99979
    3.1     2.00000   -11.72373     1  3  s    0.99731
    4.1     2.00000    -4.26020     1  1  d0   1.00119
    5.1     2.00000    -4.26020     1  1  d1+  0.30730    1  1  d1-  0.95266
    6.1     2.00000    -4.26020     1  1  d1+  0.95288    1  1  d1- -0.30731
    7.1     2.00000    -4.26020     1  1  d2-  1.00082
    8.1     2.00000    -4.26020     1  1  d2+  1.00102
    9.1     1.00000    -1.67242     1  4  s    1.08325
    1.2     2.00000   -64.03314     1  1  py   0.99993
    2.2     2.00000   -64.03314     1  1  px   0.99994
    3.2     2.00000   -64.03314     1  1  pz   0.99993
    4.2     2.00000    -8.92472     1  2  py   1.00038
    5.2     2.00000    -8.92472     1  2  px   1.00038
    6.2     2.00000    -8.92472     1  2  pz   1.00038
    7.2     2.00000    -0.90991     1  3  py   1.08325
    8.2     2.00000    -0.90991     1  3  px   1.08326
    9.2     2.00000    -0.90991     1  3  pz   1.08325


 HOMO      9.2    -0.909911 =     -24.7599eV
 LUMO     10.1    -0.137393 =      -3.7387eV
 LUMO-HOMO         0.772518 =      21.0213eV

 Orbitals saved in record  2100.2


 **********************************************************************************************************************************
 DATASETS  * FILE   NREC   LENGTH (MB)   RECORD NAMES
              1      22       29.21       500      610      700      900      950      970     1000      129      960     1700   
                                          VAR    BASINP    GEOM    SYMINP    ZMAT    AOBASIS   BASIS     P2S    ABASIS    OPER   
                                         1101     1401     1411     1412     1650     1100     1400     1410     1200     1210   
                                          SR      EKINR    POTR     PVPR    MOLCAS      S      EKIN      POT      H0       H01  
                                         1080     1600   
                                         AOSYM     SMH  

              2       4        0.60       700     1000      520     2100   
                                         GEOM     BASIS   MCVARS     RHF  

 PROGRAMS   *        TOTAL   RHF-SCF       INT
 CPU TIMES  *         1.52      0.08      1.26
 REAL TIME  *         3.07 SEC
 DISK USED  *        30.69 MB (local),      499.34 MB (total)
 GA USED    *         0.00 MB       (max)       0.00 MB       (current)
 **********************************************************************************************************************************

 PROGRAM * MULTI (Direct Multiconfiguration SCF)       Authors: P.J. Knowles, H.-J. Werner (1984)
                                                                D.A. Kreplin, P.J. Knowles, H.-J. Werner (2019)

 Number of closed-shell orbitals:  14 (    8    6)
 Number of active  orbitals:        7 (    1    6)
 Number of external orbitals:      95 (   45   50)

 State symmetry 1

 Number of active electrons:   8    Spin symmetry=Singlet   Space symmetry=1
 Number of states:            10
 Number of CSFs:             280   (625 determinants, 1225 intermediate states)

 State symmetry 2

 Number of active electrons:   8    Spin symmetry=Triplet   Space symmetry=1
 Number of states:             9
 Number of CSFs:             294   (345 determinants, 735 intermediate states)

 Molecular orbitals read from record     2100.2  Type=RHF/CANONICAL  
 *** IN SYMMETRY 1 ORBITAL  4 SYMMETRY CONTAMINATION OF 0.598D-02 HAS BEEN REMOVED
 *** IN SYMMETRY 1 ORBITAL  5 SYMMETRY CONTAMINATION OF 0.256D+00 HAS BEEN REMOVED
 *** IN SYMMETRY 1 ORBITAL  6 SYMMETRY CONTAMINATION OF 0.246D+00 HAS BEEN REMOVED
 *** IN SYMMETRY 1 ORBITAL  7 SYMMETRY CONTAMINATION OF 0.410D-01 HAS BEEN REMOVED
 *** IN SYMMETRY 1 ORBITAL  8 SYMMETRY CONTAMINATION OF 0.252D-01 HAS BEEN REMOVED

 EXTRA SYMMETRY OF MOS IN SYMMETRY 1:   1 1 1 2 6 4 3 5 1 1   2 3 5 4 6 1 2 4 6 3   5 1 4 6 3 5 2 6 4 5   3 2 1 4 6 5 3 2 7 8
                                       12 91113101415 1 2 6   4 5 3 1
 *** IN SYMMETRY 2 ORBITAL  1 SYMMETRY CONTAMINATION OF 0.337D-02 HAS BEEN REMOVED
 *** IN SYMMETRY 2 ORBITAL  2 SYMMETRY CONTAMINATION OF 0.134D-02 HAS BEEN REMOVED
 *** IN SYMMETRY 2 ORBITAL  3 SYMMETRY CONTAMINATION OF 0.247D-02 HAS BEEN REMOVED
 *** IN SYMMETRY 2 ORBITAL  4 SYMMETRY CONTAMINATION OF 0.869D-04 HAS BEEN REMOVED
 *** IN SYMMETRY 2 ORBITAL  5 SYMMETRY CONTAMINATION OF 0.463D-04 HAS BEEN REMOVED
 *** IN SYMMETRY 2 ORBITAL  6 SYMMETRY CONTAMINATION OF 0.683D-04 HAS BEEN REMOVED
 *** IN SYMMETRY 2 ORBITAL  7 SYMMETRY CONTAMINATION OF 0.794D-03 HAS BEEN REMOVED
 *** IN SYMMETRY 2 ORBITAL  9 SYMMETRY CONTAMINATION OF 0.794D-03 HAS BEEN REMOVED
 *** IN SYMMETRY 2 ORBITAL 10 SYMMETRY CONTAMINATION OF 0.162D-03 HAS BEEN REMOVED
 *** IN SYMMETRY 2 ORBITAL 12 SYMMETRY CONTAMINATION OF 0.162D-03 HAS BEEN REMOVED
 EXTRA SYMMETRY OF MOS IN SYMMETRY 2:   2 1 3 2 1 3 2 1 3 2   1 3 3 2 1 5 4 9 7 6  10 8 2 1 3 6 5 4 7 9  10 8 2 1 3 4 5 6 9 7
                                       10 8 6 4 9 7 510 8 2   1 3 5 4 6 9 710 8 1   2 3

 Wavefunction dump at record             2140.2

 Convergence thresholds  0.10E-04 (gradient)  0.10E-05 (energy)

 Weight factors for state symmetry  1:    0.35714   0.03571   0.03571   0.03571   0.03571   0.03571   0.03571   0.03571
                                          0.03571   0.03571
 Weight factors for state symmetry  2:    0.03571   0.03571   0.03571   0.03571   0.03571   0.03571   0.03571   0.03571
                                          0.03571
 
 Number of orbital rotations:  1049  ( 44 closed/active, 660 closed/virtual, 0 active/active, 345 active/virtual )
 Total number of variables:    10404
 
 Second-order MCSCF: L-BFGS accelerated
 
 ITER  MIC  NCI  NEG     ENERGY(VAR)    ENERGY(PROJ) ENERGY CHANGE       GRAD(0)  GRAD(ORB)   GRAD(CI)      STEP      TIME
   1    5   16    0  -2788.01649721   -2788.02440213   -0.00790493    0.19729665 0.00005358 0.00000440  0.67E-01      2.19
   2    7   18    0  -2788.02447406   -2788.02447608   -0.00000202    0.00292418 0.00000051 0.00000036  0.37E-02      4.71
   3   24   52    0  -2788.02447608   -2788.02447608    0.00000000    0.00000103 0.00000257 0.00000012  0.37E-05     12.18

 CONVERGENCE REACHED!  Final gradient:    0.00000140 ( 0.14E-05)
                       Final energy:  -2788.02447608
 
 Results for state 1.1 Singlet
 =============================
 !MCSCF STATE 1.1 Singlet Energy             -2788.277281056342
 Nuclear energy                                  0.00000000
 Kinetic energy                               2995.42887597
 One electron energy                         -3879.60328924
 Two electron energy                          1091.32600818
 Virial ratio                                    1.93084409
 
 !MCSCF STATE 1.1 Singlet Dipole moment          0.00000000     0.00000000     0.00000000
 Dipole moment /Debye                            0.00000000     0.00000000     0.00000000
 
 Results for state 2.1 Singlet
 =============================
 !MCSCF STATE 2.1 Singlet Energy             -2787.885084172853
 Nuclear energy                                  0.00000000
 Kinetic energy                               2992.74318194
 One electron energy                         -3864.89686660
 Two electron energy                          1077.01178243
 Virial ratio                                    1.93154839
 
 !MCSCF STATE 2.1 Singlet Dipole moment          0.00000000     0.00000000     0.00000000
 Dipole moment /Debye                            0.00000000     0.00000000     0.00000000
 
 Results for state 3.1 Singlet
 =============================
 !MCSCF STATE 3.1 Singlet Energy             -2787.885084170192
 Nuclear energy                                  0.00000000
 Kinetic energy                               2992.74318213
 One electron energy                         -3864.89686804
 Two electron energy                          1077.01178387
 Virial ratio                                    1.93154839
 
 !MCSCF STATE 3.1 Singlet Dipole moment          0.00000000     0.00000000     0.00000000
 Dipole moment /Debye                            0.00000000     0.00000000     0.00000000
 
 Results for state 4.1 Singlet
 =============================
 !MCSCF STATE 4.1 Singlet Energy             -2787.885084159272
 Nuclear energy                                  0.00000000
 Kinetic energy                               2992.74318207
 One electron energy                         -3864.89687020
 Two electron energy                          1077.01178604
 Virial ratio                                    1.93154839
 
 !MCSCF STATE 4.1 Singlet Dipole moment          0.00000000     0.00000000     0.00000000
 Dipole moment /Debye                            0.00000000     0.00000000     0.00000000
 
 Results for state 5.1 Singlet
 =============================
 !MCSCF STATE 5.1 Singlet Energy             -2787.885084144688
 Nuclear energy                                  0.00000000
 Kinetic energy                               2992.74318275
 One electron energy                         -3864.89687649
 Two electron energy                          1077.01179234
 Virial ratio                                    1.93154839
 
 !MCSCF STATE 5.1 Singlet Dipole moment          0.00000000     0.00000000     0.00000000
 Dipole moment /Debye                            0.00000000     0.00000000     0.00000000
 
 Results for state 6.1 Singlet
 =============================
 !MCSCF STATE 6.1 Singlet Energy             -2787.885084143303
 Nuclear energy                                  0.00000000
 Kinetic energy                               2992.74318269
 One electron energy                         -3864.89687655
 Two electron energy                          1077.01179241
 Virial ratio                                    1.93154839
 
 !MCSCF STATE 6.1 Singlet Dipole moment          0.00000000     0.00000000     0.00000000
 Dipole moment /Debye                            0.00000000     0.00000000     0.00000000
 
 Results for state 7.1 Singlet
 =============================
 !MCSCF STATE 7.1 Singlet Energy             -2787.881849953428
 Nuclear energy                                  0.00000000
 Kinetic energy                               2992.73659064
 One electron energy                         -3864.88028673
 Two electron energy                          1076.99843678
 Virial ratio                                    1.93154936
 
 !MCSCF STATE 7.1 Singlet Dipole moment          0.00000000     0.00000000     0.00000000
 Dipole moment /Debye                            0.00000000     0.00000000     0.00000000
 
 Results for state 8.1 Singlet
 =============================
 !MCSCF STATE 8.1 Singlet Energy             -2787.881849940388
 Nuclear energy                                  0.00000000
 Kinetic energy                               2992.73659055
 One electron energy                         -3864.88028885
 Two electron energy                          1076.99843891
 Virial ratio                                    1.93154936
 
 !MCSCF STATE 8.1 Singlet Dipole moment          0.00000000     0.00000000     0.00000000
 Dipole moment /Debye                            0.00000000     0.00000000     0.00000000
 
 Results for state 9.1 Singlet
 =============================
 !MCSCF STATE 9.1 Singlet Energy             -2787.881849919833
 Nuclear energy                                  0.00000000
 Kinetic energy                               2992.73659120
 One electron energy                         -3864.88029505
 Two electron energy                          1076.99844513
 Virial ratio                                    1.93154936
 
 !MCSCF STATE 9.1 Singlet Dipole moment          0.00000000     0.00000000     0.00000000
 Dipole moment /Debye                            0.00000000     0.00000000     0.00000000
 
 Results for state 10.1 Singlet
 ==============================
 !MCSCF STATE 10.1 Singlet Energy            -2787.866038272095
 Nuclear energy                                  0.00000000
 Kinetic energy                               2993.22252243
 One electron energy                         -3866.34892298
 Two electron energy                          1078.48288470
 Virial ratio                                    1.93139284
 
 !MCSCF STATE 10.1 Singlet Dipole moment         0.00000000     0.00000000     0.00000000
 Dipole moment /Debye                            0.00000000     0.00000000     0.00000000
 
 Results for state 1.1 Triplet
 =============================
 !MCSCF STATE 1.1 Triplet Energy             -2787.894675373787
 Nuclear energy                                  0.00000000
 Kinetic energy                               2992.70885428
 One electron energy                         -3864.80556007
 Two electron energy                          1076.91088470
 Virial ratio                                    1.93156228
 
 !MCSCF STATE 1.1 Triplet Dipole moment          0.00000000     0.00000000     0.00000000
 Dipole moment /Debye                            0.00000000     0.00000000     0.00000000
 
 Results for state 2.1 Triplet
 =============================
 !MCSCF STATE 2.1 Triplet Energy             -2787.886955317240
 Nuclear energy                                  0.00000000
 Kinetic energy                               2992.72604695
 One electron energy                         -3864.85216780
 Two electron energy                          1076.96521248
 Virial ratio                                    1.93155435
 
 !MCSCF STATE 2.1 Triplet Dipole moment          0.00000000     0.00000000     0.00000000
 Dipole moment /Debye                            0.00000000     0.00000000     0.00000000
 
 Results for state 3.1 Triplet
 =============================
 !MCSCF STATE 3.1 Triplet Energy             -2787.886955316462
 Nuclear energy                                  0.00000000
 Kinetic energy                               2992.72604709
 One electron energy                         -3864.85216902
 Two electron energy                          1076.96521370
 Virial ratio                                    1.93155435
 
 !MCSCF STATE 3.1 Triplet Dipole moment          0.00000000     0.00000000     0.00000000
 Dipole moment /Debye                            0.00000000     0.00000000     0.00000000
 
 Results for state 4.1 Triplet
 =============================
 !MCSCF STATE 4.1 Triplet Energy             -2787.886955309989
 Nuclear energy                                  0.00000000
 Kinetic energy                               2992.72604697
 One electron energy                         -3864.85217107
 Two electron energy                          1076.96521576
 Virial ratio                                    1.93155435
 
 !MCSCF STATE 4.1 Triplet Dipole moment          0.00000000     0.00000000     0.00000000
 Dipole moment /Debye                            0.00000000     0.00000000     0.00000000
 
 Results for state 5.1 Triplet
 =============================
 !MCSCF STATE 5.1 Triplet Energy             -2787.886955304542
 Nuclear energy                                  0.00000000
 Kinetic energy                               2992.72604755
 One electron energy                         -3864.85217711
 Two electron energy                          1076.96522181
 Virial ratio                                    1.93155435
 
 !MCSCF STATE 5.1 Triplet Dipole moment          0.00000000     0.00000000     0.00000000
 Dipole moment /Debye                            0.00000000     0.00000000     0.00000000
 
 Results for state 6.1 Triplet
 =============================
 !MCSCF STATE 6.1 Triplet Energy             -2787.886955303460
 Nuclear energy                                  0.00000000
 Kinetic energy                               2992.72604746
 One electron energy                         -3864.85217700
 Two electron energy                          1076.96522170
 Virial ratio                                    1.93155435
 
 !MCSCF STATE 6.1 Triplet Dipole moment          0.00000000     0.00000000     0.00000000
 Dipole moment /Debye                            0.00000000     0.00000000     0.00000000
 
 Results for state 7.1 Triplet
 =============================
 !MCSCF STATE 7.1 Triplet Energy             -2787.882019622441
 Nuclear energy                                  0.00000000
 Kinetic energy                               2992.73316180
 One electron energy                         -3864.87039736
 Two electron energy                          1076.98837774
 Virial ratio                                    1.93155048
 
 !MCSCF STATE 7.1 Triplet Dipole moment          0.00000000     0.00000000     0.00000000
 Dipole moment /Debye                            0.00000000     0.00000000     0.00000000
 
 Results for state 8.1 Triplet
 =============================
 !MCSCF STATE 8.1 Triplet Energy             -2787.882019609778
 Nuclear energy                                  0.00000000
 Kinetic energy                               2992.73316170
 One electron energy                         -3864.87039946
 Two electron energy                          1076.98837985
 Virial ratio                                    1.93155048
 
 !MCSCF STATE 8.1 Triplet Dipole moment          0.00000000     0.00000000     0.00000000
 Dipole moment /Debye                            0.00000000     0.00000000     0.00000000
 
 Results for state 9.1 Triplet
 =============================
 !MCSCF STATE 9.1 Triplet Energy             -2787.882019590028
 Nuclear energy                                  0.00000000
 Kinetic energy                               2992.73316233
 One electron energy                         -3864.87040560
 Two electron energy                          1076.98838601
 Virial ratio                                    1.93155048
 
 !MCSCF STATE 9.1 Triplet Dipole moment          0.00000000     0.00000000     0.00000000
 Dipole moment /Debye                            0.00000000     0.00000000     0.00000000
 
 State-averaged charge density matrix saved on record 2140.2 (density set 1)
 
 No non-zero expectation values
 
 Expectation values for two-electron operators:
 
 ? Warning
 ? Transition properties are only calculated between states of the same symmetry
 ? The problem occurs in mu_properties_expec2

 !MCSCF expec      <1.1 Singlet|LXLX|1.1 Singlet>     0.000000000001
 !MCSCF expec      <2.1 Singlet|LXLX|2.1 Singlet>     2.165261905234
 !MCSCF expec      <3.1 Singlet|LXLX|3.1 Singlet>     1.000000000014
 !MCSCF expec      <4.1 Singlet|LXLX|4.1 Singlet>     3.999999999821
 !MCSCF expec      <5.1 Singlet|LXLX|5.1 Singlet>     1.000000000003
 !MCSCF expec      <6.1 Singlet|LXLX|6.1 Singlet>     1.834738094679
 !MCSCF expec      <7.1 Singlet|LXLX|7.1 Singlet>     0.999999999997
 !MCSCF expec      <8.1 Singlet|LXLX|8.1 Singlet>     0.000000000169
 !MCSCF expec      <9.1 Singlet|LXLX|9.1 Singlet>     1.000000000000
 !MCSCF expec    <10.1 Singlet|LXLX|10.1 Singlet>     0.000000000084
 !MCSCF expec      <1.1 Triplet|LXLX|1.1 Triplet>     0.000000000010
 !MCSCF expec      <2.1 Triplet|LXLX|2.1 Triplet>     1.900719776367
 !MCSCF expec      <3.1 Triplet|LXLX|3.1 Triplet>     1.000000000003
 !MCSCF expec      <4.1 Triplet|LXLX|4.1 Triplet>     3.999999999959
 !MCSCF expec      <5.1 Triplet|LXLX|5.1 Triplet>     1.000000000001
 !MCSCF expec      <6.1 Triplet|LXLX|6.1 Triplet>     2.099279182825
 !MCSCF expec      <7.1 Triplet|LXLX|7.1 Triplet>     0.999999999996
 !MCSCF expec      <8.1 Triplet|LXLX|8.1 Triplet>     0.000000000043
 !MCSCF expec      <9.1 Triplet|LXLX|9.1 Triplet>     1.000000000000
 
 !MCSCF expec      <1.1 Singlet|LYLY|1.1 Singlet>     0.000000000000
 !MCSCF expec      <2.1 Singlet|LYLY|2.1 Singlet>     3.643496614144
 !MCSCF expec      <3.1 Singlet|LYLY|3.1 Singlet>     3.999999999871
 !MCSCF expec      <4.1 Singlet|LYLY|4.1 Singlet>     1.000000000013
 !MCSCF expec      <5.1 Singlet|LYLY|5.1 Singlet>     0.999999999999
 !MCSCF expec      <6.1 Singlet|LYLY|6.1 Singlet>     0.356503385822
 !MCSCF expec      <7.1 Singlet|LYLY|7.1 Singlet>     0.000000000119
 !MCSCF expec      <8.1 Singlet|LYLY|8.1 Singlet>     0.999999999997
 !MCSCF expec      <9.1 Singlet|LYLY|9.1 Singlet>     1.000000000000
 !MCSCF expec    <10.1 Singlet|LYLY|10.1 Singlet>     0.000000000035
 !MCSCF expec      <1.1 Triplet|LYLY|1.1 Triplet>     0.000000000006
 !MCSCF expec      <2.1 Triplet|LYLY|2.1 Triplet>     3.779555594673
 !MCSCF expec      <3.1 Triplet|LYLY|3.1 Triplet>     3.999999999927
 !MCSCF expec      <4.1 Triplet|LYLY|4.1 Triplet>     1.000000000000
 !MCSCF expec      <5.1 Triplet|LYLY|5.1 Triplet>     1.000000000042
 !MCSCF expec      <6.1 Triplet|LYLY|6.1 Triplet>     0.220444880920
 !MCSCF expec      <7.1 Triplet|LYLY|7.1 Triplet>     0.000000000034
 !MCSCF expec      <8.1 Triplet|LYLY|8.1 Triplet>     0.999999999996
 !MCSCF expec      <9.1 Triplet|LYLY|9.1 Triplet>     1.000000000000
 
 !MCSCF expec      <1.1 Singlet|LZLZ|1.1 Singlet>     0.000000000000
 !MCSCF expec      <2.1 Singlet|LZLZ|2.1 Singlet>     0.191241480530
 !MCSCF expec      <3.1 Singlet|LZLZ|3.1 Singlet>     1.000000000000
 !MCSCF expec      <4.1 Singlet|LZLZ|4.1 Singlet>     1.000000000000
 !MCSCF expec      <5.1 Singlet|LZLZ|5.1 Singlet>     3.999999999993
 !MCSCF expec      <6.1 Singlet|LZLZ|6.1 Singlet>     3.808758519460
 !MCSCF expec      <7.1 Singlet|LZLZ|7.1 Singlet>     1.000000000000
 !MCSCF expec      <8.1 Singlet|LZLZ|8.1 Singlet>     1.000000000000
 !MCSCF expec      <9.1 Singlet|LZLZ|9.1 Singlet>     0.000000000005
 !MCSCF expec    <10.1 Singlet|LZLZ|10.1 Singlet>     0.000000000011
 !MCSCF expec      <1.1 Triplet|LZLZ|1.1 Triplet>     0.000000000001
 !MCSCF expec      <2.1 Triplet|LZLZ|2.1 Triplet>     0.319724628947
 !MCSCF expec      <3.1 Triplet|LZLZ|3.1 Triplet>     1.000000000041
 !MCSCF expec      <4.1 Triplet|LZLZ|4.1 Triplet>     1.000000000002
 !MCSCF expec      <5.1 Triplet|LZLZ|5.1 Triplet>     3.999999999956
 !MCSCF expec      <6.1 Triplet|LZLZ|6.1 Triplet>     3.680275936250
 !MCSCF expec      <7.1 Triplet|LZLZ|7.1 Triplet>     1.000000000000
 !MCSCF expec      <8.1 Triplet|LZLZ|8.1 Triplet>     1.000000000000
 !MCSCF expec      <9.1 Triplet|LZLZ|9.1 Triplet>     0.000000000001
 
 !MCSCF expec      <1.1 Singlet|L**2|1.1 Singlet>     0.000000000001
 !MCSCF expec      <2.1 Singlet|L**2|2.1 Singlet>     5.999999999908
 !MCSCF expec      <3.1 Singlet|L**2|3.1 Singlet>     5.999999999885
 !MCSCF expec      <4.1 Singlet|L**2|4.1 Singlet>     5.999999999835
 !MCSCF expec      <5.1 Singlet|L**2|5.1 Singlet>     5.999999999995
 !MCSCF expec      <6.1 Singlet|L**2|6.1 Singlet>     5.999999999961
 !MCSCF expec      <7.1 Singlet|L**2|7.1 Singlet>     2.000000000115
 !MCSCF expec      <8.1 Singlet|L**2|8.1 Singlet>     2.000000000166
 !MCSCF expec      <9.1 Singlet|L**2|9.1 Singlet>     2.000000000005
 !MCSCF expec    <10.1 Singlet|L**2|10.1 Singlet>     0.000000000130
 !MCSCF expec      <1.1 Triplet|L**2|1.1 Triplet>     0.000000000018
 !MCSCF expec      <2.1 Triplet|L**2|2.1 Triplet>     5.999999999987
 !MCSCF expec      <3.1 Triplet|L**2|3.1 Triplet>     5.999999999971
 !MCSCF expec      <4.1 Triplet|L**2|4.1 Triplet>     5.999999999961
 !MCSCF expec      <5.1 Triplet|L**2|5.1 Triplet>     5.999999999999
 !MCSCF expec      <6.1 Triplet|L**2|6.1 Triplet>     5.999999999996
 !MCSCF expec      <7.1 Triplet|L**2|7.1 Triplet>     2.000000000030
 !MCSCF expec      <8.1 Triplet|L**2|8.1 Triplet>     2.000000000039
 !MCSCF expec      <9.1 Triplet|L**2|9.1 Triplet>     2.000000000001
 
 EXTRA SYMMETRY OF MOS IN SYMMETRY 1:   1 1 1 6 3 5 2 4 1 1   5 3 6 2 4 1 2 4 6 3   5 1 2 6 4 5 3 6 3 5   2 4 1 6 5 3 2 4 9 7
                                       12 81415111310 1 4 2   6 3 5 1
 EXTRA SYMMETRY OF MOS IN SYMMETRY 2:   3 2 1 2 1 3 3 2 1 1   2 3 2 1 3 6 4 5 810   9 7 2 1 3 6 5 4 810   7 9 2 1 3 5 6 4 810
                                        9 7 4 6 810 5 9 7 2   1 3 4 610 8 5 9 7 2   1 3
 
  NATURAL ORBITALS (STATE AVERAGED)
  =================================

  Orbital  Occupation    Energy    Cen Mu Typ  Coefficients
    1.1     2.00000  -529.56591     1  1  s    0.99997
    2.1     2.00000   -72.23874     1  2  s    0.99991
    3.1     2.00000   -11.40598     1  3  s    0.99898
    4.1     2.00000    -3.93364     1  1  d1-  1.00028
    5.1     2.00000    -3.93364     1  1  d2-  1.00028
    6.1     2.00000    -3.93364     1  1  d2+  1.00028
    7.1     2.00000    -3.93364     1  1  d0   1.00028
    8.1     2.00000    -3.93364     1  1  d1+  1.00028
    9.1     1.99996    -1.33783     1  4  s    1.04179
    1.2     2.00000   -63.70340     1  1  pz   0.99997
    2.2     2.00000   -63.70340     1  1  py   0.99997
    3.2     2.00000   -63.70340     1  1  px   0.99997
    4.2     2.00000    -8.59715     1  2  py   0.99955
    5.2     2.00000    -8.59715     1  2  px   0.99955
    6.2     2.00000    -8.59715     1  2  pz   0.99955
    7.2     1.78422    -0.62913     1  3  pz   1.05822
    8.2     1.78422    -0.62913     1  3  py   1.05822
    9.2     1.78422    -0.62913     1  3  px   1.05822
   10.2     0.21579     0.02622     1  3  px  -0.26052    1  8  px   0.46972    1  9  px   0.66458
   11.2     0.21579     0.02622     1  3  py  -0.26052    1  8  py   0.46972    1  9  py   0.66458
   12.2     0.21579     0.02622     1  3  pz  -0.26052    1  8  pz   0.46971    1  9  pz   0.66458
 
 Natural orbital dump (state averaged) at molpro section 2140.2 (Orbital set 2)
 
 Transform the CI vectors
 
 CI Coefficients of symmetry 1 (Singlet)
 =======================================

 State:              1               2               3               4               5               6               7
 2 222000       0.99591475     -0.00000012     -0.00000000      0.00000000      0.00000000      0.00000009     -0.00000000
 2 a2200b       0.03595215      0.56252794      0.00000042     -0.00000118     -0.00000028     -0.12605082      0.00000000
 2 b2200a      -0.03595215     -0.56252794     -0.00000042      0.00000118      0.00000028      0.12605082     -0.00000000
 2 2a20b0       0.03595239     -0.17209937     -0.00000009      0.00000119      0.00000087      0.55018612     -0.00000000
 2 2b20a0      -0.03595239      0.17209937      0.00000009     -0.00000119     -0.00000087     -0.55018612      0.00000000
 2 a220b0       0.00000000      0.00000086     -0.00000106      0.49923977     -0.00000008     -0.00000081     -0.00000087
 2 b220a0      -0.00000000     -0.00000086      0.00000106     -0.49923977      0.00000008      0.00000081      0.00000087
 2 b22a00       0.00000000      0.00000038     -0.49924025     -0.00000106      0.00000026      0.00000004     -0.49935032
 2 a22b00      -0.00000000     -0.00000038      0.49924025      0.00000106     -0.00000026     -0.00000004      0.49935032
 2 22a0b0       0.00000000      0.00000008      0.00000026      0.00000008      0.49924237     -0.00000076     -0.00000034
 2 22b0a0      -0.00000000     -0.00000008     -0.00000026     -0.00000008     -0.49924237      0.00000076      0.00000034
 2 2b2a00       0.00000000     -0.00000008     -0.00000026     -0.00000008     -0.49924333      0.00000076     -0.00000034
 2 2a2b00      -0.00000000      0.00000008      0.00000026      0.00000008      0.49924333     -0.00000076      0.00000034
 2 22a00b       0.00000000     -0.00000038      0.49924544      0.00000106     -0.00000026     -0.00000004     -0.49934513
 2 22b00a      -0.00000000      0.00000038     -0.49924544     -0.00000106      0.00000026      0.00000004      0.49934513
 2 2b200a      -0.00000000     -0.00000086      0.00000106     -0.49924592      0.00000008      0.00000081     -0.00000087
 2 2a200b       0.00000000      0.00000086     -0.00000106      0.49924592     -0.00000008     -0.00000081      0.00000087
 2 22ab00       0.03595231     -0.39042409     -0.00000033     -0.00000002     -0.00000059     -0.42413826      0.00000000
 2 22ba00      -0.03595231      0.39042409      0.00000033      0.00000002      0.00000059      0.42413826     -0.00000000
 
 Energy:    -2788.27728106  -2787.88508417  -2787.88508417  -2787.88508416  -2787.88508414  -2787.88508414  -2787.88184995

 State:              8               9              10
 2 222000      -0.00000000     -0.00000000     -0.08929992
 2 a2200b       0.00000000     -0.00000000      0.40548537
 2 b2200a      -0.00000000      0.00000000     -0.40548537
 2 2a20b0      -0.00000000     -0.00000000      0.40548970
 2 2b20a0       0.00000000      0.00000000     -0.40548970
 2 a220b0       0.49935080     -0.00000018     -0.00000000
 2 b220a0      -0.49935080      0.00000018      0.00000000
 2 b22a00      -0.00000087     -0.00000034      0.00000000
 2 a22b00       0.00000087      0.00000034     -0.00000000
 2 22a0b0       0.00000018      0.49934821      0.00000000
 2 22b0a0      -0.00000018     -0.49934821     -0.00000000
 2 2b2a00       0.00000018      0.49934725      0.00000000
 2 2a2b00      -0.00000018     -0.49934725     -0.00000000
 2 22a00b      -0.00000087     -0.00000034      0.00000000
 2 22b00a       0.00000087      0.00000034     -0.00000000
 2 2b200a       0.49934465     -0.00000018      0.00000000
 2 2a200b      -0.49934465      0.00000018     -0.00000000
 2 22ab00       0.00000000     -0.00000000      0.40548814
 2 22ba00      -0.00000000      0.00000000     -0.40548814
 
 Energy:    -2787.88184994  -2787.88184992  -2787.86603827
 
 
 CI Coefficients of symmetry 1 (Triplet)
 =======================================

 State:              1               2               3               4               5               6               7
 2 2a20a0       0.57690409     -0.19147094      0.00000016      0.00000226     -0.00000165      0.79281994      0.00000000
 2 a2200a       0.57690340      0.78233827     -0.00000007     -0.00000224      0.00000012     -0.23059096      0.00000000
 2 2a200a       0.00000000      0.00000154     -0.00000073      0.70634344     -0.00000051     -0.00000164      0.00000151
 2 22a00a       0.00000000      0.00000002      0.70634334      0.00000073      0.00000261     -0.00000014     -0.70619649
 2 2a2a00      -0.00000000      0.00000035     -0.00000261      0.00000051      0.70634178      0.00000155      0.00000014
 2 22a0a0       0.00000000      0.00000035     -0.00000261      0.00000051      0.70634158      0.00000155     -0.00000014
 2 a22a00      -0.00000000      0.00000002      0.70634001      0.00000073      0.00000261     -0.00000014      0.70619983
 2 a220a0       0.00000000      0.00000154     -0.00000073      0.70633991     -0.00000051     -0.00000164     -0.00000151
 2 22aa00       0.57690431     -0.59086618     -0.00000009     -0.00000002      0.00000153     -0.56222903      0.00000000
 
 Energy:    -2787.89467537  -2787.88695532  -2787.88695532  -2787.88695531  -2787.88695530  -2787.88695530  -2787.88201962

 State:              8               9
 2 2a20a0      -0.00000000      0.00000000
 2 a2200a       0.00000000     -0.00000000
 2 2a200a      -0.70619639      0.00000001
 2 22a00a      -0.00000151      0.00000014
 2 2a2a00       0.00000001      0.70619806
 2 22a0a0      -0.00000001     -0.70619826
 2 a22a00       0.00000151     -0.00000014
 2 a220a0       0.70619993     -0.00000001
 2 22aa00      -0.00000000      0.00000000
 
 Energy:    -2787.88201961  -2787.88201959
 


 **********************************************************************************************************************************
 DATASETS  * FILE   NREC   LENGTH (MB)   RECORD NAMES
              1      24       47.32       500      610      700      900      950      970     1000      129      960     1700   
                                          VAR    BASINP    GEOM    SYMINP    ZMAT    AOBASIS   BASIS     P2S    ABASIS    OPER   
                                         1101     1401     1411     1412     1650     1100     1400     1410     1200     1210   
                                          SR      EKINR    POTR     PVPR    MOLCAS      S      EKIN      POT      H0       H01  
                                         1080     1600     1380     1700(1)
                                         AOSYM     SMH     JKOP     OPER   

              2       5        0.93       700     1000      520     2100     2140   
                                         GEOM     BASIS   MCVARS     RHF     MCSCF   

 PROGRAMS   *        TOTAL     MULTI   RHF-SCF       INT
 CPU TIMES  *         8.56      7.04      0.08      1.26
 REAL TIME  *        16.12 SEC
 DISK USED  *        48.34 MB (local),      746.55 MB (total)
 SF USED    *        45.68 MB
 GA USED    *         0.00 MB       (max)       0.00 MB       (current)
 **********************************************************************************************************************************

 Energies and &lt;L**2&gt; values

          ENERGY         LL
    -2788.277281   7.95807864D-13
    -2787.885084   6.00000000D+00
    -2787.885084   6.00000000D+00
    -2787.885084   6.00000000D+00
    -2787.885084   6.00000000D+00
    -2787.885084   6.00000000D+00
    -2787.881850   2.00000000D+00
    -2787.881850   2.00000000D+00
    -2787.881850   2.00000000D+00
    -2787.866038   1.30299327D-10
    -2787.894675   1.75717219D-11
    -2787.886955   6.00000000D+00
    -2787.886955   6.00000000D+00
    -2787.886955   6.00000000D+00
    -2787.886955   6.00000000D+00
    -2787.886955   6.00000000D+00
    -2787.882020   2.00000000D+00
    -2787.882020   2.00000000D+00
    -2787.882020   2.00000000D+00
                                                  


 PROGRAM * CI (Multireference internally contracted CI)     Authors: H.-J. Werner, P.J. Knowles, 1987


 Convergence thresholds:  THRVAR = 1.00D-08  THRDEN = 1.00D-06

 Number of optimized states: 10  Roots:   1   2   3   4   5   6   7   8   9  10
 Number of reference states: 10  Roots:   1   2   3   4   5   6   7   8   9  10

 Reference symmetry:                   1   Singlet 
 Number of electrons:                 36
 Maximum number of shells:             6
 Maximum number of spin couplings:    42

 Reference space:      231 conf      280 CSFs
 N elec internal:     9996 conf    21280 CSFs
 N-1 el internal:    15576 conf    58240 CSFs
 N-2 el internal:    14289 conf    77596 CSFs

 Number of electrons in valence space:                     26
 Maximum number of open shell orbitals in reference space:  6
 Maximum number of open shell orbitals in internal spaces: 10


 Number of core orbitals:           5 (   2   3 )
 Number of closed-shell orbitals:   9 (   6   3 )
 Number of active  orbitals:        7 (   1   6 )
 Number of external orbitals:      95 (  45  50 )

 Molecular orbitals read from record     2140.2  Type=MCSCF/NATURAL (state averaged)

 Integral transformation finished. Total CPU:   0.11 sec, npass=  1  Memory used:   1.17 MW


 Number of p-space configurations:  10

 Reference wavefunction optimized for reference space (refopt=1)

 State     Reference Energy 
     1     -2788.27728106
     2     -2787.88508417
     3     -2787.88508417
     4     -2787.88508416
     5     -2787.88508414
     6     -2787.88508414
     7     -2787.88184995
     8     -2787.88184994
     9     -2787.88184992
    10     -2787.86603827

 ?WARNING: SMALL EIGENVALUE OF PAIR OVERLAP MATRIX:  0.5744D-07

 ?WARNING: SMALL EIGENVALUE OF PAIR OVERLAP MATRIX:  0.1124D-06

 Number of blocks in overlap matrix:   982   Smallest eigenvalue:  0.57D-07
 Number of N-2 electron functions:    2420
 Number of N-1 electron functions:   58240

 Number of internal configurations:                10822
 Number of singly external configurations:       2767590
 Number of doubly external configurations:       5464155
 Total number of contracted configurations:      8242567
 Total number of uncontracted configurations:  177497512

 Diagonal Coupling coefficients finished.               Storage:  15120353 words, CPU-Time:     29.91 seconds.
 Energy denominators for pairs finished in 1 passes.    Storage:   1299173 words, CPU-time:      0.37 seconds.

  ITER. STATE  ROOT     SQ.NORM     CORR.ENERGY   TOTAL ENERGY   ENERGY CHANGE       DEN1      VAR(S)    VAR(P)      TIME
    1     1     1     1.00000000     0.00000000 -2788.27728106    -0.00000000    -0.98125401  0.18D-01  0.64D-01    34.47
    1     2     2     1.00000000     0.00000000 -2787.88508417     0.00000000    -0.97523171  0.19D-01  0.67D-01    34.47
    1     3     3     1.00000000     0.00000000 -2787.88508417    -0.00000000    -0.96542950  0.19D-01  0.61D-01    34.47
    1     4     4     1.00000000     0.00000000 -2787.88508416    -0.00000000    -0.96553202  0.19D-01  0.61D-01    34.47
    1     5     5     1.00000000     0.00000000 -2787.88508414    -0.00000000    -0.96540361  0.19D-01  0.61D-01    34.47
    1     6     6     1.00000000     0.00000000 -2787.88508414     0.00000000    -0.97499008  0.19D-01  0.67D-01    34.47
    1     7     7     1.00000000     0.00000000 -2787.88184995     0.00000000    -0.96621065  0.20D-01  0.61D-01    34.47
    1     8     8     1.00000000     0.00000000 -2787.88184994    -0.00000000    -0.96627912  0.20D-01  0.61D-01    34.47
    1     9     9     1.00000000     0.00000000 -2787.88184992    -0.00000000    -0.96621927  0.20D-01  0.61D-01    34.47
    1    10    10     1.00000000     0.00000000 -2787.86603827    -0.00000000    -0.98423089  0.43D-01  0.64D-01    34.47
    2     1     1     1.06204065    -0.85007827 -2789.12735933    -0.85007827    -0.01943061  0.31D-02  0.13D-02   287.66
    2     2     2     1.06008794    -0.83407040 -2788.71915458    -0.83407040    -0.01399891  0.12D-02  0.89D-03   287.66
    2     3     3     1.06005508    -0.83405111 -2788.71913528    -0.83405111    -0.01401051  0.12D-02  0.89D-03   287.66
    2     4     4     1.06003839    -0.83404535 -2788.71912951    -0.83404535    -0.01401107  0.12D-02  0.89D-03   287.66
    2     5     5     1.06309823    -0.83356115 -2788.71864529    -0.83356115    -0.01439501  0.12D-02  0.10D-02   287.66
    2     6     6     1.06310127    -0.83350704 -2788.71859118    -0.83350704    -0.01442891  0.12D-02  0.11D-02   287.66
    2     7     7     1.06042157    -0.83461613 -2788.71646608    -0.83461613    -0.01389163  0.12D-02  0.89D-03   287.66
    2     8     8     1.06039964    -0.83457415 -2788.71642409    -0.83457415    -0.01391540  0.12D-02  0.89D-03   287.66
    2     9     9     1.06039225    -0.83456429 -2788.71641421    -0.83456429    -0.01391796  0.12D-02  0.89D-03   287.66
    2    10    10     1.07581585    -0.83032881 -2788.69636708    -0.83032881    -0.02284865  0.76D-02  0.10D-02   287.66
    3     1     1     1.06210980    -0.87026739 -2789.14754844    -0.02018911    -0.00079085  0.14D-04  0.94D-04   541.71
    3     2     2     1.06056548    -0.84775770 -2788.73284187    -0.01368730    -0.00056770  0.19D-04  0.76D-04   541.71
    3     3     3     1.06055437    -0.84775433 -2788.73283850    -0.01370322    -0.00057030  0.19D-04  0.76D-04   541.71
    3     4     4     1.06054826    -0.84774975 -2788.73283391    -0.01370440    -0.00057203  0.19D-04  0.76D-04   541.71
    3     5     5     1.06083231    -0.84768823 -2788.73277237    -0.01412708    -0.00060034  0.18D-04  0.86D-04   541.71
    3     6     6     1.06080465    -0.84767405 -2788.73275820    -0.01416702    -0.00060648  0.18D-04  0.87D-04   541.71
    3     7     7     1.06086151    -0.84824578 -2788.73009573    -0.01362965    -0.00059234  0.22D-04  0.79D-04   541.71
    3     8     8     1.06084340    -0.84823777 -2788.73008771    -0.01366362    -0.00059784  0.22D-04  0.80D-04   541.71
    3     9     9     1.06083681    -0.84823277 -2788.73008269    -0.01366849    -0.00060004  0.22D-04  0.80D-04   541.71
    3    10    10     1.06277901    -0.85280984 -2788.71884811    -0.02248103    -0.00092603  0.78D-04  0.10D-03   541.71
    4     1     1     1.06551961    -0.87122952 -2789.14851057    -0.00096213    -0.00005378  0.21D-05  0.55D-05   796.58
    4     2     2     1.06249220    -0.84846700 -2788.73355117    -0.00070930    -0.00005992  0.22D-05  0.68D-05   796.58
    4     3     3     1.06249138    -0.84846688 -2788.73355105    -0.00071255    -0.00006001  0.22D-05  0.68D-05   796.58
    4     4     4     1.06249147    -0.84846568 -2788.73354984    -0.00071593    -0.00006066  0.23D-05  0.69D-05   796.58
    4     5     5     1.06233218    -0.84845583 -2788.73353998    -0.00076760    -0.00006919  0.25D-05  0.79D-05   796.58
    4     6     6     1.06233157    -0.84845232 -2788.73353646    -0.00077826    -0.00007102  0.26D-05  0.81D-05   796.58
    4     7     7     1.06275354    -0.84899488 -2788.73084483    -0.00074910    -0.00006503  0.24D-05  0.73D-05   796.58
    4     8     8     1.06275083    -0.84899462 -2788.73084456    -0.00075685    -0.00006550  0.24D-05  0.73D-05   796.58
    4     9     9     1.06274994    -0.84899360 -2788.73084352    -0.00076083    -0.00006612  0.24D-05  0.74D-05   796.58
    4    10    10     1.06405909    -0.85390019 -2788.71993846    -0.00109035    -0.00009136  0.43D-05  0.11D-04   796.58
    5     1     1     1.06606521    -0.87129557 -2789.14857663    -0.00006606    -0.00000422  0.12D-06  0.42D-06  1050.70
    5     2     2     1.06293004    -0.84854163 -2788.73362580    -0.00007463    -0.00000619  0.25D-06  0.71D-06  1050.70
    5     3     3     1.06292915    -0.84854153 -2788.73362570    -0.00007465    -0.00000617  0.25D-06  0.71D-06  1050.70
    5     4     4     1.06292966    -0.84854131 -2788.73362547    -0.00007563    -0.00000631  0.25D-06  0.72D-06  1050.70
    5     5     5     1.06291099    -0.84854110 -2788.73362524    -0.00008527    -0.00000648  0.27D-06  0.72D-06  1050.70
    5     6     6     1.06291205    -0.84854037 -2788.73362451    -0.00008805    -0.00000694  0.28D-06  0.79D-06  1050.70
    5     7     7     1.06319509    -0.84907580 -2788.73092576    -0.00008092    -0.00000654  0.25D-06  0.73D-06  1050.70
    5     8     8     1.06319610    -0.84907571 -2788.73092565    -0.00008109    -0.00000657  0.25D-06  0.74D-06  1050.70
    5     9     9     1.06319522    -0.84907565 -2788.73092557    -0.00008205    -0.00000664  0.25D-06  0.74D-06  1050.70
    5    10    10     1.06464819    -0.85401468 -2788.72005295    -0.00011449    -0.00001001  0.57D-06  0.11D-05  1050.70
    6     1     1     1.06605733    -0.87130060 -2789.14858166    -0.00000503    -0.00000041  0.83D-08  0.43D-07  1304.87
    6     2     2     1.06291126    -0.84854943 -2788.73363360    -0.00000780    -0.00000082  0.19D-07  0.10D-06  1304.87
    6     3     3     1.06291102    -0.84854931 -2788.73363348    -0.00000777    -0.00000081  0.19D-07  0.10D-06  1304.87
    6     4     4     1.06291046    -0.84854928 -2788.73363344    -0.00000797    -0.00000084  0.20D-07  0.11D-06  1304.87
    6     5     5     1.06291195    -0.84854912 -2788.73363327    -0.00000802    -0.00000087  0.23D-07  0.12D-06  1304.87
    6     6     6     1.06291124    -0.84854902 -2788.73363316    -0.00000865    -0.00000093  0.24D-07  0.12D-06  1304.87
    6     7     7     1.06318344    -0.84908394 -2788.73093389    -0.00000813    -0.00000085  0.20D-07  0.11D-06  1304.87
    6     8     8     1.06318362    -0.84908392 -2788.73093386    -0.00000821    -0.00000086  0.20D-07  0.11D-06  1304.87
    6     9     9     1.06318299    -0.84908392 -2788.73093384    -0.00000828    -0.00000087  0.20D-07  0.11D-06  1304.87
    6    10    10     1.06465789    -0.85402695 -2788.72006522    -0.00001226    -0.00000125  0.42D-07  0.16D-06  1304.87
    7     1     1     1.06605851    -0.87130110 -2789.14858216    -0.00000050    -0.00000004  0.10D-08  0.46D-08  1558.93
    7     2     2     1.06291960    -0.84855051 -2788.73363468    -0.00000108    -0.00000014  0.50D-08  0.15D-07  1558.93
    7     3     3     1.06291920    -0.84855039 -2788.73363456    -0.00000108    -0.00000014  0.52D-08  0.16D-07  1558.93
    7     4     4     1.06291948    -0.84855039 -2788.73363455    -0.00000111    -0.00000014  0.49D-08  0.15D-07  1558.93
    7     5     5     1.06291833    -0.84855038 -2788.73363452    -0.00000126    -0.00000018  0.66D-08  0.19D-07  1558.93
    7     6     6     1.06291906    -0.84855023 -2788.73363438    -0.00000122    -0.00000016  0.58D-08  0.17D-07  1558.93
    7     7     7     1.06319288    -0.84908507 -2788.73093502    -0.00000113    -0.00000015  0.52D-08  0.17D-07  1558.93
    7     8     8     1.06319282    -0.84908508 -2788.73093502    -0.00000116    -0.00000016  0.54D-08  0.17D-07  1558.93
    7     9     9     1.06319265    -0.84908509 -2788.73093501    -0.00000116    -0.00000016  0.54D-08  0.17D-07  1558.93
    7    10    10     1.06468052    -0.85402856 -2788.72006683    -0.00000162    -0.00000024  0.13D-07  0.27D-07  1558.93
    8     1     1     1.06605966    -0.87130111 -2789.14858216    -0.00000001    -0.00000004  0.67D-09  0.41D-08  1796.93
    8     2     2     1.06292681    -0.84855068 -2788.73363485    -0.00000017    -0.00000002  0.16D-08  0.22D-08  1796.93
    8     3     3     1.06292617    -0.84855057 -2788.73363474    -0.00000018    -0.00000003  0.19D-08  0.28D-08  1796.93
    8     4     4     1.06292658    -0.84855058 -2788.73363473    -0.00000018    -0.00000003  0.16D-08  0.23D-08  1796.93
    8     5     5     1.06292670    -0.84855058 -2788.73363472    -0.00000020    -0.00000002  0.15D-08  0.22D-08  1796.93
    8     6     6     1.06292653    -0.84855042 -2788.73363457    -0.00000019    -0.00000003  0.16D-08  0.24D-08  1796.93
    8     7     7     1.06320051    -0.84908526 -2788.73093521    -0.00000019    -0.00000003  0.18D-08  0.26D-08  1796.93
    8     8     8     1.06320060    -0.84908527 -2788.73093521    -0.00000019    -0.00000003  0.18D-08  0.25D-08  1796.93
    8     9     9     1.06320050    -0.84908528 -2788.73093520    -0.00000019    -0.00000003  0.18D-08  0.25D-08  1796.93
    8    10    10     1.06468489    -0.85402889 -2788.72006716    -0.00000033    -0.00000002  0.12D-08  0.28D-08  1796.93


 =====================================
 Analysis of CPU times by interactions
 =====================================

       I      S      P

 I   0.5%
 S   0.4%   6.2%
 P   0.3%  48.1%  34.5%

 Initialization:   1.7%
 Other:            8.3%

 Total CPU:     1796.9 seconds
 =====================================



 Wavefunction saved on  5201.2

 Reference coefficients greater than 0.0500000
 =============================================
 2222222222222000           0.9666426   0.0000000   0.0000002   0.0000000  -0.0000000   0.0000001  -0.0000000   0.0000000
                           -0.0000000  -0.0571851
 222222222222/\00           0.0334674  -0.0000918  -0.0252363  -0.0016396  -0.0013719   0.7902898  -0.0000000   0.0000001
                           -0.0000000   0.5568858
 22222222222/20\0           0.0334676  -0.0001168   0.6949716   0.0480664  -0.0234652  -0.3733058   0.0000004  -0.0000000
                            0.0000001   0.5568825
 22222222222/200\          -0.0000000   0.6847666   0.0002035  -0.0008546  -0.0004506   0.0000835   0.6841585   0.0298272
                            0.0065729   0.0000000
 2222222222/220\0          -0.0000000   0.6847621   0.0002041  -0.0008544  -0.0004506   0.0000835  -0.6841628  -0.0298275
                           -0.0065729   0.0000000
 222222222222/00\          -0.0000000   0.0004402   0.0243072  -0.0021422   0.6843380   0.0019597  -0.0287341   0.6785199
                           -0.0881988   0.0000000
 2222222222/22\00          -0.0000000   0.0004401   0.0243063  -0.0021417   0.6843165   0.0019598   0.0287350  -0.6785413
                            0.0882013  -0.0000000
 222222222222/0\0          -0.0000000   0.0008690  -0.0471630   0.6831360   0.0038130  -0.0000820   0.0103537  -0.0878352
                           -0.6790988  -0.0000000
 22222222222/2\00          -0.0000000   0.0008690  -0.0471620   0.6831197   0.0038132  -0.0000820  -0.0103538   0.0878378
                            0.6791151   0.0000000
 2222222222/2200\           0.0334674   0.0002085  -0.6697417  -0.0464273   0.0248374  -0.4169933  -0.0000003  -0.0000001
                           -0.0000001   0.5568768

 Coefficients of fixed reference functions:
 ==========================================

 State      Coefficients
 1           0.968129    0.000000   -0.000000   -0.000000    0.000000    0.000000   -0.000000   -0.000000    0.000000   -0.027528
 2          -0.000000    0.000246    0.000623    0.969943    0.001231   -0.000073    0.000000   -0.000003   -0.000000   -0.000000
 3           0.000000   -0.690155    0.034430    0.000289   -0.066804    0.677370    0.000000   -0.000000    0.000001    0.000000
 4           0.000000   -0.047876   -0.003034   -0.001210    0.967625    0.046804   -0.000000   -0.000000   -0.000012    0.000000
 5          -0.000000    0.026309    0.969324   -0.000638    0.005401   -0.021930    0.000010    0.000000    0.000000    0.000000
 6          -0.000000   -0.679334    0.002776    0.000118   -0.000116   -0.692308   -0.000000    0.000000    0.000000   -0.000005
 7           0.000000   -0.000000    0.000000    0.000003   -0.000000    0.000000   -0.040692    0.968855   -0.014662    0.000000
 8          -0.000000   -0.000000   -0.000010    0.000000    0.000002   -0.000000    0.960882    0.042239    0.124387   -0.000000
 9          -0.000000   -0.000000    0.000001    0.000000    0.000013    0.000000   -0.124902    0.009308    0.961698    0.000000
 10          0.029472   -0.000003   -0.000000    0.000000   -0.000000   -0.000003    0.000000   -0.000000    0.000000    0.968692

 Coefficients of rotated reference functions:
 ============================================

 State      Coefficients
 1           0.968520   -0.000000    0.000000    0.000000   -0.000000   -0.000000   -0.000000   -0.000000    0.000000    0.000964
 2          -0.000000    0.969944    0.000000    0.000000   -0.000000    0.000000    0.000000    0.000000    0.000000    0.000000
 3           0.000000    0.000000    0.969944    0.000000   -0.000000   -0.000000    0.000000   -0.000000   -0.000000    0.000000
 4           0.000000    0.000000    0.000000    0.969944    0.000000   -0.000000   -0.000000    0.000000    0.000000    0.000000
 5          -0.000000   -0.000000   -0.000000    0.000000    0.969944    0.000000    0.000000   -0.000000    0.000000   -0.000000
 6          -0.000000    0.000000   -0.000000   -0.000000    0.000000    0.969944   -0.000000    0.000000   -0.000000   -0.000000
 7          -0.000000    0.000000    0.000000   -0.000000    0.000000   -0.000000    0.969820    0.000000   -0.000000   -0.000000
 8          -0.000000    0.000000   -0.000000    0.000000   -0.000000    0.000000    0.000000    0.969820    0.000000    0.000000
 9           0.000000    0.000000   -0.000000    0.000000    0.000000   -0.000000   -0.000000    0.000000    0.969820   -0.000000
 10          0.000964    0.000000    0.000000    0.000000   -0.000000   -0.000000   -0.000000    0.000000   -0.000000    0.969140


 RESULTS FOR STATE 1.1
 =====================

 Coefficient of reference function:   C(0) = 0.96812914 (fixed)   0.96852084 (relaxed)   0.96851995 (rotated)

 Energy contributions of configuration classes

 CLASS          SQ.NORM        ECORR1        ECORR2
 +++++++++++++++++++++++++++++++++++++++++++++++++++
 Internals    0.00000310   -0.00001693   -0.84472077
 Singles      0.00458002   -0.01447544   -0.01732275
 Pairs        0.06147984    0.04369716   -0.00925758
 Total        1.06606296    0.02920479   -0.87130111
 +++++++++++++++++++++++++++++++++++++++++++++++++++


 Reference energy                   -2788.27692518
 Nuclear energy                         0.00000000
 Kinetic energy                      2994.89101025
 One electron energy                -3876.96947208
 Two electron energy                 1087.82088992
 Virial quotient                       -0.93130220
 Correlation energy                    -0.87165698
 !MRCI STATE 1.1 Energy             -2789.148582164329

 Properties without orbital relaxation:

 !MRCI STATE 1.1 Dipole moment          0.00000000     0.00000000     0.00000000
 Dipole moment /Debye                   0.00000000     0.00000000     0.00000000

 Cluster corrected energies         -2789.20616641 (Davidson, fixed reference)
 Cluster corrected energies         -2789.20616470 (Davidson, relaxed reference)
 Cluster corrected energies         -2789.20616641 (Davidson, rotated reference)

 Cluster corrected energies         -2789.20486453 (Pople, fixed reference)
 Cluster corrected energies         -2789.20486277 (Pople, relaxed reference)
 Cluster corrected energies         -2789.20486453 (Pople, rotated reference)



 RESULTS FOR STATE 2.1
 =====================

 Maximum overlap with reference state  4

 Coefficient of reference function:   C(0) = 0.96994313 (fixed)   0.96994545 (relaxed)   0.96994414 (rotated)

 Energy contributions of configuration classes

 CLASS          SQ.NORM        ECORR1        ECORR2
 +++++++++++++++++++++++++++++++++++++++++++++++++++
 Internals    0.00000734   -0.00001730   -0.76545749
 Singles      0.01007287   -0.03492569   -0.04089672
 Pairs        0.05285441    0.00000005   -0.04219647
 Total        1.06293462   -0.03494295   -0.84855068
 +++++++++++++++++++++++++++++++++++++++++++++++++++


 Reference energy                   -2787.88508416
 Nuclear energy                         0.00000000
 Kinetic energy                      2993.73886084
 One electron energy                -3865.01785081
 Two electron energy                 1076.28421596
 Virial quotient                       -0.93152201
 Correlation energy                    -0.84855069
 !MRCI STATE 2.1 Energy             -2788.733634848225

 Properties without orbital relaxation:

 !MRCI STATE 2.1 Dipole moment          0.00000000     0.00000000     0.00000000
 Dipole moment /Debye                   0.00000000     0.00000000     0.00000000

 Cluster corrected energies         -2788.78703806 (Davidson, fixed reference)
 Cluster corrected energies         -2788.78703563 (Davidson, relaxed reference)
 Cluster corrected energies         -2788.78703806 (Davidson, rotated reference)

 Cluster corrected energies         -2788.78568654 (Pople, fixed reference)
 Cluster corrected energies         -2788.78568404 (Pople, relaxed reference)
 Cluster corrected energies         -2788.78568654 (Pople, rotated reference)



 RESULTS FOR STATE 3.1
 =====================

 Maximum overlap with reference state  2

 Coefficient of reference function:   C(0) = 0.69015461 (fixed)   0.96994574 (relaxed)   0.96994443 (rotated)

 Energy contributions of configuration classes

 CLASS          SQ.NORM        ECORR1        ECORR2
 +++++++++++++++++++++++++++++++++++++++++++++++++++
 Internals    0.00000735   -0.00001730   -0.76545773
 Singles      0.01007242   -0.03492536   -0.04089613
 Pairs        0.05285421   -0.00000041   -0.04219671
 Total        1.06293398   -0.03494307   -0.84855057
 +++++++++++++++++++++++++++++++++++++++++++++++++++


 Reference energy                   -2787.88508416
 Nuclear energy                         0.00000000
 Kinetic energy                      2993.73850407
 One electron energy                -3865.01757522
 Two electron energy                 1076.28394048
 Virial quotient                       -0.93152212
 Correlation energy                    -0.84855058
 !MRCI STATE 3.1 Energy             -2788.733634736716

 Properties without orbital relaxation:

 !MRCI STATE 3.1 Dipole moment          0.00000000     0.00000000     0.00000000
 Dipole moment /Debye                   0.00000000     0.00000000     0.00000000

 Cluster corrected energies         -2788.78703740 (Davidson, fixed reference)
 Cluster corrected energies         -2788.78703496 (Davidson, relaxed reference)
 Cluster corrected energies         -2788.78703740 (Davidson, rotated reference)

 Cluster corrected energies         -2788.78568586 (Pople, fixed reference)
 Cluster corrected energies         -2788.78568336 (Pople, relaxed reference)
 Cluster corrected energies         -2788.78568586 (Pople, rotated reference)



 RESULTS FOR STATE 4.1
 =====================

 Maximum overlap with reference state  5

 Coefficient of reference function:   C(0) = 0.96762513 (fixed)   0.96994556 (relaxed)   0.96994425 (rotated)

 Energy contributions of configuration classes

 CLASS          SQ.NORM        ECORR1        ECORR2
 +++++++++++++++++++++++++++++++++++++++++++++++++++
 Internals    0.00000734   -0.00001730   -0.76545760
 Singles      0.01007279   -0.03492558   -0.04089651
 Pairs        0.05285425   -0.00000003   -0.04219647
 Total        1.06293438   -0.03494291   -0.84855058
 +++++++++++++++++++++++++++++++++++++++++++++++++++


 Reference energy                   -2787.88508414
 Nuclear energy                         0.00000000
 Kinetic energy                      2993.73878044
 One electron energy                -3865.01779816
 Two electron energy                 1076.28416342
 Virial quotient                       -0.93152203
 Correlation energy                    -0.84855059
 !MRCI STATE 4.1 Energy             -2788.733634734479

 Properties without orbital relaxation:

 !MRCI STATE 4.1 Dipole moment          0.00000000     0.00000000     0.00000000
 Dipole moment /Debye                   0.00000000     0.00000000     0.00000000

 Cluster corrected energies         -2788.78703774 (Davidson, fixed reference)
 Cluster corrected energies         -2788.78703531 (Davidson, relaxed reference)
 Cluster corrected energies         -2788.78703774 (Davidson, rotated reference)

 Cluster corrected energies         -2788.78568621 (Pople, fixed reference)
 Cluster corrected energies         -2788.78568371 (Pople, relaxed reference)
 Cluster corrected energies         -2788.78568621 (Pople, rotated reference)



 RESULTS FOR STATE 5.1
 =====================

 Maximum overlap with reference state  3

 Coefficient of reference function:   C(0) = 0.96932401 (fixed)   0.96994550 (relaxed)   0.96994419 (rotated)

 Energy contributions of configuration classes

 CLASS          SQ.NORM        ECORR1        ECORR2
 +++++++++++++++++++++++++++++++++++++++++++++++++++
 Internals    0.00000734   -0.00001730   -0.76545759
 Singles      0.01007274   -0.03492552   -0.04089648
 Pairs        0.05285442   -0.00000001   -0.04219651
 Total        1.06293450   -0.03494283   -0.84855058
 +++++++++++++++++++++++++++++++++++++++++++++++++++


 Reference energy                   -2787.88508417
 Nuclear energy                         0.00000000
 Kinetic energy                      2993.73885956
 One electron energy                -3865.01784963
 Two electron energy                 1076.28421491
 Virial quotient                       -0.93152201
 Correlation energy                    -0.84855055
 !MRCI STATE 5.1 Energy             -2788.733634720782

 Properties without orbital relaxation:

 !MRCI STATE 5.1 Dipole moment          0.00000000     0.00000000     0.00000000
 Dipole moment /Debye                   0.00000000     0.00000000     0.00000000

 Cluster corrected energies         -2788.78703783 (Davidson, fixed reference)
 Cluster corrected energies         -2788.78703539 (Davidson, relaxed reference)
 Cluster corrected energies         -2788.78703783 (Davidson, rotated reference)

 Cluster corrected energies         -2788.78568630 (Pople, fixed reference)
 Cluster corrected energies         -2788.78568380 (Pople, relaxed reference)
 Cluster corrected energies         -2788.78568630 (Pople, rotated reference)



 RESULTS FOR STATE 6.1
 =====================

 Coefficient of reference function:   C(0) = 0.69230772 (fixed)   0.96994558 (relaxed)   0.96994427 (rotated)

 Energy contributions of configuration classes

 CLASS          SQ.NORM        ECORR1        ECORR2
 +++++++++++++++++++++++++++++++++++++++++++++++++++
 Internals    0.00000735   -0.00001730   -0.76546155
 Singles      0.01007221   -0.03492506   -0.04089583
 Pairs        0.05285478    0.00000377   -0.04219304
 Total        1.06293434   -0.03493859   -0.84855042
 +++++++++++++++++++++++++++++++++++++++++++++++++++


 Reference energy                   -2787.88508416
 Nuclear energy                         0.00000000
 Kinetic energy                      2993.73872833
 One electron energy                -3865.01774553
 Two electron energy                 1076.28411096
 Virial quotient                       -0.93152205
 Correlation energy                    -0.84855041
 !MRCI STATE 6.1 Energy             -2788.733634565125

 Properties without orbital relaxation:

 !MRCI STATE 6.1 Dipole moment          0.00000000     0.00000000     0.00000000
 Dipole moment /Debye                   0.00000000     0.00000000     0.00000000

 Cluster corrected energies         -2788.78703753 (Davidson, fixed reference)
 Cluster corrected energies         -2788.78703509 (Davidson, relaxed reference)
 Cluster corrected energies         -2788.78703753 (Davidson, rotated reference)

 Cluster corrected energies         -2788.78568600 (Pople, fixed reference)
 Cluster corrected energies         -2788.78568349 (Pople, relaxed reference)
 Cluster corrected energies         -2788.78568600 (Pople, rotated reference)



 RESULTS FOR STATE 7.1
 =====================

 Maximum overlap with reference state  8

 Coefficient of reference function:   C(0) = 0.96885515 (fixed)   0.96982050 (relaxed)   0.96982013 (rotated)

 Energy contributions of configuration classes

 CLASS          SQ.NORM        ECORR1        ECORR2
 +++++++++++++++++++++++++++++++++++++++++++++++++++
 Internals    0.00000560   -0.00001765   -0.76515353
 Singles      0.01036088   -0.03557382   -0.04173082
 Pairs        0.05283998   -0.00000001   -0.04220091
 Total        1.06320647   -0.03559148   -0.84908526
 +++++++++++++++++++++++++++++++++++++++++++++++++++


 Reference energy                   -2787.88184994
 Nuclear energy                         0.00000000
 Kinetic energy                      2993.73797006
 One electron energy                -3865.00720762
 Two electron energy                 1076.27627241
 Virial quotient                       -0.93152138
 Correlation energy                    -0.84908527
 !MRCI STATE 7.1 Energy             -2788.730935214318

 Properties without orbital relaxation:

 !MRCI STATE 7.1 Dipole moment          0.00000000     0.00000000     0.00000000
 Dipole moment /Debye                   0.00000000     0.00000000     0.00000000

 Cluster corrected energies         -2788.78460290 (Davidson, fixed reference)
 Cluster corrected energies         -2788.78460221 (Davidson, relaxed reference)
 Cluster corrected energies         -2788.78460290 (Davidson, rotated reference)

 Cluster corrected energies         -2788.78325724 (Pople, fixed reference)
 Cluster corrected energies         -2788.78325653 (Pople, relaxed reference)
 Cluster corrected energies         -2788.78325724 (Pople, rotated reference)



 RESULTS FOR STATE 8.1
 =====================

 Maximum overlap with reference state  7

 Coefficient of reference function:   C(0) = 0.96088224 (fixed)   0.96982046 (relaxed)   0.96982009 (rotated)

 Energy contributions of configuration classes

 CLASS          SQ.NORM        ECORR1        ECORR2
 +++++++++++++++++++++++++++++++++++++++++++++++++++
 Internals    0.00000560   -0.00001765   -0.76515353
 Singles      0.01036086   -0.03557379   -0.04173080
 Pairs        0.05284009    0.00000001   -0.04220094
 Total        1.06320656   -0.03559142   -0.84908527
 +++++++++++++++++++++++++++++++++++++++++++++++++++


 Reference energy                   -2787.88184995
 Nuclear energy                         0.00000000
 Kinetic energy                      2993.73802062
 One electron energy                -3865.00724364
 Two electron energy                 1076.27630843
 Virial quotient                       -0.93152137
 Correlation energy                    -0.84908526
 !MRCI STATE 8.1 Energy             -2788.730935210603

 Properties without orbital relaxation:

 !MRCI STATE 8.1 Dipole moment          0.00000000     0.00000000     0.00000000
 Dipole moment /Debye                   0.00000000     0.00000000     0.00000000

 Cluster corrected energies         -2788.78460296 (Davidson, fixed reference)
 Cluster corrected energies         -2788.78460228 (Davidson, relaxed reference)
 Cluster corrected energies         -2788.78460296 (Davidson, rotated reference)

 Cluster corrected energies         -2788.78325732 (Pople, fixed reference)
 Cluster corrected energies         -2788.78325661 (Pople, relaxed reference)
 Cluster corrected energies         -2788.78325732 (Pople, rotated reference)



 RESULTS FOR STATE 9.1
 =====================

 Coefficient of reference function:   C(0) = 0.96169846 (fixed)   0.96982051 (relaxed)   0.96982014 (rotated)

 Energy contributions of configuration classes

 CLASS          SQ.NORM        ECORR1        ECORR2
 +++++++++++++++++++++++++++++++++++++++++++++++++++
 Internals    0.00000560   -0.00001765   -0.76515357
 Singles      0.01036089   -0.03557382   -0.04173082
 Pairs        0.05283997   -0.00000000   -0.04220089
 Total        1.06320646   -0.03559147   -0.84908528
 +++++++++++++++++++++++++++++++++++++++++++++++++++


 Reference energy                   -2787.88184992
 Nuclear energy                         0.00000000
 Kinetic energy                      2993.73797290
 One electron energy                -3865.00721541
 Two electron energy                 1076.27628021
 Virial quotient                       -0.93152138
 Correlation energy                    -0.84908528
 !MRCI STATE 9.1 Energy             -2788.730935198801

 Properties without orbital relaxation:

 !MRCI STATE 9.1 Dipole moment          0.00000000     0.00000000     0.00000000
 Dipole moment /Debye                   0.00000000     0.00000000     0.00000000

 Cluster corrected energies         -2788.78460287 (Davidson, fixed reference)
 Cluster corrected energies         -2788.78460218 (Davidson, relaxed reference)
 Cluster corrected energies         -2788.78460287 (Davidson, rotated reference)

 Cluster corrected energies         -2788.78325722 (Pople, fixed reference)
 Cluster corrected energies         -2788.78325651 (Pople, relaxed reference)
 Cluster corrected energies         -2788.78325722 (Pople, rotated reference)



 RESULTS FOR STATE 10.1
 ======================

 Coefficient of reference function:   C(0) = 0.96869249 (fixed)   0.96914434 (relaxed)   0.96914026 (rotated)

 Energy contributions of configuration classes

 CLASS          SQ.NORM        ECORR1        ECORR2
 +++++++++++++++++++++++++++++++++++++++++++++++++++
 Internals    0.00001299   -0.00003517   -0.00016103
 Singles      0.01138573   -0.03650469   -0.04341906
 Pairs        0.05330001   -0.81736384   -0.81044880
 Total        1.06469872   -0.85390370   -0.85402889
 +++++++++++++++++++++++++++++++++++++++++++++++++++


 Reference energy                   -2787.86639415
 Nuclear energy                         0.00000000
 Kinetic energy                      2993.89127049
 One electron energy                -3865.57271644
 Two electron energy                 1076.85264928
 Virial quotient                       -0.93147006
 Correlation energy                    -0.85367301
 !MRCI STATE 10.1 Energy            -2788.720067162397

 Properties without orbital relaxation:

 !MRCI STATE 10.1 Dipole moment         0.00000000     0.00000000     0.00000000
 Dipole moment /Debye                   0.00000000     0.00000000     0.00000000

 Cluster corrected energies         -2788.77529872 (Davidson, fixed reference)
 Cluster corrected energies         -2788.77529106 (Davidson, relaxed reference)
 Cluster corrected energies         -2788.77529872 (Davidson, rotated reference)

 Cluster corrected energies         -2788.77398492 (Pople, fixed reference)
 Cluster corrected energies         -2788.77397702 (Pople, relaxed reference)
 Cluster corrected energies         -2788.77398492 (Pople, rotated reference)



 **********************************************************************************************************************************
 DATASETS  * FILE   NREC   LENGTH (MB)   RECORD NAMES
              1      24       47.32       500      610      700      900      950      970     1000      129      960     1700   
                                          VAR    BASINP    GEOM    SYMINP    ZMAT    AOBASIS   BASIS     P2S    ABASIS    OPER   
                                         1101     1401     1411     1412     1650     1100     1400     1410     1200     1210   
                                          SR      EKINR    POTR     PVPR    MOLCAS      S      EKIN      POT      H0       H01  
                                         1080     1600     1380     1700(1)
                                         AOSYM     SMH     JKOP     OPER   

              2       6      640.81       700     1000      520     2100     2140     5201   
                                         GEOM     BASIS   MCVARS     RHF     MCSCF    MRCI   

 PROGRAMS   *        TOTAL        CI     MULTI   RHF-SCF       INT
 CPU TIMES  *      2101.18   2092.61      7.04      0.08      1.26
 REAL TIME  *      2179.32 SEC
 DISK USED  *       688.22 MB (local),        9.48 GB (total)
 SF USED    *         6.60 GB
 GA USED    *         0.00 MB       (max)       0.00 MB       (current)
 **********************************************************************************************************************************
 SETTING HLSDIAG(1)     =     -2789.20616641  AU                              
 SETTING HLSDIAG(2)     =     -2788.78703806  AU                              
 SETTING HLSDIAG(3)     =     -2788.78703740  AU                              
 SETTING HLSDIAG(4)     =     -2788.78703774  AU                              
 SETTING HLSDIAG(5)     =     -2788.78703783  AU                              
 SETTING HLSDIAG(6)     =     -2788.78703753  AU                              
 SETTING HLSDIAG(7)     =     -2788.78460290  AU                              
 SETTING HLSDIAG(8)     =     -2788.78460296  AU                              
 SETTING HLSDIAG(9)     =     -2788.78460287  AU                              
 SETTING HLSDIAG(10)    =     -2788.77529872  AU                              


 PROGRAM * CI (Multireference internally contracted CI)     Authors: H.-J. Werner, P.J. Knowles, 1987


[...]
  8  1     8    1  |0 0>          0.00%    0.03%    0.60%    3.73%    0.00%    0.00%    0.00%    0.00%
  9  1     9    1  |0 0>          0.00%    0.00%    3.75%    0.60%    0.00%    0.00%    0.00%    0.00%
 10  1    10    1  |0 0>          0.00%    0.00%    0.00%    0.00%    0.00%    0.00%    0.00%    0.00%
 11  1     1    1  |1 1>+         0.00%    0.10%    5.05%   76.34%    0.00%    0.00%    0.00%    0.00%
 12  1     2    1  |1 1>+         0.00%    0.00%    0.00%    0.01%    0.03%    0.18%   44.42%    0.00%
 13  1     3    1  |1 1>+         0.00%    0.00%    0.00%    0.00%    0.00%    0.00%    1.29%    0.00%
 14  1     4    1  |1 1>+         0.00%    0.02%    0.00%    0.00%    0.01%    0.17%    0.01%   39.83%
 15  1     5    1  |1 1>+         0.00%    0.00%    0.01%    0.00%   12.20%    0.00%    0.02%    0.01%
 16  1     6    1  |1 1>+         0.00%    0.00%    0.00%    0.00%    0.00%   33.08%    0.13%    0.13%
 17  1     7    1  |1 1>+         0.01%    0.05%    0.10%    0.01%    0.00%    0.00%    0.00%    0.00%
 18  1     8    1  |1 1>+         0.00%    0.06%    6.46%    0.44%    0.00%    0.00%    0.00%    0.00%
 19  1     9    1  |1 1>+         0.00%    6.93%    0.05%    0.00%    0.00%    0.00%    0.00%    0.00%
 20  1     1    1  |1 0>          0.00%    0.02%   76.44%    5.03%    0.00%    0.00%    0.00%    0.00%
 21  1     2    1  |1 0>          0.00%    0.00%    0.00%    0.00%   27.08%    0.00%    0.01%    0.00%
 22  1     3    1  |1 0>          0.00%    0.00%    0.02%    0.00%   10.51%    0.00%    0.01%    0.00%
 23  1     4    1  |1 0>          0.00%    0.00%    0.00%    0.00%    0.00%   33.00%    0.14%    0.19%
 24  1     5    1  |1 0>          0.00%    0.00%    0.00%    0.01%    0.00%    0.01%    1.24%    0.00%
 25  1     6    1  |1 0>          0.00%    0.02%    0.00%    0.00%    0.00%    0.03%    0.00%    3.78%
 26  1     7    1  |1 0>          0.00%    6.95%    0.01%    0.05%    0.00%    0.00%    0.00%    0.00%
 27  1     8    1  |1 0>          0.00%    0.04%    0.42%    6.51%    0.00%    0.00%    0.00%    0.00%
 28  1     9    1  |1 0>          0.01%    0.06%    0.00%    0.07%    0.00%    0.00%    0.00%    0.00%
 29  1     1    1  |1 1>-         0.00%   81.37%    0.00%    0.11%    0.00%    0.00%    0.00%    0.00%
 30  1     2    1  |1 1>-         0.00%    0.02%    0.00%    0.00%    0.01%    0.32%    0.01%   52.30%
 31  1     3    1  |1 1>-         0.00%    0.01%    0.00%    0.00%    0.00%    0.02%    0.00%    3.51%
 32  1     4    1  |1 1>-         0.00%    0.00%    0.00%    0.01%    0.01%    0.26%   52.55%    0.00%
 33  1     5    1  |1 1>-         0.00%    0.00%    0.00%    0.00%    0.00%   32.92%    0.17%    0.24%
 34  1     6    1  |1 1>-         0.00%    0.00%    0.01%    0.00%   50.15%    0.00%    0.01%    0.01%
 35  1     7    1  |1 1>-         0.00%    0.00%    6.75%    0.19%    0.00%    0.00%    0.00%    0.00%
 36  1     8    1  |1 1>-         0.01%    0.00%    0.13%    0.04%    0.00%    0.00%    0.00%    0.00%
 37  1     9    1  |1 1>-         0.00%    0.01%    0.17%    6.81%    0.00%    0.00%    0.00%    0.00%

   Total
 Nr Sym  State Sym Spin / Nr.      9       10       11       12       13       14       15       16

  1  1     1    1  |0 0>          0.00%    0.00%    0.00%    0.00%    0.00%    0.00%    0.00%    0.00%
  2  1     2    1  |0 0>          0.00%    0.00%    0.00%   45.78%    0.00%    0.00%    0.00%    0.00%
  3  1     3    1  |0 0>          0.00%    0.00%    0.00%    0.00%    0.00%    0.00%    1.59%   44.18%
  4  1     4    1  |0 0>          0.00%    0.00%    0.00%    0.00%    0.00%   45.76%    0.01%    0.01%
  5  1     5    1  |0 0>          0.00%    0.00%    0.00%    0.00%   45.77%    0.00%    0.00%    0.00%
  6  1     6    1  |0 0>          0.00%    0.00%    0.00%    0.00%    0.00%    0.01%   44.17%    1.59%
  7  1     7    1  |0 0>          0.00%    0.00%    0.00%    0.00%    0.00%    0.00%    0.00%    0.00%
  8  1     8    1  |0 0>          0.00%    0.00%    0.00%    0.00%    0.00%    0.00%    0.00%    0.00%
  9  1     9    1  |0 0>          0.00%    0.00%    0.00%    0.00%    0.00%    0.00%    0.00%    0.00%
 10  1    10    1  |0 0>          0.00%    0.00%    0.00%    0.00%    0.00%    0.00%    0.00%    0.00%
 11  1     1    1  |1 1>+         0.00%    0.00%    0.00%    0.00%    0.00%    0.00%    0.00%    0.00%
 12  1     2    1  |1 1>+         0.00%    9.28%    0.00%    0.00%    7.73%    0.00%    0.00%    0.01%
 13  1     3    1  |1 1>+         0.00%   38.09%    0.00%    0.00%   26.22%    0.00%    0.00%    0.02%
 14  1     4    1  |1 1>+        13.32%    0.00%    0.00%    8.49%    0.00%    0.00%    0.00%    0.00%
 15  1     5    1  |1 1>+         0.00%    0.00%   41.11%    0.00%    0.00%    8.47%    0.00%    0.02%
 16  1     6    1  |1 1>+         0.00%    0.00%    0.00%    0.00%    0.02%    0.06%   30.87%    3.03%
 17  1     7    1  |1 1>+         0.00%    0.00%    0.00%    0.01%    0.00%    0.05%    0.20%    1.91%
 18  1     8    1  |1 1>+         0.00%    0.00%    0.00%    0.02%    0.00%    1.57%    0.00%    0.05%
 19  1     9    1  |1 1>+         0.00%    0.00%    0.00%    1.60%    0.00%    0.01%    0.00%    0.02%
 20  1     1    1  |1 0>          0.00%    0.00%    0.00%    0.00%    0.00%    0.00%    0.00%    0.00%
 21  1     2    1  |1 0>          0.00%    0.01%    6.25%    0.00%    0.00%   33.81%    0.03%    0.11%
 22  1     3    1  |1 0>          0.00%    0.00%   49.46%    0.00%    0.00%    0.02%    0.00%    0.00%
 23  1     4    1  |1 0>          0.00%    0.00%    0.00%    0.00%    0.00%    0.01%   18.46%   15.50%
 24  1     5    1  |1 0>          0.00%   52.09%    0.00%    0.00%    8.47%    0.00%    0.01%    0.00%
 25  1     6    1  |1 0>         49.53%    0.00%    0.00%    8.48%    0.00%    0.00%    0.00%    0.00%
 26  1     7    1  |1 0>          0.00%    0.00%    0.00%    1.60%    0.02%    0.00%    0.01%    0.01%
 27  1     8    1  |1 0>          0.00%    0.00%    0.00%    0.02%    1.61%    0.00%    0.01%    0.01%
 28  1     9    1  |1 0>          0.00%    0.00%    0.00%    0.01%    0.01%    0.01%    0.98%    1.16%
 29  1     1    1  |1 1>-         0.00%    0.00%    0.00%    0.00%    0.00%    0.00%    0.00%    0.00%
 30  1     2    1  |1 1>-         0.08%    0.00%    0.00%    9.27%    0.00%    0.00%    0.00%    0.00%
 31  1     3    1  |1 1>-        37.06%    0.00%    0.00%   24.72%    0.00%    0.00%    0.00%    0.00%
 32  1     4    1  |1 1>-         0.00%    0.52%    0.00%    0.00%    8.47%    0.00%    0.00%    0.02%
 33  1     5    1  |1 1>-         0.00%    0.00%    0.00%    0.00%    0.04%    0.14%    1.58%   32.20%
 34  1     6    1  |1 1>-         0.00%    0.00%    3.17%    0.00%    0.00%    8.44%    0.01%    0.04%
 35  1     7    1  |1 1>-         0.00%    0.00%    0.00%    0.00%    0.01%    1.60%    0.02%    0.01%
 36  1     8    1  |1 1>-         0.00%    0.00%    0.00%    0.00%    0.02%    0.01%    2.04%    0.09%
 37  1     9    1  |1 1>-         0.00%    0.00%    0.00%    0.00%    1.61%    0.01%    0.01%    0.00%

   Total
 Nr Sym  State Sym Spin / Nr.     17       18       19       20       21       22       23       24

  1  1     1    1  |0 0>          0.00%    0.00%    0.00%    0.00%    0.00%    0.00%    0.00%    0.00%
  2  1     2    1  |0 0>          0.00%    0.00%    0.00%   20.12%    0.09%    0.01%    0.00%    0.00%
  3  1     3    1  |0 0>          0.00%    0.00%    0.00%    0.00%    0.01%    0.04%    0.26%   19.92%
  4  1     4    1  |0 0>          0.00%    0.00%    0.00%    0.02%    0.48%   19.66%    0.03%    0.04%
  5  1     5    1  |0 0>          0.00%    0.00%    0.00%    0.09%   19.63%    0.49%    0.01%    0.01%
  6  1     6    1  |0 0>          0.00%    0.00%    0.00%    0.00%    0.01%    0.03%   19.93%    0.26%
  7  1     7    1  |0 0>          1.58%   51.74%    0.07%    0.00%    0.00%    0.00%    0.00%    0.00%
  8  1     8    1  |0 0>         51.55%    1.52%    0.31%    0.00%    0.00%    0.00%    0.00%    0.00%
  9  1     9    1  |0 0>          0.25%    0.12%   53.01%    0.00%    0.00%    0.00%    0.00%    0.00%
 10  1    10    1  |0 0>          0.00%    0.00%    0.00%    0.00%    0.00%    0.00%    0.00%    0.00%
 11  1     1    1  |1 1>+         0.21%    0.01%    0.01%    0.00%    0.00%    0.00%    0.00%    0.00%
 12  1     2    1  |1 1>+         6.33%    0.28%    0.27%    0.00%    0.63%    0.02%    0.00%    0.00%
 13  1     3    1  |1 1>+         1.85%    0.08%    0.10%    0.01%    2.13%    0.05%    0.00%    0.00%
 14  1     4    1  |1 1>+         0.31%    6.35%    0.02%    0.71%    0.00%    0.00%    0.00%    0.00%
 15  1     5    1  |1 1>+         0.23%    0.05%    6.40%    0.00%    0.02%    0.68%    0.00%    0.01%
 16  1     6    1  |1 1>+         0.00%    0.00%    0.00%    0.00%    0.00%    0.02%    1.91%    0.91%
 17  1     7    1  |1 1>+         0.00%    0.10%    0.16%    0.34%    0.03%    1.60%   16.22%   31.89%
 18  1     8    1  |1 1>+         0.54%    0.00%   11.36%    0.24%    0.89%   34.88%    0.08%    1.82%
 19  1     9    1  |1 1>+         0.46%   11.46%    0.03%   37.01%    0.12%    0.18%    0.20%    0.36%
 20  1     1    1  |1 0>          0.01%    0.00%    0.21%    0.00%    0.00%    0.00%    0.00%    0.00%
 21  1     2    1  |1 0>          0.00%    0.00%    0.01%    0.00%    0.06%    2.73%    0.00%    0.04%
 22  1     3    1  |1 0>          0.35%    0.06%    8.49%    0.00%    0.00%    0.00%    0.00%    0.00%
 23  1     4    1  |1 0>          0.00%    0.00%    0.00%    0.00%    0.00%    0.00%    2.32%    0.51%
 24  1     5    1  |1 0>          6.09%    0.29%    0.30%    0.00%    0.69%    0.01%    0.00%    0.00%
 25  1     6    1  |1 0>          0.33%    6.35%    0.01%    0.71%    0.00%    0.00%    0.00%    0.00%
 26  1     7    1  |1 0>          1.31%   10.67%    0.00%   37.37%    0.09%    0.08%    0.03%    0.27%
 27  1     8    1  |1 0>         10.25%    1.16%    0.52%    0.09%   36.72%    0.71%    0.04%    0.34%
 28  1     9    1  |1 0>          0.06%    0.15%    0.01%    0.26%    0.12%    0.74%    9.00%   40.00%
 29  1     1    1  |1 1>-         0.01%    0.21%    0.00%    0.00%    0.00%    0.00%    0.00%    0.00%
 30  1     2    1  |1 1>-         0.30%    6.17%    0.01%    0.77%    0.00%    0.00%    0.00%    0.00%
 31  1     3    1  |1 1>-         0.11%    2.31%    0.00%    2.05%    0.01%    0.00%    0.00%    0.00%
 32  1     4    1  |1 1>-         6.10%    0.27%    0.31%    0.00%    0.69%    0.02%    0.00%    0.00%
 33  1     5    1  |1 1>-         0.00%    0.00%    0.00%    0.00%    0.00%    0.03%    0.02%    2.78%
 34  1     6    1  |1 1>-         0.27%    0.05%    6.36%    0.00%    0.02%    0.68%    0.00%    0.01%
 35  1     7    1  |1 1>-         0.87%    0.12%   10.89%    0.03%    2.05%   34.99%    0.47%    0.40%
 36  1     8    1  |1 1>-         0.18%    0.01%    0.09%    0.02%    0.31%    0.12%   49.15%    0.44%
 37  1     9    1  |1 1>-        10.45%    0.45%    1.05%    0.14%   35.19%    2.21%    0.33%    0.00%

   Total
 Nr Sym  State Sym Spin / Nr.     25       26       27       28       29       30       31       32

  1  1     1    1  |0 0>          0.01%    0.00%    0.00%    0.00%    0.00%    0.00%    0.00%    0.00%
  2  1     2    1  |0 0>          0.00%    0.00%    0.00%    0.00%   33.99%    0.00%    0.00%    0.00%
  3  1     3    1  |0 0>          0.00%    0.00%    0.00%    0.00%    0.00%    0.00%    0.00%    1.16%
  4  1     4    1  |0 0>          0.00%    0.00%    0.00%    0.00%    0.00%   33.99%    0.00%    0.00%
  5  1     5    1  |0 0>          0.00%    0.00%    0.00%    0.00%    0.00%    0.00%   33.99%    0.00%
  6  1     6    1  |0 0>          0.00%    0.00%    0.00%    0.00%    0.00%    0.00%    0.00%   32.83%
  7  1     7    1  |0 0>          0.00%    0.21%   23.33%    0.00%    0.00%    0.00%    0.00%    0.00%
  8  1     8    1  |0 0>          0.00%   23.24%    0.21%    0.10%    0.00%    0.00%    0.00%    0.00%
  9  1     9    1  |0 0>          0.00%    0.09%    0.01%   23.44%    0.00%    0.00%    0.00%    0.00%
 10  1    10    1  |0 0>         47.68%    0.00%    0.00%    0.00%    0.00%    0.00%    0.00%    0.00%
 11  1     1    1  |1 1>+         0.00%    0.72%    0.01%    0.00%    0.00%    0.00%    0.00%    0.00%
 12  1     2    1  |1 1>+         0.00%   22.47%    0.43%    0.07%    0.00%    0.00%    6.79%    0.00%
 13  1     3    1  |1 1>+         0.00%    6.62%    0.12%    0.04%    0.00%    0.00%   23.01%    0.00%
 14  1     4    1  |1 1>+         0.00%    0.42%   21.89%    0.00%    7.46%    0.00%    0.00%    0.00%
 15  1     5    1  |1 1>+         0.00%    0.07%    0.01%   22.24%    0.00%    7.43%    0.00%    0.00%
 16  1     6    1  |1 1>+         0.00%    0.00%    0.00%    0.00%    0.00%    0.02%    0.01%   18.13%
 17  1     7    1  |1 1>+        17.06%    0.00%    0.00%    0.01%    0.08%    0.37%    0.02%    5.41%
 18  1     8    1  |1 1>+         0.22%    0.00%    0.01%    0.65%    0.11%   10.17%    0.00%    0.10%
 19  1     9    1  |1 1>+         0.15%    0.01%    0.64%    0.01%   10.42%    0.08%    0.00%    0.05%
 20  1     1    1  |1 0>          0.00%    0.00%    0.00%    0.74%    0.00%    0.00%    0.00%    0.00%
 21  1     2    1  |1 0>          0.00%    0.00%    0.00%    0.02%    0.00%   29.71%    0.00%    0.01%
 22  1     3    1  |1 0>          0.00%    0.14%    0.00%   29.59%    0.00%    0.02%    0.00%    0.00%
 23  1     4    1  |1 0>          0.00%    0.00%    0.00%    0.00%    0.00%    0.04%    0.01%   25.94%
 24  1     5    1  |1 0>          0.00%   21.74%    0.46%    0.11%    0.00%    0.00%    7.45%    0.00%
 25  1     6    1  |1 0>          0.00%    0.46%   21.86%    0.00%    7.46%    0.00%    0.00%    0.00%
 26  1     7    1  |1 0>          0.12%    0.04%    0.62%    0.00%   10.40%    0.00%    0.13%    0.01%
 27  1     8    1  |1 0>          0.20%    0.61%    0.04%    0.00%    0.11%    0.00%   10.46%    0.03%
 28  1     9    1  |1 0>         17.12%    0.00%    0.01%    0.00%    0.10%    0.04%    0.03%    1.81%
 29  1     1    1  |1 1>-         0.00%    0.01%    0.72%    0.00%    0.00%    0.00%    0.00%    0.00%
 30  1     2    1  |1 1>-         0.00%    0.41%   21.23%    0.00%    8.15%    0.00%    0.00%    0.00%
 31  1     3    1  |1 1>-         0.00%    0.16%    7.96%    0.00%   21.71%    0.00%    0.00%    0.00%
 32  1     4    1  |1 1>-         0.00%   21.77%    0.42%    0.12%    0.00%    0.00%    7.44%    0.00%
 33  1     5    1  |1 1>-         0.00%    0.00%    0.00%    0.00%    0.00%    0.13%    0.06%    0.70%
 34  1     6    1  |1 1>-         0.00%    0.12%    0.00%   22.19%    0.00%    7.42%    0.00%    0.00%
 35  1     7    1  |1 1>-         0.26%    0.01%    0.00%    0.64%    0.00%   10.31%    0.08%    0.25%
 36  1     8    1  |1 1>-        17.02%    0.01%    0.00%    0.01%    0.00%    0.15%    0.12%   13.43%
 37  1     9    1  |1 1>-         0.16%    0.63%    0.01%    0.02%    0.00%    0.11%   10.39%    0.13%

   Total
 Nr Sym  State Sym Spin / Nr.     33       34       35       36       37

  1  1     1    1  |0 0>          0.00%    0.00%    0.00%    0.00%    0.01%
  2  1     2    1  |0 0>          0.00%    0.00%    0.00%    0.00%    0.00%
  3  1     3    1  |0 0>         32.83%    0.00%    0.00%    0.00%    0.00%
  4  1     4    1  |0 0>          0.00%    0.00%    0.00%    0.00%    0.00%
  5  1     5    1  |0 0>          0.00%    0.00%    0.00%    0.00%    0.00%
  6  1     6    1  |0 0>          1.16%    0.00%    0.00%    0.00%    0.00%
  7  1     7    1  |0 0>          0.00%    4.96%   13.66%    0.11%    0.00%
  8  1     8    1  |0 0>          0.00%   13.75%    4.97%    0.00%    0.00%
  9  1     9    1  |0 0>          0.00%    0.02%    0.09%   18.61%    0.00%
 10  1    10    1  |0 0>          0.00%    0.00%    0.00%    0.00%   52.32%
 11  1     1    1  |1 1>+         0.00%   12.12%    5.07%    0.36%    0.00%
 12  1     2    1  |1 1>+         0.01%    0.70%    0.29%    0.02%    0.00%
 13  1     3    1  |1 1>+         0.03%    0.21%    0.09%    0.01%    0.00%
 14  1     4    1  |1 1>+         0.00%    0.30%    0.68%    0.01%    0.00%
 15  1     5    1  |1 1>+         0.02%    0.00%    0.02%    0.96%    0.00%
 16  1     6    1  |1 1>+        11.69%    0.00%    0.00%    0.00%    0.00%
 17  1     7    1  |1 1>+         8.20%    0.04%    0.23%    0.39%   15.55%
 18  1     8    1  |1 1>+         0.28%    0.52%    0.10%   29.21%    0.20%
 19  1     9    1  |1 1>+         0.09%    8.79%   21.17%    0.00%    0.14%
 20  1     1    1  |1 0>          0.00%    0.09%    0.39%   17.07%    0.00%
 21  1     2    1  |1 0>          0.11%    0.00%    0.00%    0.00%    0.00%
 22  1     3    1  |1 0>          0.00%    0.01%    0.03%    1.28%    0.00%
 23  1     4    1  |1 0>          3.87%    0.00%    0.00%    0.00%    0.00%
 24  1     5    1  |1 0>          0.01%    0.68%    0.29%    0.02%    0.00%
 25  1     6    1  |1 0>          0.00%    0.30%    0.67%    0.01%    0.00%
 26  1     7    1  |1 0>          0.09%   12.62%   17.27%    0.13%    0.11%
 27  1     8    1  |1 0>          0.06%   17.41%   11.78%    0.68%    0.18%
 28  1     9    1  |1 0>         12.10%    0.02%    0.51%    0.01%   15.60%
 29  1     1    1  |1 1>-         0.00%    5.33%   12.09%    0.12%    0.00%
 30  1     2    1  |1 1>-         0.00%    0.29%    0.66%    0.01%    0.00%
 31  1     3    1  |1 1>-         0.00%    0.11%    0.25%    0.00%    0.00%
 32  1     4    1  |1 1>-         0.02%    0.68%    0.28%    0.02%    0.00%
 33  1     5    1  |1 1>-        28.96%    0.00%    0.00%    0.00%    0.00%
 34  1     6    1  |1 1>-         0.04%    0.01%    0.02%    0.95%    0.00%
 35  1     7    1  |1 1>-         0.02%    0.60%    1.10%   28.08%    0.24%
 36  1     8    1  |1 1>-         0.37%    0.28%    0.16%    0.28%   15.51%
 37  1     9    1  |1 1>-         0.00%   20.17%    8.13%    1.66%    0.15%


 No matrix element <i|DMX|i> larger than 5E-7
 No matrix element <i|DMX|1> larger than 5E-7

 No matrix element <i|DMY|i> larger than 5E-7
 No matrix element <i|DMY|1> larger than 5E-7

 No matrix element <i|DMZ|i> larger than 5E-7
 No matrix element <i|DMZ|1> larger than 5E-7


 **********************************************************************************************************************************
 DATASETS  * FILE   NREC   LENGTH (MB)   RECORD NAMES
              1      24       47.40       500      610      700      900      950      970     1000      129      960     1700   
                                          VAR    BASINP    GEOM    SYMINP    ZMAT    AOBASIS   BASIS     P2S    ABASIS    OPER   
                                         1101     1401     1411     1412     1650     1100     1400     1410     1200     1210   
                                          SR      EKINR    POTR     PVPR    MOLCAS      S      EKIN      POT      H0       H01  
                                         1080     1600     1380     1700(1)
                                         AOSYM     SMH     JKOP     OPER   

              2       7     1320.71       700     1000      520     2100     2140     5201     5202   
                                         GEOM     BASIS   MCVARS     RHF     MCSCF    MRCI     MRCI   

 PROGRAMS   *        TOTAL        CI     LSINT        CI        CI     MULTI   RHF-SCF       INT
 CPU TIMES  *     58624.93  53863.39      9.24   2651.07   2092.61      7.04      0.08      1.26
 REAL TIME  *     59161.00 SEC
 DISK USED  *         1.34 GB (local),       19.56 GB (total)
 SF USED    *         7.10 GB
 GA USED    *         0.00 MB       (max)       0.00 MB       (current)
 **********************************************************************************************************************************

 CI/USERDEF energy=  -2788.764904055928

              CI              CI           MULTI         RHF-SCF
  -2788.73086552  -2788.72006716  -2787.88201959  -2787.14843609
 **********************************************************************************************************************************
 Molpro calculation terminated with 1 warning(s)
