
 Working directory              : /wrk/irikura/molpro.0TzuJX2GvD/
 Global scratch directory       : /wrk/irikura/molpro.0TzuJX2GvD/
 Wavefunction directory         : /home/irikura/wfu/
 Main file repository           : /wrk/irikura/molpro.0TzuJX2GvD/

 id        : nistki

 Nodes            nprocs
 pn125343.nist.gov   14
 GA implementation: MPI file
 GA implementation (serial work in mppx): MPI file

 Using customized tuning parameters: mindgm=1; mindgv=20; mindgc=4; mindgr=1; noblas=0; minvec=7
 default implementation of scratch files=sf  


 Variables initialized (1042), CPU time= 0.01 sec
 ***,Kr SO-CI
                                                                                 ! active space (8/7)
 memory,4000,M;
 
 gprint,orbitals,civector,basis
 
 symmetry,xyz
 geometry={Kr};
 
                                                                                 !basis=aug-cc-pwCVTZ-PP
 basis={
 ecp,kr,ECP10MDF;
 spdfg,kr,aug-cc-pwCVTZ-PP;C; spdf,1,even,nprim=1,ratio=3.0;
 }
 
 rhf
 
 {multi,wmk
     occ,7,9
     wf,sym=1,spin=0;state,10; weight,99,1,1,1,1,1,1,1,1,1
     wf,sym=1,spin=2;state,9;
     expec2,lxx,lyy,lzz;
 }
 table, energy, ll
 title, Energies and &lt;L**2&gt; values
 
 core,0,0
 
 {ci;wf,sym=1,spin=0;state,10; save,5201.2}
 hlsdiag = energd4
 {ci;wf,sym=1,spin=2;state,9; save,5202.2}
 hlsdiag(11) = energd
 
 table,hlsdiag
 
 {ci;hlsmat,ecp,5201.2,5202.2;print,vls=0,hls=0}                                 !compute and diagonalize SO matrix
 Commands initialized (847), CPU time= 0.01 sec, 718 directives.
 Default parameters read. Elapsed time= 0.11 sec

 Checking input...
 Passed
1


                                         ***  PROGRAM SYSTEM MOLPRO  ***
                                       Copyright, TTI GmbH Stuttgart, 2015
                                    Version 2024.1 linked Mon Jun 17 07:53:25 2024


 **********************************************************************************************************************************
 LABEL *   Kr SO-CI                                                                                                                                                      
  (64 PROC) 64 bit mpp version                                                           DATE: 14-Oct-24          TIME: 10:15:40  
 **********************************************************************************************************************************

 SHA1:             0134236b472f03f1f5189f93707d8671e415b05c
 **********************************************************************************************************************************

 Memory per process:      4000 MW
 Total memory per node:  56000 MW

 GA preallocation disabled
 GA check disabled

 Variable memory set to 4000.0 MW


 ZSYMEL=XYZ

 SETTING BASIS          =    USERDEF


 Recomputing integrals since basis changed


 Using spherical harmonics

 Library entry Kr   ECP ECP10MDF                 selected for group  1
 Library entry KR     S AUG-CC-PWCVTZ-PP     selected for orbital group  1
 Even tempered Kr S diffuse               selected for group 1    nprim= 1    centre=  0.017    ratio= 3.000    dratio= 1.000
 Library entry KR     P AUG-CC-PWCVTZ-PP     selected for orbital group  1
 Even tempered Kr P diffuse               selected for group 1    nprim= 1    centre=  0.015    ratio= 3.000    dratio= 1.000
 Library entry KR     D AUG-CC-PWCVTZ-PP     selected for orbital group  1
 Even tempered Kr D diffuse               selected for group 1    nprim= 1    centre=  0.040    ratio= 3.000    dratio= 1.000
 Library entry KR     F AUG-CC-PWCVTZ-PP     selected for orbital group  1
 Even tempered Kr F diffuse               selected for group 1    nprim= 1    centre=  0.102    ratio= 3.000    dratio= 1.000
 Library entry KR     G AUG-CC-PWCVTZ-PP     selected for orbital group  1


 PROGRAM * SEWARD (Integral evaluation for generally contracted gaussian basis sets)     Author: Roland Lindh, 1990

 Geometry written to block  1 of record 700

 Orientation using atomic masses  
 Molecule type: Atom
 User-specified symmetry elements: XYZ
 Symmetry elements: XYZ
 Rotational constants:       0.0000000      0.0000000      0.0000000 GHz  (calculated with average atomic masses)

 Point group  Ci  



 ATOMIC COORDINATES

 NR  ATOM    CHARGE       X              Y              Z

   1  KR     26.00    0.000000000    0.000000000    0.000000000


          KR  CORE POTENTIAL

          g POTENTIAL

 POWERS             2
 EXPONENTIALS   1.000000    
 COEFFICIENTS   0.000000    

          s - g POTENTIAL

 POWERS             2              2              2
 EXPONENTIALS   70.03441       31.89597       7.353728    
 COEFFICIENTS   49.95383       369.9782       10.05454    

          p - g POTENTIAL

 POWERS             2              2              2              2
 EXPONENTIALS   47.26518       46.66427       23.00813       22.10098    
 COEFFICIENTS   99.10183       198.2325       28.20467       56.51679    

          d - g POTENTIAL

 POWERS             2              2              2              2              2              2
 EXPONENTIALS   50.76817       50.78223       15.47950       15.55938       2.877154       1.991196    
 COEFFICIENTS  -18.58888      -27.87540     -0.2934110     -0.4693990      6.8881000E-02  0.1322700    

          f - g POTENTIAL

 POWERS             2              2
 EXPONENTIALS   15.43757       22.05574    
 COEFFICIENTS  -1.223389      -2.991233    


          KR  SPIN-ORBIT POTENTIAL

          p POTENTIAL

 POWERS             2              2              2              2
 EXPONENTIALS   47.26518       46.66427       23.00813       22.10098    
 COEFFICIENTS  -198.2037       198.2325      -56.40934       56.51679    

          d POTENTIAL

 POWERS             2              2              2              2              2              2
 EXPONENTIALS   50.76817       50.78223       15.47950       15.55938       2.877154       1.991196    
 COEFFICIENTS   18.58888      -18.58360      0.2934110     -0.3129330     -6.8881000E-02  8.8180000E-02

          f POTENTIAL

 POWERS             2              2
 EXPONENTIALS   15.43757       22.05574    
 COEFFICIENTS  0.8155930      -1.495617    


 BASIS DATA

   Nr Sym  Nuc  Type         Exponents   Contraction coefficients

    1.1 Ag    1  1s        9707.440000     0.000597   -0.000265    0.000000    0.000000    0.000000
    2.1 Ag                 1463.500000     0.004129   -0.001768    0.000000    0.000000    0.000000
    3.1 Ag                  327.679000     0.013457   -0.006201    0.000000    0.000000    0.000000
    4.1 Ag                   52.425600     0.075074   -0.028399    0.000000    0.000000    0.000000
    5.1 Ag                   18.852200    -0.391898    0.156879    0.000000    0.000000    0.000000
                              4.169280     0.667352   -0.364809    0.000000    0.000000    0.000000
                              1.992660     0.506268   -0.433044    0.000000    0.000000    0.000000
                              0.683695     0.039872    0.362601    1.000000    0.000000    0.000000
                              0.324338    -0.007247    0.678226    0.000000    1.000000    0.000000
                              0.138209     0.001864    0.238603    0.000000    0.000000    1.000000
    6.1 Ag    1  1s           7.661700     1.000000
    7.1 Ag    1  1s           1.646000     1.000000
    8.1 Ag    1  1s           0.050600     1.000000
    9.1 Ag    1  1s           0.016867     1.000000
   10.1 Ag    1  3d0        377.821000     0.001434
                            114.897000     0.014629
                             46.944000     0.071096
                             20.553600     0.183558
                              9.371370     0.322931
                              4.282900     0.377030
                              1.917840     0.256887
                              0.776390     0.065292
   11.1 Ag    1  3d2-       377.821000     0.001434
                            114.897000     0.014629
                             46.944000     0.071096
                             20.553600     0.183558
                              9.371370     0.322931
                              4.282900     0.377030
                              1.917840     0.256887
                              0.776390     0.065292
   12.1 Ag    1  3d1+       377.821000     0.001434
                            114.897000     0.014629
                             46.944000     0.071096
                             20.553600     0.183558
                              9.371370     0.322931
                              4.282900     0.377030
                              1.917840     0.256887
                              0.776390     0.065292
   13.1 Ag    1  3d2+       377.821000     0.001434
                            114.897000     0.014629
                             46.944000     0.071096
                             20.553600     0.183558
                              9.371370     0.322931
                              4.282900     0.377030
                              1.917840     0.256887
                              0.776390     0.065292
   14.1 Ag    1  3d1-       377.821000     0.001434
                            114.897000     0.014629
                             46.944000     0.071096
                             20.553600     0.183558
                              9.371370     0.322931
                              4.282900     0.377030
                              1.917840     0.256887
                              0.776390     0.065292
   15.1 Ag    1  3d0        377.821000     0.000000
                            114.897000     0.000000
                             46.944000     0.000000
                             20.553600     0.000000
                              9.371370     0.000000
                              4.282900     0.000000
                              1.917840     0.000000
                              0.776390     1.000000
   16.1 Ag    1  3d2-       377.821000     0.000000
                            114.897000     0.000000
                             46.944000     0.000000
                             20.553600     0.000000
                              9.371370     0.000000
                              4.282900     0.000000
                              1.917840     0.000000
                              0.776390     1.000000
   17.1 Ag    1  3d1+       377.821000     0.000000
                            114.897000     0.000000
                             46.944000     0.000000
                             20.553600     0.000000
                              9.371370     0.000000
                              4.282900     0.000000
                              1.917840     0.000000
                              0.776390     1.000000
   18.1 Ag    1  3d2+       377.821000     0.000000
                            114.897000     0.000000
                             46.944000     0.000000
                             20.553600     0.000000
                              9.371370     0.000000
                              4.282900     0.000000
                              1.917840     0.000000
                              0.776390     1.000000
   19.1 Ag    1  3d1-       377.821000     0.000000
                            114.897000     0.000000
                             46.944000     0.000000
                             20.553600     0.000000
                              9.371370     0.000000
                              4.282900     0.000000
                              1.917840     0.000000
                              0.776390     1.000000
   20.1 Ag    1  3d0          0.295600     1.000000
   21.1 Ag    1  3d2-         0.295600     1.000000
   22.1 Ag    1  3d1+         0.295600     1.000000
   23.1 Ag    1  3d2+         0.295600     1.000000
   24.1 Ag    1  3d1-         0.295600     1.000000
   25.1 Ag    1  3d0          4.692000     1.000000
   26.1 Ag    1  3d2-         4.692000     1.000000
   27.1 Ag    1  3d1+         4.692000     1.000000
   28.1 Ag    1  3d2+         4.692000     1.000000
   29.1 Ag    1  3d1-         4.692000     1.000000
   30.1 Ag    1  3d0          2.092000     1.000000
   31.1 Ag    1  3d2-         2.092000     1.000000
   32.1 Ag    1  3d1+         2.092000     1.000000
   33.1 Ag    1  3d2+         2.092000     1.000000
   34.1 Ag    1  3d1-         2.092000     1.000000
   35.1 Ag    1  3d0          0.119900     1.000000
   36.1 Ag    1  3d2-         0.119900     1.000000
   37.1 Ag    1  3d1+         0.119900     1.000000
   38.1 Ag    1  3d2+         0.119900     1.000000
   39.1 Ag    1  3d1-         0.119900     1.000000
   40.1 Ag    1  3d0          0.039967     1.000000
   41.1 Ag    1  3d2-         0.039967     1.000000
   42.1 Ag    1  3d1+         0.039967     1.000000
   43.1 Ag    1  3d2+         0.039967     1.000000
   44.1 Ag    1  3d1-         0.039967     1.000000
   45.1 Ag    1  5g0          2.873500     1.000000
   46.1 Ag    1  5g2-         2.873500     1.000000
   47.1 Ag    1  5g1+         2.873500     1.000000
   48.1 Ag    1  5g4+         2.873500     1.000000
   49.1 Ag    1  5g1-         2.873500     1.000000
   50.1 Ag    1  5g2+         2.873500     1.000000
   51.1 Ag    1  5g4-         2.873500     1.000000
   52.1 Ag    1  5g3+         2.873500     1.000000
   53.1 Ag    1  5g3-         2.873500     1.000000
    1.2 Au    1  2px        489.457000     0.000603
                             93.639500     0.006479
                             28.592100    -0.089274
                              7.898610     0.339484
                              3.815660     0.515078
                              1.810830     0.246876
                              0.741758     0.021833
                              0.295727    -0.000614
                              0.110453     0.000281
    2.2 Au    1  2py        489.457000     0.000603
                             93.639500     0.006479
                             28.592100    -0.089274
                              7.898610     0.339484
                              3.815660     0.515078
                              1.810830     0.246876
                              0.741758     0.021833
                              0.295727    -0.000614
                              0.110453     0.000281
    3.2 Au    1  2pz        489.457000     0.000603
                             93.639500     0.006479
                             28.592100    -0.089274
                              7.898610     0.339484
                              3.815660     0.515078
                              1.810830     0.246876
                              0.741758     0.021833
                              0.295727    -0.000614
                              0.110453     0.000281
    4.2 Au    1  2px        489.457000    -0.000211
                             93.639500    -0.001687
                             28.592100     0.026344
                              7.898610    -0.118687
                              3.815660    -0.193579
                              1.810830    -0.074446
                              0.741758     0.364702
                              0.295727     0.556406
                              0.110453     0.255736
    5.2 Au    1  2py        489.457000    -0.000211
                             93.639500    -0.001687
                             28.592100     0.026344
                              7.898610    -0.118687
                              3.815660    -0.193579
                              1.810830    -0.074446
                              0.741758     0.364702
                              0.295727     0.556406
                              0.110453     0.255736
    6.2 Au    1  2pz        489.457000    -0.000211
                             93.639500    -0.001687
                             28.592100     0.026344
                              7.898610    -0.118687
                              3.815660    -0.193579
                              1.810830    -0.074446
                              0.741758     0.364702
                              0.295727     0.556406
                              0.110453     0.255736
    7.2 Au    1  2px          0.909400     1.000000
    8.2 Au    1  2py          0.909400     1.000000
    9.2 Au    1  2pz          0.909400     1.000000
   10.2 Au    1  2px          0.141600     1.000000
   11.2 Au    1  2py          0.141600     1.000000
   12.2 Au    1  2pz          0.141600     1.000000
   13.2 Au    1  2px         11.291000     1.000000
   14.2 Au    1  2py         11.291000     1.000000
   15.2 Au    1  2pz         11.291000     1.000000
   16.2 Au    1  2px          2.438500     1.000000
   17.2 Au    1  2py          2.438500     1.000000
   18.2 Au    1  2pz          2.438500     1.000000
   19.2 Au    1  2px          0.046500     1.000000
   20.2 Au    1  2py          0.046500     1.000000
   21.2 Au    1  2pz          0.046500     1.000000
   22.2 Au    1  2px          0.015500     1.000000
   23.2 Au    1  2py          0.015500     1.000000
   24.2 Au    1  2pz          0.015500     1.000000
   25.2 Au    1  4f1+         0.674600     1.000000
   26.2 Au    1  4f1-         0.674600     1.000000
   27.2 Au    1  4f0          0.674600     1.000000
   28.2 Au    1  4f3+         0.674600     1.000000
   29.2 Au    1  4f2-         0.674600     1.000000
   30.2 Au    1  4f3-         0.674600     1.000000
   31.2 Au    1  4f2+         0.674600     1.000000
   32.2 Au    1  4f1+         9.353200     1.000000
   33.2 Au    1  4f1-         9.353200     1.000000
   34.2 Au    1  4f0          9.353200     1.000000
   35.2 Au    1  4f3+         9.353200     1.000000
   36.2 Au    1  4f2-         9.353200     1.000000
   37.2 Au    1  4f3-         9.353200     1.000000
   38.2 Au    1  4f2+         9.353200     1.000000
   39.2 Au    1  4f1+         2.509400     1.000000
   40.2 Au    1  4f1-         2.509400     1.000000
   41.2 Au    1  4f0          2.509400     1.000000
   42.2 Au    1  4f3+         2.509400     1.000000
   43.2 Au    1  4f2-         2.509400     1.000000
   44.2 Au    1  4f3-         2.509400     1.000000
   45.2 Au    1  4f2+         2.509400     1.000000
   46.2 Au    1  4f1+         0.306600     1.000000
   47.2 Au    1  4f1-         0.306600     1.000000
   48.2 Au    1  4f0          0.306600     1.000000
   49.2 Au    1  4f3+         0.306600     1.000000
   50.2 Au    1  4f2-         0.306600     1.000000
   51.2 Au    1  4f3-         0.306600     1.000000
   52.2 Au    1  4f2+         0.306600     1.000000
   53.2 Au    1  4f1+         0.102200     1.000000
   54.2 Au    1  4f1-         0.102200     1.000000
   55.2 Au    1  4f0          0.102200     1.000000
   56.2 Au    1  4f3+         0.102200     1.000000
   57.2 Au    1  4f2-         0.102200     1.000000
   58.2 Au    1  4f3-         0.102200     1.000000
   59.2 Au    1  4f2+         0.102200     1.000000

 NUCLEAR CHARGE:                   26
 NUMBER OF PRIMITIVE AOS:         202
 NUMBER OF SYMMETRY AOS:          168
 NUMBER OF CONTRACTIONS:          112   (   53Ag  +   59Au  )
 NUMBER OF INNER CORE ORBITALS:     0   (    0Ag  +    0Au  )
 NUMBER OF OUTER CORE ORBITALS:     9   (    6Ag  +    3Au  )
 NUMBER OF VALENCE ORBITALS:        4   (    1Ag  +    3Au  )


 LX: Ag           LY: Ag           LZ: Ag 


 NUCLEAR REPULSION ENERGY    0.00000000

 EXTRA SYMMETRY OF AOS IN SYMMETRY 1:   1 1 1 1 1 1 1 1 1 2   3 4 5 6 2 3 4 5 6 2   3 4 5 6 2 3 4 5 6 2   3 4 5 6 2 3 4 5 6 2
                                        3 4 5 6 7 8 9101112  131415
 EXTRA SYMMETRY OF AOS IN SYMMETRY 2:   1 2 3 1 2 3 1 2 3 1   2 3 1 2 3 1 2 3 1 2   3 1 2 3 4 5 6 7 8 9  10 4 5 6 7 8 910 4 5
                                        6 7 8 910 4 5 6 7 8   910 4 5 6 7 8 910


 Eigenvalues of metric

         1 0.234E-04 0.260E-02 0.134E-01 0.411E-01 0.411E-01 0.411E-01 0.411E-01 0.411E-01
         2 0.777E-02 0.777E-02 0.777E-02 0.144E-01 0.144E-01 0.144E-01 0.118E+00 0.118E+00


 Contracted 2-electron integrals neglected if value below      1.0D-12
 AO integral compression algorithm  1   Integral accuracy      1.0D-12

     29.098 MB (compressed) written to integral file ( 17.5%)

     Node minimum: 1.311 MB, node maximum: 3.670 MB


 NUMBER OF SORTED TWO-ELECTRON INTEGRALS:     726474.     BUFFER LENGTH:  32768
 NUMBER OF SEGMENTS:   1  SEGMENT LENGTH:     726474      RECORD LENGTH: 524288

 Memory used in sort:       1.28 MW

 SORT1 READ    21109381. AND WROTE      145840. INTEGRALS IN      1 RECORDS. CPU TIME:     0.11 SEC, REAL TIME:     0.12 SEC
 SORT2 READ     2032599. AND WROTE    10190541. INTEGRALS IN     98 RECORDS. CPU TIME:     0.01 SEC, REAL TIME:     0.02 SEC

 Node minimum:      724878.  Node maximum:      731457. integrals

 OPERATOR DM      FOR CENTER  0  COORDINATES:    0.000000    0.000000    0.000000


 **********************************************************************************************************************************
 DATASETS  * FILE   NREC   LENGTH (MB)   RECORD NAMES
              1      19       28.94       500      610      700      900      950      970     1000      129      960     1100   
                                          VAR    BASINP    GEOM    SYMINP    ZMAT    AOBASIS   BASIS     P2S    ABASIS      S 
                                         1400     1410     1420     1200     1210     1080     1700     1600     1650   
                                           T        V       ECP      H0       H01     AOSYM    OPER      SMH    MOLCAS    

 PROGRAMS   *        TOTAL       INT
 CPU TIMES  *         1.28      1.03
 REAL TIME  *         2.94 SEC
 DISK USED  *        29.28 MB (local),      480.20 MB (total)
 GA USED    *         0.00 MB       (max)       0.00 MB       (current)
 **********************************************************************************************************************************


 Program * Restricted Hartree-Fock


   Atom=KR basis=cc-pVTZ-PP        lmin=0  lmax=2

 Orbital guess generated from atomic densities.

 Initial occupancy:   7   6

 NELEC=   26   SYM=1   MS2= 0   THRE=1.0D-08   THRD=3.2D-06   THRG=3.2D-06  HFMA2=F  DIIS_START=2   DIIS_MAX=10   DIIS_INCORE=F

 Level shifts:    0.00 (CLOSED)    0.00 (OPEN)    0.30 (GAP_MIN)

 ITER           ETOT              DE          GRAD        DDIFF     DIIS  NEXP   TIME(IT)  TIME(TOT)  DIAG
   1     -462.19811952    -462.19811952     0.00D+00     0.13D+00     0     0       0.00      0.01    start
   2     -462.19812133      -0.00000180     0.43D-04     0.11D-03     1     0       0.01      0.02    diag
   3     -462.19812140      -0.00000008     0.65D-05     0.11D-04     2     0       0.01      0.03    diag
   4     -462.19812140      -0.00000000     0.22D-05     0.19D-05     3     0       0.00      0.03    diag
   5     -462.19812140      -0.00000000     0.55D-06     0.76D-06     0     0       0.01      0.04    diag

 Final occupancy:   7   6

 !RHF STATE 1.1 Energy               -462.198121404738
  RHF One-electron energy            -808.814604726112
  RHF Two-electron energy             346.616483321374
  RHF Kinetic energy                  329.241872831709
  RHF Nuclear energy                    0.000000000000
  RHF Virial quotient                  -1.403825453395

 !RHF STATE 1.1 Dipole moment           0.00000000     0.00000000     0.00000000
 Dipole moment /Debye                   0.00000000     0.00000000     0.00000000

 ELECTRON ORBITALS
 =================

  Orbital  Occupation    Energy    Cen Mu Typ  Coefficients
    1.1     2.00000   -10.80704     1  1  s    0.99160
    2.1     2.00000    -3.75365     1  1  d0   1.00003
    3.1     2.00000    -3.75365     1  1  d2- -0.68550    1  1  d2+  0.68754
    4.1     2.00000    -3.75365     1  1  d2-  0.70298    1  1  d1+ -0.41883    1  1  d2+  0.54303
    5.1     2.00000    -3.75365     1  1  d1+ -0.37845    1  1  d1-  0.92497
    6.1     2.00000    -3.75365     1  1  d1+  0.79224    1  1  d2+  0.48197    1  1  d1-  0.32444
    7.1     2.00000    -1.18794     1  2  s    0.94691
    1.2     2.00000    -8.48578     1  1  py   0.99870
    2.2     2.00000    -8.48578     1  1  px   1.00005
    3.2     2.00000    -8.48578     1  1  pz   0.99870
    4.2     2.00000    -0.52339     1  2  py   0.99878
    5.2     2.00000    -0.52339     1  2  px   0.99879
    6.2     2.00000    -0.52339     1  2  pz   0.99878


 HOMO      6.2    -0.523392 =     -14.2422eV
 LUMO      8.1     0.026695 =       0.7264eV
 LUMO-HOMO         0.550087 =      14.9686eV

 Orbitals saved in record  2100.2


 **********************************************************************************************************************************
 DATASETS  * FILE   NREC   LENGTH (MB)   RECORD NAMES
              1      19       28.94       500      610      700      900      950      970     1000      129      960     1100   
                                          VAR    BASINP    GEOM    SYMINP    ZMAT    AOBASIS   BASIS     P2S    ABASIS      S 
                                         1400     1410     1420     1200     1210     1080     1700     1600     1650   
                                           T        V       ECP      H0       H01     AOSYM    OPER      SMH    MOLCAS    

              2       4        0.48       700     1000      520     2100   
                                         GEOM     BASIS   MCVARS     RHF  

 PROGRAMS   *        TOTAL   RHF-SCF       INT
 CPU TIMES  *         1.33      0.05      1.03
 REAL TIME  *         3.00 SEC
 DISK USED  *        29.80 MB (local),      487.51 MB (total)
 GA USED    *         0.00 MB       (max)       0.00 MB       (current)
 **********************************************************************************************************************************

 PROGRAM * MULTI (Direct Multiconfiguration SCF)       Authors: P.J. Knowles, H.-J. Werner (1984)
                                                                D.A. Kreplin, P.J. Knowles, H.-J. Werner (2019)

 Number of closed-shell orbitals:   9 (    6    3)
 Number of active  orbitals:        7 (    1    6)
 Number of external orbitals:      96 (   46   50)

 State symmetry 1

 Number of active electrons:   8    Spin symmetry=Singlet   Space symmetry=1
 Number of states:            10
 Number of CSFs:             280   (625 determinants, 1225 intermediate states)

 State symmetry 2

 Number of active electrons:   8    Spin symmetry=Triplet   Space symmetry=1
 Number of states:             9
 Number of CSFs:             294   (345 determinants, 735 intermediate states)

 Molecular orbitals read from record     2100.2  Type=RHF/CANONICAL  
 *** IN SYMMETRY 1 ORBITAL  2 SYMMETRY CONTAMINATION OF 0.953D-03 HAS BEEN REMOVED
 *** IN SYMMETRY 1 ORBITAL  3 SYMMETRY CONTAMINATION OF 0.587D+00 HAS BEEN REMOVED
 *** IN SYMMETRY 1 ORBITAL  4 SYMMETRY CONTAMINATION OF 0.621D+00 HAS BEEN REMOVED
 *** IN SYMMETRY 1 ORBITAL  5 SYMMETRY CONTAMINATION OF 0.315D+00 HAS BEEN REMOVED
 *** IN SYMMETRY 1 ORBITAL  6 SYMMETRY CONTAMINATION OF 0.556D+00 HAS BEEN REMOVED

 EXTRA SYMMETRY OF MOS IN SYMMETRY 1:   1 2 5 3 6 4 1 1 3 5   4 6 2 1 3 5 6 4 2 1   3 5 4 6 2 1 2 3 5 4   6 1 2 3 5 6 4 812 7
                                       11 914151310 6 4 3 5   2 1 1
 *** IN SYMMETRY 2 ORBITAL  1 SYMMETRY CONTAMINATION OF 0.494D-01 HAS BEEN REMOVED
 *** IN SYMMETRY 2 ORBITAL  3 SYMMETRY CONTAMINATION OF 0.494D-01 HAS BEEN REMOVED
 *** IN SYMMETRY 2 ORBITAL  4 SYMMETRY CONTAMINATION OF 0.168D-02 HAS BEEN REMOVED
 *** IN SYMMETRY 2 ORBITAL  6 SYMMETRY CONTAMINATION OF 0.168D-02 HAS BEEN REMOVED
 EXTRA SYMMETRY OF MOS IN SYMMETRY 2:   2 1 3 2 1 3 3 2 1 3   2 1 4 5 810 7 9 6 1   2 3 4 5 610 8 7 9 2   1 3 5 410 8 6 7 910
                                        8 5 4 6 9 7 2 1 3 8  10 5 4 9 7 6 2 3 1

 Wavefunction dump at record             2140.2

 Convergence thresholds  0.10E-04 (gradient)  0.10E-05 (energy)

 Weight factors for state symmetry  1:    0.84615   0.00855   0.00855   0.00855   0.00855   0.00855   0.00855   0.00855
                                          0.00855   0.00855
 Weight factors for state symmetry  2:    0.00855   0.00855   0.00855   0.00855   0.00855   0.00855   0.00855   0.00855
                                          0.00855
 
 Number of orbital rotations:  796  ( 24 closed/active, 426 closed/virtual, 0 active/active, 346 active/virtual )
 Total number of variables:    10151
 
 Second-order MCSCF: L-BFGS accelerated
 
 ITER  MIC  NCI  NEG     ENERGY(VAR)    ENERGY(PROJ) ENERGY CHANGE       GRAD(0)  GRAD(ORB)   GRAD(CI)      STEP      TIME
   1   12   31    0   -462.12927972    -462.13436222   -0.00508250    0.04925144 0.00003603 0.00126934  0.10E+01      3.81
   2    8   25    0   -462.13355069    -462.13377720   -0.00022651    0.05132913 0.00010783 0.00008094  0.19E-01      7.57
   3    6   20    0   -462.13377768    -462.13377771   -0.00000003    0.00014661 0.00000001 0.00000042  0.26E-02     10.88
   4    2    5    0   -462.13377771    -462.13377771   -0.00000000    0.00000003 0.00000001 0.00000003  0.52E-06     11.39

 CONVERGENCE REACHED!  Final gradient:    0.00000001 ( 0.12E-07)
                       Final energy:   -462.13377771
 
 Results for state 1.1 Singlet
 =============================
 !MCSCF STATE 1.1 Singlet Energy              -462.199049021296
 Nuclear energy                                  0.00000000
 Kinetic energy                                329.37142781
 One electron energy                          -809.06918886
 Two electron energy                           346.87013984
 Virial ratio                                    2.40327609
 
 !MCSCF STATE 1.1 Singlet Dipole moment          0.00000000     0.00000000     0.00000000
 Dipole moment /Debye                            0.00000000     0.00000000     0.00000000
 
 Results for state 2.1 Singlet
 =============================
 !MCSCF STATE 2.1 Singlet Energy              -461.776067473391
 Nuclear energy                                  0.00000000
 Kinetic energy                                328.25276691
 One electron energy                          -800.36823342
 Two electron energy                           338.59216595
 Virial ratio                                    2.40676976
 
 !MCSCF STATE 2.1 Singlet Dipole moment          0.00000000     0.00000000     0.00000000
 Dipole moment /Debye                            0.00000000     0.00000000     0.00000000
 
 Results for state 3.1 Singlet
 =============================
 !MCSCF STATE 3.1 Singlet Energy              -461.776067473132
 Nuclear energy                                  0.00000000
 Kinetic energy                                328.25276691
 One electron energy                          -800.36823344
 Two electron energy                           338.59216597
 Virial ratio                                    2.40676976
 
 !MCSCF STATE 3.1 Singlet Dipole moment          0.00000000     0.00000000     0.00000000
 Dipole moment /Debye                            0.00000000     0.00000000     0.00000000
 
 Results for state 4.1 Singlet
 =============================
 !MCSCF STATE 4.1 Singlet Energy              -461.776067473067
 Nuclear energy                                  0.00000000
 Kinetic energy                                328.25276691
 One electron energy                          -800.36823344
 Two electron energy                           338.59216597
 Virial ratio                                    2.40676976
 
 !MCSCF STATE 4.1 Singlet Dipole moment          0.00000000     0.00000000     0.00000000
 Dipole moment /Debye                            0.00000000     0.00000000     0.00000000
 
 Results for state 5.1 Singlet
 =============================
 !MCSCF STATE 5.1 Singlet Energy              -461.776067472219
 Nuclear energy                                  0.00000000
 Kinetic energy                                328.25276692
 One electron energy                          -800.36823349
 Two electron energy                           338.59216602
 Virial ratio                                    2.40676976
 
 !MCSCF STATE 5.1 Singlet Dipole moment          0.00000000     0.00000000     0.00000000
 Dipole moment /Debye                            0.00000000     0.00000000     0.00000000
 
 Results for state 6.1 Singlet
 =============================
 !MCSCF STATE 6.1 Singlet Energy              -461.776067472215
 Nuclear energy                                  0.00000000
 Kinetic energy                                328.25276692
 One electron energy                          -800.36823349
 Two electron energy                           338.59216602
 Virial ratio                                    2.40676976
 
 !MCSCF STATE 6.1 Singlet Dipole moment          0.00000000     0.00000000     0.00000000
 Dipole moment /Debye                            0.00000000     0.00000000     0.00000000
 
 Results for state 7.1 Singlet
 =============================
 !MCSCF STATE 7.1 Singlet Energy              -461.771800471257
 Nuclear energy                                  0.00000000
 Kinetic energy                                328.24541168
 One electron energy                          -800.34860332
 Two electron energy                           338.57680285
 Virial ratio                                    2.40678829
 
 !MCSCF STATE 7.1 Singlet Dipole moment          0.00000000     0.00000000     0.00000000
 Dipole moment /Debye                            0.00000000     0.00000000     0.00000000
 
 Results for state 8.1 Singlet
 =============================
 !MCSCF STATE 8.1 Singlet Energy              -461.771800471188
 Nuclear energy                                  0.00000000
 Kinetic energy                                328.24541168
 One electron energy                          -800.34860332
 Two electron energy                           338.57680285
 Virial ratio                                    2.40678829
 
 !MCSCF STATE 8.1 Singlet Dipole moment          0.00000000     0.00000000     0.00000000
 Dipole moment /Debye                            0.00000000     0.00000000     0.00000000
 
 Results for state 9.1 Singlet
 =============================
 !MCSCF STATE 9.1 Singlet Energy              -461.771800470282
 Nuclear energy                                  0.00000000
 Kinetic energy                                328.24541169
 One electron energy                          -800.34860337
 Two electron energy                           338.57680290
 Virial ratio                                    2.40678829
 
 !MCSCF STATE 9.1 Singlet Dipole moment          0.00000000     0.00000000     0.00000000
 Dipole moment /Debye                            0.00000000     0.00000000     0.00000000
 
 Results for state 10.1 Singlet
 ==============================
 !MCSCF STATE 10.1 Singlet Energy             -461.742393124087
 Nuclear energy                                  0.00000000
 Kinetic energy                                328.64504169
 One electron energy                          -801.66589392
 Two electron energy                           339.92350080
 Virial ratio                                    2.40498816
 
 !MCSCF STATE 10.1 Singlet Dipole moment         0.00000000     0.00000000     0.00000000
 Dipole moment /Debye                            0.00000000     0.00000000     0.00000000
 
 Results for state 1.1 Triplet
 =============================
 !MCSCF STATE 1.1 Triplet Energy              -461.792202755205
 Nuclear energy                                  0.00000000
 Kinetic energy                                328.21608491
 One electron energy                          -800.26196246
 Two electron energy                           338.46975971
 Virial ratio                                    2.40697615
 
 !MCSCF STATE 1.1 Triplet Dipole moment          0.00000000     0.00000000     0.00000000
 Dipole moment /Debye                            0.00000000     0.00000000     0.00000000
 
 Results for state 2.1 Triplet
 =============================
 !MCSCF STATE 2.1 Triplet Energy              -461.779907618159
 Nuclear energy                                  0.00000000
 Kinetic energy                                328.23425279
 One electron energy                          -800.31610286
 Two electron energy                           338.53619524
 Virial ratio                                    2.40686081
 
 !MCSCF STATE 2.1 Triplet Dipole moment          0.00000000     0.00000000     0.00000000
 Dipole moment /Debye                            0.00000000     0.00000000     0.00000000
 
 Results for state 3.1 Triplet
 =============================
 !MCSCF STATE 3.1 Triplet Energy              -461.779907617940
 Nuclear energy                                  0.00000000
 Kinetic energy                                328.23425279
 One electron energy                          -800.31610287
 Two electron energy                           338.53619525
 Virial ratio                                    2.40686081
 
 !MCSCF STATE 3.1 Triplet Dipole moment          0.00000000     0.00000000     0.00000000
 Dipole moment /Debye                            0.00000000     0.00000000     0.00000000
 
 Results for state 4.1 Triplet
 =============================
 !MCSCF STATE 4.1 Triplet Energy              -461.779907617886
 Nuclear energy                                  0.00000000
 Kinetic energy                                328.23425279
 One electron energy                          -800.31610287
 Two electron energy                           338.53619526
 Virial ratio                                    2.40686081
 
 !MCSCF STATE 4.1 Triplet Dipole moment          0.00000000     0.00000000     0.00000000
 Dipole moment /Debye                            0.00000000     0.00000000     0.00000000
 
 Results for state 5.1 Triplet
 =============================
 !MCSCF STATE 5.1 Triplet Energy              -461.779907617178
 Nuclear energy                                  0.00000000
 Kinetic energy                                328.23425279
 One electron energy                          -800.31610292
 Two electron energy                           338.53619530
 Virial ratio                                    2.40686081
 
 !MCSCF STATE 5.1 Triplet Dipole moment          0.00000000     0.00000000     0.00000000
 Dipole moment /Debye                            0.00000000     0.00000000     0.00000000
 
 Results for state 6.1 Triplet
 =============================
 !MCSCF STATE 6.1 Triplet Energy              -461.779907617177
 Nuclear energy                                  0.00000000
 Kinetic energy                                328.23425279
 One electron energy                          -800.31610292
 Two electron energy                           338.53619530
 Virial ratio                                    2.40686081
 
 !MCSCF STATE 6.1 Triplet Dipole moment          0.00000000     0.00000000     0.00000000
 Dipole moment /Debye                            0.00000000     0.00000000     0.00000000
 
 Results for state 7.1 Triplet
 =============================
 !MCSCF STATE 7.1 Triplet Energy              -461.772088849515
 Nuclear energy                                  0.00000000
 Kinetic energy                                328.24217138
 One electron energy                          -800.33775977
 Two electron energy                           338.56567092
 Virial ratio                                    2.40680305
 
 !MCSCF STATE 7.1 Triplet Dipole moment          0.00000000     0.00000000     0.00000000
 Dipole moment /Debye                            0.00000000     0.00000000     0.00000000
 
 Results for state 8.1 Triplet
 =============================
 !MCSCF STATE 8.1 Triplet Energy              -461.772088849446
 Nuclear energy                                  0.00000000
 Kinetic energy                                328.24217138
 One electron energy                          -800.33775977
 Two electron energy                           338.56567093
 Virial ratio                                    2.40680305
 
 !MCSCF STATE 8.1 Triplet Dipole moment          0.00000000     0.00000000     0.00000000
 Dipole moment /Debye                            0.00000000     0.00000000     0.00000000
 
 Results for state 9.1 Triplet
 =============================
 !MCSCF STATE 9.1 Triplet Energy              -461.772088848551
 Nuclear energy                                  0.00000000
 Kinetic energy                                328.24217139
 One electron energy                          -800.33775982
 Two electron energy                           338.56567097
 Virial ratio                                    2.40680305
 
 !MCSCF STATE 9.1 Triplet Dipole moment          0.00000000     0.00000000     0.00000000
 Dipole moment /Debye                            0.00000000     0.00000000     0.00000000
 
 State-averaged charge density matrix saved on record 2140.2 (density set 1)
 
 No non-zero expectation values
 
 Expectation values for two-electron operators:
 
 ? Warning
 ? Transition properties are only calculated between states of the same symmetry
 ? The problem occurs in mu_properties_expec2

 !MCSCF expec      <1.1 Singlet|LXLX|1.1 Singlet>    -0.000000000000
 !MCSCF expec      <2.1 Singlet|LXLX|2.1 Singlet>     0.004028630318
 !MCSCF expec      <3.1 Singlet|LXLX|3.1 Singlet>     0.999999999777
 !MCSCF expec      <4.1 Singlet|LXLX|4.1 Singlet>     0.999999999870
 !MCSCF expec      <5.1 Singlet|LXLX|5.1 Singlet>     3.999999999104
 !MCSCF expec      <6.1 Singlet|LXLX|6.1 Singlet>     3.995971370931
 !MCSCF expec      <7.1 Singlet|LXLX|7.1 Singlet>     0.999999999983
 !MCSCF expec      <8.1 Singlet|LXLX|8.1 Singlet>     0.999999999978
 !MCSCF expec      <9.1 Singlet|LXLX|9.1 Singlet>     0.000000000039
 !MCSCF expec    <10.1 Singlet|LXLX|10.1 Singlet>    -0.000000000000
 !MCSCF expec      <1.1 Triplet|LXLX|1.1 Triplet>    -0.000000000000
 !MCSCF expec      <2.1 Triplet|LXLX|2.1 Triplet>     0.004058705527
 !MCSCF expec      <3.1 Triplet|LXLX|3.1 Triplet>     1.000000002003
 !MCSCF expec      <4.1 Triplet|LXLX|4.1 Triplet>     1.000000000020
 !MCSCF expec      <5.1 Triplet|LXLX|5.1 Triplet>     3.999999997924
 !MCSCF expec      <6.1 Triplet|LXLX|6.1 Triplet>     3.995941436177
 !MCSCF expec      <7.1 Triplet|LXLX|7.1 Triplet>     0.999999999879
 !MCSCF expec      <8.1 Triplet|LXLX|8.1 Triplet>     0.999999999790
 !MCSCF expec      <9.1 Triplet|LXLX|9.1 Triplet>     0.000000000265
 
 !MCSCF expec      <1.1 Singlet|LYLY|1.1 Singlet>    -0.000000000000
 !MCSCF expec      <2.1 Singlet|LYLY|2.1 Singlet>     3.107866151766
 !MCSCF expec      <3.1 Singlet|LYLY|3.1 Singlet>     3.999999911527
 !MCSCF expec      <4.1 Singlet|LYLY|4.1 Singlet>     1.000000088355
 !MCSCF expec      <5.1 Singlet|LYLY|5.1 Singlet>     0.999999979474
 !MCSCF expec      <6.1 Singlet|LYLY|6.1 Singlet>     0.892133868878
 !MCSCF expec      <7.1 Singlet|LYLY|7.1 Singlet>     0.000000001493
 !MCSCF expec      <8.1 Singlet|LYLY|8.1 Singlet>     0.999999998524
 !MCSCF expec      <9.1 Singlet|LYLY|9.1 Singlet>     0.999999999983
 !MCSCF expec    <10.1 Singlet|LYLY|10.1 Singlet>    -0.000000000000
 !MCSCF expec      <1.1 Triplet|LYLY|1.1 Triplet>    -0.000000000000
 !MCSCF expec      <2.1 Triplet|LYLY|2.1 Triplet>     3.108260092616
 !MCSCF expec      <3.1 Triplet|LYLY|3.1 Triplet>     3.999997850305
 !MCSCF expec      <4.1 Triplet|LYLY|4.1 Triplet>     1.000002142487
 !MCSCF expec      <5.1 Triplet|LYLY|5.1 Triplet>     1.000000000068
 !MCSCF expec      <6.1 Triplet|LYLY|6.1 Triplet>     0.891741759895
 !MCSCF expec      <7.1 Triplet|LYLY|7.1 Triplet>     0.000000020741
 !MCSCF expec      <8.1 Triplet|LYLY|8.1 Triplet>     0.999999980812
 !MCSCF expec      <9.1 Triplet|LYLY|9.1 Triplet>     0.999999999868
 
 !MCSCF expec      <1.1 Singlet|LZLZ|1.1 Singlet>    -0.000000000000
 !MCSCF expec      <2.1 Singlet|LZLZ|2.1 Singlet>     2.888105217916
 !MCSCF expec      <3.1 Singlet|LZLZ|3.1 Singlet>     1.000000088695
 !MCSCF expec      <4.1 Singlet|LZLZ|4.1 Singlet>     3.999999911775
 !MCSCF expec      <5.1 Singlet|LZLZ|5.1 Singlet>     1.000000021422
 !MCSCF expec      <6.1 Singlet|LZLZ|6.1 Singlet>     1.111894760192
 !MCSCF expec      <7.1 Singlet|LZLZ|7.1 Singlet>     0.999999998524
 !MCSCF expec      <8.1 Singlet|LZLZ|8.1 Singlet>     0.000000001498
 !MCSCF expec      <9.1 Singlet|LZLZ|9.1 Singlet>     0.999999999978
 !MCSCF expec    <10.1 Singlet|LZLZ|10.1 Singlet>     0.000000000000
 !MCSCF expec      <1.1 Triplet|LZLZ|1.1 Triplet>    -0.000000000000
 !MCSCF expec      <2.1 Triplet|LZLZ|2.1 Triplet>     2.887681201857
 !MCSCF expec      <3.1 Triplet|LZLZ|3.1 Triplet>     1.000002147692
 !MCSCF expec      <4.1 Triplet|LZLZ|4.1 Triplet>     3.999997857493
 !MCSCF expec      <5.1 Triplet|LZLZ|5.1 Triplet>     1.000000002008
 !MCSCF expec      <6.1 Triplet|LZLZ|6.1 Triplet>     1.112316803927
 !MCSCF expec      <7.1 Triplet|LZLZ|7.1 Triplet>     0.999999979381
 !MCSCF expec      <8.1 Triplet|LZLZ|8.1 Triplet>     0.000000019398
 !MCSCF expec      <9.1 Triplet|LZLZ|9.1 Triplet>     0.999999999866
 
 !MCSCF expec      <1.1 Singlet|L**2|1.1 Singlet>    -0.000000000000
 !MCSCF expec      <2.1 Singlet|L**2|2.1 Singlet>     6.000000000000
 !MCSCF expec      <3.1 Singlet|L**2|3.1 Singlet>     6.000000000000
 !MCSCF expec      <4.1 Singlet|L**2|4.1 Singlet>     6.000000000000
 !MCSCF expec      <5.1 Singlet|L**2|5.1 Singlet>     6.000000000000
 !MCSCF expec      <6.1 Singlet|L**2|6.1 Singlet>     6.000000000000
 !MCSCF expec      <7.1 Singlet|L**2|7.1 Singlet>     2.000000000000
 !MCSCF expec      <8.1 Singlet|L**2|8.1 Singlet>     2.000000000000
 !MCSCF expec      <9.1 Singlet|L**2|9.1 Singlet>     2.000000000000
 !MCSCF expec    <10.1 Singlet|L**2|10.1 Singlet>    -0.000000000000
 !MCSCF expec      <1.1 Triplet|L**2|1.1 Triplet>    -0.000000000000
 !MCSCF expec      <2.1 Triplet|L**2|2.1 Triplet>     6.000000000000
 !MCSCF expec      <3.1 Triplet|L**2|3.1 Triplet>     6.000000000000
 !MCSCF expec      <4.1 Triplet|L**2|4.1 Triplet>     6.000000000000
 !MCSCF expec      <5.1 Triplet|L**2|5.1 Triplet>     6.000000000000
 !MCSCF expec      <6.1 Triplet|L**2|6.1 Triplet>     6.000000000000
 !MCSCF expec      <7.1 Triplet|L**2|7.1 Triplet>     2.000000000000
 !MCSCF expec      <8.1 Triplet|L**2|8.1 Triplet>     2.000000000000
 !MCSCF expec      <9.1 Triplet|L**2|9.1 Triplet>     2.000000000000
 
 EXTRA SYMMETRY OF MOS IN SYMMETRY 1:   1 2 4 6 3 5 1 1 4 2   6 3 5 1 3 5 4 6 2 1   4 2 3 5 6 1 2 4 6 3   5 1 2 4 6 3 5 9 7 8
                                       121114151310 4 2 6 3   5 1 1
 EXTRA SYMMETRY OF MOS IN SYMMETRY 2:   3 1 2 2 1 3 3 1 2 2   3 1 9 7 4 810 5 6 2   3 1 4 6 5 810 9 7 3   2 1 4 6 510 8 9 7 4
                                        6 5 810 9 7 3 1 2 4   6 5 810 7 9 3 1 2
 
  NATURAL ORBITALS (STATE AVERAGED)
  =================================

  Orbital  Occupation    Energy    Cen Mu Typ  Coefficients
    1.1     2.00000   -10.84889     1  1  s    0.99193
    2.1     2.00000    -3.79671     1  1  d0   1.00011
    3.1     2.00000    -3.79671     1  1  d1+  1.00011
    4.1     2.00000    -3.79671     1  1  d1-  1.00011
    5.1     2.00000    -3.79671     1  1  d2-  1.00011
    6.1     2.00000    -3.79671     1  1  d2+  1.00011
    7.1     1.99997    -1.22295     1  2  s    0.95192
    1.2     2.00000    -8.52875     1  1  pz   1.00002
    2.2     2.00000    -8.52875     1  1  px   1.00002
    3.2     2.00000    -8.52875     1  1  py   1.00002
    4.2     1.94709    -0.54622     1  2  py   1.01313
    5.2     1.94709    -0.54622     1  2  px   1.01313
    6.2     1.94709    -0.54622     1  2  pz   1.01313
    7.2     0.05292     0.08517     1  2  pz  -0.44591    1  7  pz   0.59297    1  8  pz   0.54270
    8.2     0.05292     0.08517     1  2  px  -0.44591    1  7  px   0.59297    1  8  px   0.54270
    9.2     0.05292     0.08517     1  2  py  -0.44591    1  7  py   0.59297    1  8  py   0.54270
 
 Natural orbital dump (state averaged) at molpro section 2140.2 (Orbital set 2)
 
 Transform the CI vectors
 
 CI Coefficients of symmetry 1 (Singlet)
 =======================================

 State:              1               2               3               4               5               6               7
 2 222000       0.99911843     -0.00000000      0.00000000      0.00000000      0.00000000     -0.00000000     -0.00000000
 2 2b20a0      -0.00809473     -0.57265873      0.00000931      0.00000918     -0.00000801      0.01818291      0.00000000
 2 2a20b0       0.00809473      0.57265873     -0.00000931     -0.00000918      0.00000801     -0.01818291     -0.00000000
 2 b2200a      -0.00809473      0.27058248     -0.00000647     -0.00000567      0.00021827     -0.50502840     -0.00000000
 2 a2200b       0.00809473     -0.27058248      0.00000647      0.00000567     -0.00021827      0.50502840      0.00000000
 2 2a200b      -0.00000000      0.00000792      0.00008496      0.49618682      0.00000304     -0.00000133     -0.00001907
 2 2b200a       0.00000000     -0.00000792     -0.00008496     -0.49618682     -0.00000304      0.00000133      0.00001907
 2 2a2b00      -0.00000000      0.00000800      0.49618682     -0.00008496     -0.00000026     -0.00000207     -0.49647152
 2 2b2a00       0.00000000     -0.00000800     -0.49618682      0.00008496      0.00000026      0.00000207      0.49647152
 2 22b00a      -0.00000000      0.00000014     -0.00000026      0.00000304     -0.49618687     -0.00021438      0.00000207
 2 22a00b       0.00000000     -0.00000014      0.00000026     -0.00000304      0.49618687      0.00021438     -0.00000207
 2 b22a00      -0.00000000      0.00000014     -0.00000026      0.00000304     -0.49618689     -0.00021438     -0.00000207
 2 a22b00       0.00000000     -0.00000014      0.00000026     -0.00000304      0.49618689      0.00021438      0.00000207
 2 22a0b0      -0.00000000      0.00000800      0.49618702     -0.00008496     -0.00000026     -0.00000207      0.49647133
 2 22b0a0       0.00000000     -0.00000800     -0.49618702      0.00008496      0.00000026      0.00000207     -0.49647133
 2 a220b0       0.00000000      0.00000792      0.00008496      0.49618703      0.00000304     -0.00000133      0.00001907
 2 b220a0      -0.00000000     -0.00000792     -0.00008496     -0.49618703     -0.00000304      0.00000133     -0.00001907
 2 22ab00       0.00809473     -0.30207620      0.00000284      0.00000351      0.00021026     -0.48684550      0.00000000
 2 22ba00      -0.00809473      0.30207620     -0.00000284     -0.00000351     -0.00021026      0.48684550     -0.00000000
 2 202020      -0.01170550     -0.07781942      0.00000126      0.00000125     -0.00000109      0.00247090      0.00000000
 2 022002      -0.01170550      0.03676984     -0.00000088     -0.00000077      0.00002966     -0.06862904     -0.00000000
 2 220200      -0.01170550      0.04104957     -0.00000039     -0.00000048     -0.00002857      0.06615814     -0.00000000
 
 Energy:     -462.19904902   -461.77606747   -461.77606747   -461.77606747   -461.77606747   -461.77606747   -461.77180047

 State:              8               9              10
 2 222000       0.00000000      0.00000000     -0.02594843
 2 2b20a0       0.00000000      0.00000000     -0.40178080
 2 2a20b0      -0.00000000     -0.00000000      0.40178080
 2 b2200a      -0.00000000     -0.00000000     -0.40178084
 2 a2200b       0.00000000      0.00000000      0.40178084
 2 2a200b       0.49647153      0.00000232     -0.00000000
 2 2b200a      -0.49647153     -0.00000232      0.00000000
 2 2a2b00      -0.00001907     -0.00000207     -0.00000000
 2 2b2a00       0.00001907      0.00000207      0.00000000
 2 22b00a       0.00000232     -0.49647143     -0.00000000
 2 22a00b      -0.00000232      0.49647143      0.00000000
 2 b22a00      -0.00000232      0.49647142     -0.00000000
 2 a22b00       0.00000232     -0.49647142      0.00000000
 2 22a0b0       0.00001907      0.00000207     -0.00000000
 2 22b0a0      -0.00001907     -0.00000207      0.00000000
 2 a220b0      -0.49647132     -0.00000232     -0.00000000
 2 b220a0       0.49647132      0.00000232      0.00000000
 2 22ab00      -0.00000000     -0.00000000      0.40178083
 2 22ba00       0.00000000      0.00000000     -0.40178083
 2 202020       0.00000000      0.00000000     -0.05337199
 2 022002      -0.00000000     -0.00000000     -0.05337199
 2 220200       0.00000000      0.00000000     -0.05337199
 
 Energy:     -461.77180047   -461.77180047   -461.74239312
 
 
 CI Coefficients of symmetry 1 (Triplet)
 =======================================

 State:              1               2               3               4               5               6               7
 2 2a20a0       0.57424061      0.81087883     -0.00000001     -0.00000000      0.00000351     -0.02584283     -0.00000000
 2 a2200a       0.57424056     -0.38305890      0.00000026      0.00000017     -0.00009642      0.71516310      0.00000000
 2 a22a00       0.00000000     -0.00000002     -0.00001815      0.00000181      0.70259823      0.00009471     -0.00000774
 2 22a00a       0.00000000     -0.00000002     -0.00001815      0.00000181      0.70259822      0.00009471      0.00000774
 2 a220a0       0.00000000     -0.00000001     -0.00059447      0.70259805     -0.00000183     -0.00000017     -0.00010083
 2 22a0a0      -0.00000000      0.00000000      0.70259805      0.00059447      0.00001815     -0.00000025     -0.70220024
 2 2a2a00       0.00000000      0.00000000      0.70259791      0.00059447      0.00001815     -0.00000025      0.70220038
 2 2a200a      -0.00000000     -0.00000001     -0.00059447      0.70259791     -0.00000183     -0.00000017      0.00010083
 2 22aa00       0.57424056     -0.42782001     -0.00000025     -0.00000017      0.00009291     -0.68932026      0.00000000
 
 Energy:     -461.79220276   -461.77990762   -461.77990762   -461.77990762   -461.77990762   -461.77990762   -461.77208885

 State:              8               9
 2 2a20a0       0.00000000      0.00000000
 2 a2200a       0.00000000     -0.00000000
 2 a22a00       0.00001017      0.70220031
 2 22a00a      -0.00001017     -0.70220032
 2 a220a0       0.70220024     -0.00001017
 2 22a0a0      -0.00010083     -0.00000774
 2 2a2a00       0.00010083      0.00000774
 2 2a200a      -0.70220038      0.00001017
 2 22aa00      -0.00000000      0.00000000
 
 Energy:     -461.77208885   -461.77208885
 


 **********************************************************************************************************************************
 DATASETS  * FILE   NREC   LENGTH (MB)   RECORD NAMES
              1      21       39.05       500      610      700      900      950      970     1000      129      960     1100   
                                          VAR    BASINP    GEOM    SYMINP    ZMAT    AOBASIS   BASIS     P2S    ABASIS      S 
                                         1400     1410     1420     1200     1210     1080     1700     1600     1650     1380   
                                           T        V       ECP      H0       H01     AOSYM    OPER      SMH    MOLCAS    JKOP   
                                         1700(1)
                                         OPER   

              2       5        0.83       700     1000      520     2100     2140   
                                         GEOM     BASIS   MCVARS     RHF     MCSCF   

 PROGRAMS   *        TOTAL     MULTI   RHF-SCF       INT
 CPU TIMES  *         6.54      5.21      0.05      1.03
 REAL TIME  *        14.84 SEC
 DISK USED  *        39.97 MB (local),      629.81 MB (total)
 SF USED    *        26.54 MB
 GA USED    *         0.00 MB       (max)       0.00 MB       (current)
 **********************************************************************************************************************************

 Energies and &lt;L**2&gt; values

         ENERGY     LL
    -462.1990490  -0.0
    -461.7760675   6.0
    -461.7760675   6.0
    -461.7760675   6.0
    -461.7760675   6.0
    -461.7760675   6.0
    -461.7718005   2.0
    -461.7718005   2.0
    -461.7718005   2.0
    -461.7423931  -0.0
    -461.7922028  -0.0
    -461.7799076   6.0
    -461.7799076   6.0
    -461.7799076   6.0
    -461.7799076   6.0
    -461.7799076   6.0
    -461.7720888   2.0
    -461.7720888   2.0
    -461.7720888   2.0
                                                  


 PROGRAM * CI (Multireference internally contracted CI)     Authors: H.-J. Werner, P.J. Knowles, 1987


 Convergence thresholds:  THRVAR = 1.00D-08  THRDEN = 1.00D-06

 Number of optimized states: 10  Roots:   1   2   3   4   5   6   7   8   9  10
 Number of reference states: 10  Roots:   1   2   3   4   5   6   7   8   9  10

 Reference symmetry:                   1   Singlet 
 Number of electrons:                 26
 Maximum number of shells:             6
 Maximum number of spin couplings:    42

 Reference space:      231 conf      280 CSFs
 N elec internal:     9996 conf    21280 CSFs
 N-1 el internal:    15576 conf    58240 CSFs
 N-2 el internal:    14289 conf    77596 CSFs

 Number of electrons in valence space:                     26
 Maximum number of open shell orbitals in reference space:  6
 Maximum number of open shell orbitals in internal spaces: 10


 Number of closed-shell orbitals:   9 (   6   3 )
 Number of active  orbitals:        7 (   1   6 )
 Number of external orbitals:      96 (  46  50 )

 Molecular orbitals read from record     2140.2  Type=MCSCF/NATURAL (state averaged)

 Valence orbitals related to previous ones by unitary transformation. Operators transformed.


 Number of p-space configurations:  10

 Reference wavefunction optimized for reference space (refopt=1)

 State     Reference Energy 
     1      -462.19904902
     2      -461.77606747
     3      -461.77606747
     4      -461.77606747
     5      -461.77606747
     6      -461.77606747
     7      -461.77180047
     8      -461.77180047
     9      -461.77180047
    10      -461.74239312

 ?WARNING: SMALL EIGENVALUE OF PAIR OVERLAP MATRIX:  0.5986D-07

 ?WARNING: SMALL EIGENVALUE OF PAIR OVERLAP MATRIX:  0.1252D-06

 Number of blocks in overlap matrix:   994   Smallest eigenvalue:  0.60D-07
 Number of N-2 electron functions:    2444
 Number of N-1 electron functions:   58240

 Number of internal configurations:                10822
 Number of singly external configurations:       2796472
 Number of doubly external configurations:       5636048
 Total number of contracted configurations:      8443342
 Total number of uncontracted configurations:  181216110

 Diagonal Coupling coefficients finished.               Storage:  15183431 words, CPU-Time:     30.06 seconds.
 Energy denominators for pairs finished in 1 passes.    Storage:   1314325 words, CPU-time:      0.38 seconds.

  ITER. STATE  ROOT     SQ.NORM     CORR.ENERGY   TOTAL ENERGY   ENERGY CHANGE       DEN1      VAR(S)    VAR(P)      TIME
    1     1     1     1.00000000     0.00000000  -462.19904902    -0.00000000    -0.96823702  0.72D-02  0.61D-01    35.19
    1     2     2     1.00000000     0.00000000  -461.77606747     0.00000000    -0.99446773  0.35D-01  0.66D-01    35.19
    1     3     3     1.00000000     0.00000000  -461.77606747    -0.00000000    -0.98594810  0.35D-01  0.61D-01    35.19
    1     4     4     1.00000000     0.00000000  -461.77606747     0.00000000    -0.98609257  0.35D-01  0.61D-01    35.19
    1     5     5     1.00000000     0.00000000  -461.77606747     0.00000000    -0.98602785  0.35D-01  0.61D-01    35.19
    1     6     6     1.00000000     0.00000000  -461.77606747    -0.00000000    -0.98976037  0.35D-01  0.63D-01    35.19
    1     7     7     1.00000000     0.00000000  -461.77180047    -0.00000000    -0.98841105  0.37D-01  0.61D-01    35.19
    1     8     8     1.00000000     0.00000000  -461.77180047    -0.00000000    -0.98843327  0.37D-01  0.61D-01    35.19
    1     9     9     1.00000000     0.00000000  -461.77180047     0.00000000    -0.98894720  0.37D-01  0.62D-01    35.19
    1    10    10     1.00000000     0.00000000  -461.74239312    -0.00000000    -1.01235258  0.84D-01  0.62D-01    35.19
    2     1     1     1.05451888    -0.86388784  -463.06293686    -0.86388784    -0.01604750  0.10D-02  0.13D-02   298.87
    2     2     2     1.07363636    -0.85768159  -462.63374906    -0.85768159    -0.01685118  0.28D-02  0.93D-03   298.87
    2     3     3     1.07276272    -0.85734425  -462.63341172    -0.85734425    -0.01719401  0.30D-02  0.94D-03   298.87
    2     4     4     1.07272683    -0.85733390  -462.63340137    -0.85733390    -0.01720940  0.30D-02  0.95D-03   298.87
    2     5     5     1.07274362    -0.85731115  -462.63337862    -0.85731115    -0.01721994  0.30D-02  0.95D-03   298.87
    2     6     6     1.07502566    -0.85684177  -462.63290924    -0.85684177    -0.01753068  0.28D-02  0.11D-02   298.87
    2     7     7     1.07410632    -0.85843384  -462.63023431    -0.85843384    -0.01698449  0.30D-02  0.92D-03   298.87
    2     8     8     1.07398569    -0.85841033  -462.63021080    -0.85841033    -0.01700980  0.31D-02  0.92D-03   298.87
    2     9     9     1.07398680    -0.85839671  -462.63019718    -0.85839671    -0.01702163  0.31D-02  0.92D-03   298.87
    2    10    10     1.10239360    -0.85025077  -462.59264390    -0.85025077    -0.03439965  0.14D-01  0.13D-02   298.87
    3     1     1     1.06064874    -0.88066513  -463.07971415    -0.01677729    -0.00081962  0.14D-04  0.98D-04   561.42
    3     2     2     1.06696958    -0.87439662  -462.65046410    -0.01671503    -0.00073894  0.56D-04  0.86D-04   561.42
    3     3     3     1.06697583    -0.87439248  -462.65045995    -0.01704823    -0.00073996  0.56D-04  0.86D-04   561.42
    3     4     4     1.06696178    -0.87438889  -462.65045636    -0.01705499    -0.00074275  0.56D-04  0.87D-04   561.42
    3     5     5     1.06718552    -0.87438714  -462.65045461    -0.01707599    -0.00073313  0.54D-04  0.88D-04   561.42
    3     6     6     1.06707367    -0.87431257  -462.65038004    -0.01747080    -0.00078317  0.53D-04  0.99D-04   561.42
    3     7     7     1.06769834    -0.87531400  -462.64711447    -0.01688015    -0.00073417  0.63D-04  0.84D-04   561.42
    3     8     8     1.06767890    -0.87531221  -462.64711269    -0.01690189    -0.00073555  0.63D-04  0.84D-04   561.42
    3     9     9     1.06767501    -0.87531198  -462.64711245    -0.01691527    -0.00073625  0.63D-04  0.84D-04   561.42
    3    10    10     1.07218919    -0.88430703  -462.62670016    -0.03405626    -0.00126088  0.14D-03  0.13D-03   561.42
    4     1     1     1.06432193    -0.88170250  -463.08075152    -0.00103737    -0.00006530  0.20D-05  0.64D-05   824.98
    4     2     2     1.06831865    -0.87530378  -462.65137125    -0.00090716    -0.00008170  0.32D-05  0.99D-05   824.98
    4     3     3     1.06831514    -0.87530244  -462.65136991    -0.00090996    -0.00008248  0.32D-05  0.10D-04   824.98
    4     4     4     1.06831356    -0.87530222  -462.65136970    -0.00091334    -0.00008268  0.32D-05  0.10D-04   824.98
    4     5     5     1.06826066    -0.87529944  -462.65136691    -0.00091230    -0.00008598  0.35D-05  0.10D-04   824.98
    4     6     6     1.06814993    -0.87529271  -462.65136018    -0.00098014    -0.00009223  0.37D-05  0.11D-04   824.98
    4     7     7     1.06877819    -0.87621388  -462.64801435    -0.00089988    -0.00008266  0.32D-05  0.10D-04   824.98
    4     8     8     1.06877830    -0.87621359  -462.64801406    -0.00090137    -0.00008275  0.32D-05  0.10D-04   824.98
    4     9     9     1.06877254    -0.87621351  -462.64801398    -0.00090153    -0.00008277  0.32D-05  0.10D-04   824.98
    4    10    10     1.07295843    -0.88576878  -462.62816191    -0.00146175    -0.00011068  0.45D-05  0.15D-04   824.98
    5     1     1     1.06476886    -0.88178226  -463.08083128    -0.00007976    -0.00000482  0.20D-06  0.49D-06  1088.47
    5     2     2     1.06890079    -0.87541198  -462.65147945    -0.00010820    -0.00000915  0.38D-06  0.10D-05  1088.47
    5     3     3     1.06890396    -0.87541173  -462.65147920    -0.00010929    -0.00000934  0.41D-06  0.11D-05  1088.47
    5     4     4     1.06891950    -0.87541117  -462.65147864    -0.00010895    -0.00000944  0.38D-06  0.11D-05  1088.47
    5     5     5     1.06891874    -0.87541100  -462.65147847    -0.00011156    -0.00000956  0.38D-06  0.11D-05  1088.47
    5     6     6     1.06891909    -0.87541099  -462.65147847    -0.00011828    -0.00000956  0.38D-06  0.11D-05  1088.47
    5     7     7     1.06937177    -0.87632256  -462.64812304    -0.00010869    -0.00000937  0.36D-06  0.11D-05  1088.47
    5     8     8     1.06937170    -0.87632249  -462.64812296    -0.00010890    -0.00000943  0.36D-06  0.11D-05  1088.47
    5     9     9     1.06937145    -0.87632245  -462.64812292    -0.00010894    -0.00000940  0.36D-06  0.11D-05  1088.47
    5    10    10     1.07366200    -0.88591888  -462.62831201    -0.00015010    -0.00001409  0.78D-06  0.17D-05  1088.47
    6     1     1     1.06474679    -0.88178820  -463.08083722    -0.00000594    -0.00000048  0.15D-07  0.52D-07  1351.74
    6     2     2     1.06889018    -0.87542373  -462.65149120    -0.00001175    -0.00000124  0.41D-07  0.16D-06  1351.74
    6     3     3     1.06889038    -0.87542360  -462.65149107    -0.00001187    -0.00000135  0.47D-07  0.17D-06  1351.74
    6     4     4     1.06888988    -0.87542359  -462.65149106    -0.00001242    -0.00000138  0.47D-07  0.17D-06  1351.74
    6     5     5     1.06888977    -0.87542358  -462.65149105    -0.00001258    -0.00000137  0.47D-07  0.17D-06  1351.74
    6     6     6     1.06889067    -0.87542356  -462.65149103    -0.00001256    -0.00000121  0.41D-07  0.16D-06  1351.74
    6     7     7     1.06935355    -0.87633475  -462.64813522    -0.00001219    -0.00000128  0.41D-07  0.16D-06  1351.74
    6     8     8     1.06935308    -0.87633474  -462.64813521    -0.00001224    -0.00000127  0.41D-07  0.16D-06  1351.74
    6     9     9     1.06935290    -0.87633467  -462.64813514    -0.00001222    -0.00000128  0.41D-07  0.16D-06  1351.74
    6    10    10     1.07360490    -0.88593777  -462.62833089    -0.00001888    -0.00000215  0.11D-06  0.27D-06  1351.74
    7     1     1     1.06476273    -0.88178879  -463.08083781    -0.00000059    -0.00000006  0.24D-08  0.55D-08  1615.32
    7     2     2     1.06890685    -0.87542542  -462.65149289    -0.00000169    -0.00000026  0.13D-07  0.27D-07  1615.32
    7     3     3     1.06890805    -0.87542540  -462.65149288    -0.00000181    -0.00000024  0.12D-07  0.25D-07  1615.32
    7     4     4     1.06890677    -0.87542539  -462.65149287    -0.00000180    -0.00000026  0.13D-07  0.27D-07  1615.32
    7     5     5     1.06890697    -0.87542539  -462.65149286    -0.00000181    -0.00000026  0.13D-07  0.27D-07  1615.32
    7     6     6     1.06890789    -0.87542519  -462.65149266    -0.00000163    -0.00000023  0.12D-07  0.24D-07  1615.32
    7     7     7     1.06936608    -0.87633644  -462.64813691    -0.00000169    -0.00000024  0.12D-07  0.25D-07  1615.32
    7     8     8     1.06936625    -0.87633641  -462.64813688    -0.00000167    -0.00000024  0.11D-07  0.25D-07  1615.32
    7     9     9     1.06936615    -0.87633635  -462.64813682    -0.00000169    -0.00000024  0.12D-07  0.25D-07  1615.32
    7    10    10     1.07365732    -0.88594056  -462.62833369    -0.00000280    -0.00000046  0.32D-07  0.45D-07  1615.32
    8     1     1     1.06476393    -0.88178881  -463.08083783    -0.00000003    -0.00000004  0.63D-09  0.37D-08  1861.21
    8     2     2     1.06891369    -0.87542574  -462.65149321    -0.00000032    -0.00000005  0.30D-08  0.46D-08  1861.21
    8     3     3     1.06891367    -0.87542571  -462.65149318    -0.00000031    -0.00000005  0.29D-08  0.46D-08  1861.21
    8     4     4     1.06891374    -0.87542570  -462.65149317    -0.00000031    -0.00000005  0.29D-08  0.45D-08  1861.21
    8     5     5     1.06891449    -0.87542569  -462.65149317    -0.00000031    -0.00000004  0.25D-08  0.39D-08  1861.21
    8     6     6     1.06891448    -0.87542546  -462.65149294    -0.00000028    -0.00000004  0.24D-08  0.37D-08  1861.21
    8     7     7     1.06937245    -0.87633673  -462.64813720    -0.00000029    -0.00000004  0.25D-08  0.40D-08  1861.21
    8     8     8     1.06937256    -0.87633670  -462.64813717    -0.00000029    -0.00000004  0.25D-08  0.40D-08  1861.21
    8     9     9     1.06937246    -0.87633664  -462.64813711    -0.00000029    -0.00000004  0.25D-08  0.40D-08  1861.21
    8    10    10     1.07365231    -0.88594119  -462.62833431    -0.00000062    -0.00000004  0.23D-08  0.48D-08  1861.21


 =====================================
 Analysis of CPU times by interactions
 =====================================

       I      S      P

 I   0.5%
 S   0.4%   6.0%
 P   0.3%  47.3%  36.0%

 Initialization:   1.7%
 Other:            7.8%

 Total CPU:     1861.2 seconds
 =====================================



 Wavefunction saved on  5201.2

 Reference coefficients greater than 0.0500000
 =============================================
 2222222222222000           0.9686294   0.0000000  -0.0000000   0.0000000   0.0000001  -0.0000001  -0.0000000  -0.0000000
                           -0.0000000  -0.0066859
 2222222222/2200\           0.0005558   0.0032572  -0.0110248   0.0281923   0.7797221  -0.0737101  -0.0000001  -0.0000001
                           -0.0000000   0.5484531
 222222222222/\00           0.0005557  -0.0014415   0.0038738  -0.0116348  -0.3260912   0.7126273   0.0000001   0.0000000
                            0.0000000   0.5484537
 222222222222/00\          -0.0000000  -0.0068943   0.6784747  -0.0159225   0.0102673   0.0007363  -0.6790810  -0.0014496
                           -0.0011590  -0.0000000
 2222222222/220\0          -0.0000000   0.6787176   0.0070499   0.0046654  -0.0028962   0.0000855  -0.0011582  -0.0003935
                            0.6790807  -0.0000000
 222222222222/0\0          -0.0000000  -0.0049336   0.0162319   0.6781318  -0.0242820  -0.0001378  -0.0014503   0.6790780
                            0.0003911  -0.0000000
 22222222222/2\00          -0.0000000  -0.0049336   0.0162321   0.6781392  -0.0242823  -0.0001378   0.0014502  -0.6790706
                           -0.0003910  -0.0000000
 22222222222/200\          -0.0000000   0.6787292   0.0070500   0.0046655  -0.0028963   0.0000855   0.0011581   0.0003935
                           -0.6790691  -0.0000000
 2222222222/22\00          -0.0000000  -0.0068943   0.6784899  -0.0159228   0.0102676   0.0007361   0.6790660   0.0014496
                            0.0011589  -0.0000000
 22222222222/20\0           0.0005558  -0.0018156   0.0071511  -0.0165574  -0.4536310  -0.6389193  -0.0000001   0.0000000
                            0.0000000   0.5484522
 2222222222022002          -0.0098612  -0.0003121   0.0010565  -0.0027017  -0.0747218   0.0070641   0.0000000   0.0000000
                            0.0000000  -0.0521058
 2222222222220200          -0.0098611   0.0001381  -0.0003712   0.0011150   0.0312493  -0.0682912  -0.0000000  -0.0000000
                           -0.0000000  -0.0521049
 2222222222/2/\0\          -0.0111078  -0.0001129   0.0004448  -0.0010298  -0.0282136  -0.0397395  -0.0000000   0.0000000
                            0.0000000  -0.0669319
 22222222222//\\0          -0.0111079   0.0002026  -0.0006857   0.0017534   0.0484951  -0.0045858  -0.0000000  -0.0000000
                           -0.0000000  -0.0669312
 2222222222//20\\          -0.0111079  -0.0000897   0.0002409  -0.0007236  -0.0202813   0.0443231   0.0000000   0.0000000
                            0.0000000  -0.0669307
 2222222222202020          -0.0098611   0.0001740  -0.0006853   0.0015867   0.0434719   0.0612285   0.0000000  -0.0000000
                           -0.0000000  -0.0521053

 Coefficients of fixed reference functions:
 ==========================================

 State      Coefficients
 1           0.968922    0.000000   -0.000000    0.000000   -0.000000    0.000000   -0.000000    0.000000    0.000000   -0.018912
 2           0.000000   -0.002133   -0.007030    0.967138   -0.009824    0.003417    0.000000   -0.000008   -0.000000    0.000000
 3          -0.000000    0.008484    0.023130    0.010046    0.966795   -0.010889   -0.000000   -0.000000    0.000011    0.000000
 4           0.000000   -0.019524    0.966301    0.006648   -0.022689    0.029008   -0.000005   -0.000000   -0.000000    0.000000
 5           0.000000   -0.534570   -0.034601   -0.004127    0.014630    0.805186    0.000000    0.000000    0.000000   -0.000000
 6          -0.000000   -0.805788   -0.000196    0.000122    0.001049   -0.534997   -0.000000    0.000000   -0.000000   -0.000001
 7          -0.000000   -0.000000   -0.000000   -0.000000   -0.000011   -0.000000   -0.002065   -0.001649    0.967011    0.000000
 8          -0.000000    0.000000    0.000005   -0.000000   -0.000000   -0.000000    0.967013   -0.000560    0.002064   -0.000000
 9           0.000000    0.000000    0.000000    0.000008   -0.000000   -0.000000    0.000557    0.967013    0.001650    0.000000
 10          0.018376   -0.000001   -0.000000   -0.000000   -0.000000   -0.000000    0.000000   -0.000000   -0.000000    0.964911

 Coefficients of rotated reference functions:
 ============================================

 State      Coefficients
 1           0.969106    0.000000   -0.000000    0.000000    0.000000   -0.000000   -0.000000   -0.000000    0.000000   -0.000229
 2           0.000000    0.967222    0.000000    0.000000   -0.000000   -0.000000   -0.000000    0.000000    0.000000    0.000000
 3          -0.000000    0.000000    0.967222   -0.000000    0.000000    0.000000    0.000000   -0.000000    0.000000   -0.000000
 4           0.000000    0.000000   -0.000000    0.967222   -0.000000   -0.000000   -0.000000   -0.000000    0.000000    0.000000
 5           0.000000   -0.000000    0.000000   -0.000000    0.967222   -0.000000    0.000000    0.000000   -0.000000    0.000000
 6          -0.000000   -0.000000    0.000000   -0.000000   -0.000000    0.967222    0.000000    0.000000   -0.000000   -0.000000
 7          -0.000000   -0.000000    0.000000   -0.000000    0.000000    0.000000    0.967015    0.000000    0.000000    0.000000
 8          -0.000000    0.000000   -0.000000   -0.000000    0.000000    0.000000    0.000000    0.967015   -0.000000    0.000000
 9           0.000000    0.000000    0.000000    0.000000   -0.000000   -0.000000    0.000000   -0.000000    0.967015   -0.000000
 10         -0.000229    0.000000   -0.000000    0.000000    0.000000   -0.000000    0.000000    0.000000   -0.000000    0.965086


 RESULTS FOR STATE 1.1
 =====================

 Coefficient of reference function:   C(0) = 0.96892169 (fixed)   0.96910902 (relaxed)   0.96910622 (rotated)

 Energy contributions of configuration classes

 CLASS          SQ.NORM        ECORR1        ECORR2
 +++++++++++++++++++++++++++++++++++++++++++++++++++
 Internals    0.00000900   -0.00001147   -0.85479670
 Singles      0.00332195   -0.01438762   -0.01626492
 Pairs        0.06144256    0.04275576   -0.01072719
 Total        1.06477351    0.02835667   -0.88178881
 +++++++++++++++++++++++++++++++++++++++++++++++++++


 Reference energy                    -462.19887930
 Nuclear energy                         0.00000000
 Kinetic energy                       329.41924978
 One electron energy                 -808.16075768
 Two electron energy                  345.07991984
 Virial quotient                       -1.40574917
 Correlation energy                    -0.88195854
 !MRCI STATE 1.1 Energy              -463.080837833800

 Properties without orbital relaxation:

 !MRCI STATE 1.1 Dipole moment          0.00000000     0.00000000     0.00000000
 Dipole moment /Debye                   0.00000000     0.00000000     0.00000000

 Cluster corrected energies          -463.13796538 (Davidson, fixed reference)
 Cluster corrected energies          -463.13795997 (Davidson, relaxed reference)
 Cluster corrected energies          -463.13796538 (Davidson, rotated reference)

 Cluster corrected energies          -463.13661017 (Pople, fixed reference)
 Cluster corrected energies          -463.13660458 (Pople, relaxed reference)
 Cluster corrected energies          -463.13661017 (Pople, rotated reference)



 RESULTS FOR STATE 2.1
 =====================

 Maximum overlap with reference state  4

 Coefficient of reference function:   C(0) = 0.96713844 (fixed)   0.96722365 (relaxed)   0.96722227 (rotated)

 Energy contributions of configuration classes

 CLASS          SQ.NORM        ECORR1        ECORR2
 +++++++++++++++++++++++++++++++++++++++++++++++++++
 Internals    0.00001102   -0.00003705   -0.77548789
 Singles      0.01527269   -0.04649661   -0.05600317
 Pairs        0.05364176   -0.00000002   -0.04393467
 Total        1.06892547   -0.04653368   -0.87542574
 +++++++++++++++++++++++++++++++++++++++++++++++++++


 Reference energy                    -461.77606747
 Nuclear energy                         0.00000000
 Kinetic energy                       328.93435551
 One electron energy                 -800.67220665
 Two electron energy                  338.02071344
 Virial quotient                       -1.40651618
 Correlation energy                    -0.87542574
 !MRCI STATE 2.1 Energy              -462.651493210515

 Properties without orbital relaxation:

 !MRCI STATE 2.1 Dipole moment          0.00000000     0.00000000     0.00000000
 Dipole moment /Debye                   0.00000000     0.00000000     0.00000000

 Cluster corrected energies          -462.71183234 (Davidson, fixed reference)
 Cluster corrected energies          -462.71182967 (Davidson, relaxed reference)
 Cluster corrected energies          -462.71183234 (Davidson, rotated reference)

 Cluster corrected energies          -462.71061794 (Pople, fixed reference)
 Cluster corrected energies          -462.71061517 (Pople, relaxed reference)
 Cluster corrected energies          -462.71061794 (Pople, rotated reference)



 RESULTS FOR STATE 3.1
 =====================

 Maximum overlap with reference state  5

 Coefficient of reference function:   C(0) = 0.96679496 (fixed)   0.96722366 (relaxed)   0.96722228 (rotated)

 Energy contributions of configuration classes

 CLASS          SQ.NORM        ECORR1        ECORR2
 +++++++++++++++++++++++++++++++++++++++++++++++++++
 Internals    0.00001102   -0.00003705   -0.77548793
 Singles      0.01527266   -0.04649656   -0.05600313
 Pairs        0.05364177   -0.00000001   -0.04393465
 Total        1.06892545   -0.04653362   -0.87542571
 +++++++++++++++++++++++++++++++++++++++++++++++++++


 Reference energy                    -461.77606747
 Nuclear energy                         0.00000000
 Kinetic energy                       328.93436764
 One electron energy                 -800.67221334
 Two electron energy                  338.02072016
 Virial quotient                       -1.40651613
 Correlation energy                    -0.87542571
 !MRCI STATE 3.1 Energy              -462.651493181233

 Properties without orbital relaxation:

 !MRCI STATE 3.1 Dipole moment          0.00000000     0.00000000     0.00000000
 Dipole moment /Debye                   0.00000000     0.00000000     0.00000000

 Cluster corrected energies          -462.71183230 (Davidson, fixed reference)
 Cluster corrected energies          -462.71182963 (Davidson, relaxed reference)
 Cluster corrected energies          -462.71183230 (Davidson, rotated reference)

 Cluster corrected energies          -462.71061790 (Pople, fixed reference)
 Cluster corrected energies          -462.71061512 (Pople, relaxed reference)
 Cluster corrected energies          -462.71061790 (Pople, rotated reference)



 RESULTS FOR STATE 4.1
 =====================

 Maximum overlap with reference state  3

[...]
  8  1     8    1  |0 0>          0.00%    0.00%    2.89%    0.00%    0.00%    0.00%    0.00%    0.00%
  9  1     9    1  |0 0>          0.00%    0.00%    0.00%    2.89%    0.00%    0.00%    0.00%    0.00%
 10  1    10    1  |0 0>          0.00%    0.00%    0.00%    0.00%    0.00%    0.00%    0.00%    0.00%
 11  1     1    1  |1 1>+         0.00%    0.04%   85.40%    0.00%    0.00%    0.00%    0.00%    0.00%
 12  1     2    1  |1 1>+         0.00%    0.00%    0.02%    0.00%    0.15%    0.00%    0.00%   17.48%
 13  1     3    1  |1 1>+         0.00%    0.00%    0.02%    0.00%    0.16%    0.00%    0.00%   18.48%
 14  1     4    1  |1 1>+         0.00%    0.00%    0.00%    0.00%    0.48%    0.00%   35.62%    0.00%
 15  1     5    1  |1 1>+         0.00%    0.02%    0.00%    0.00%    0.01%    0.00%    0.00%    0.00%
 16  1     6    1  |1 1>+         0.00%    0.00%    0.00%    0.02%    0.00%    8.88%    0.00%    0.00%
 17  1     7    1  |1 1>+         0.00%    5.79%    0.00%    0.00%    0.00%    0.00%    0.00%    0.00%
 18  1     8    1  |1 1>+         0.00%    0.00%    0.00%    5.80%    0.00%    2.11%    0.00%    0.00%
 19  1     9    1  |1 1>+         0.01%    0.00%    0.00%    0.00%    2.75%    0.00%    0.04%    0.03%
 20  1     1    1  |1 0>          0.00%    0.02%    0.00%   85.42%    0.00%    0.00%    0.00%    0.00%
 21  1     2    1  |1 0>          0.00%    0.00%    0.00%    0.00%    0.01%   34.19%    0.00%    0.00%
 22  1     3    1  |1 0>          0.00%    0.00%    0.00%    0.03%    0.00%    2.15%    0.00%    0.00%
 23  1     4    1  |1 0>          0.00%    0.02%    0.00%    0.00%    0.01%    0.00%    0.00%    0.00%
 24  1     5    1  |1 0>          0.00%    0.00%    0.00%    0.00%   30.13%    0.01%    5.66%    0.24%
 25  1     6    1  |1 0>          0.00%    0.00%    0.02%    0.00%    0.08%    0.00%    0.00%    8.87%
 26  1     7    1  |1 0>          0.01%    0.00%    0.00%    0.00%    0.44%    0.00%    2.37%    0.00%
 27  1     8    1  |1 0>          0.00%    0.00%    5.79%    0.00%    0.01%    0.00%    0.00%    2.10%
 28  1     9    1  |1 0>          0.00%    5.79%    0.00%    0.00%    0.00%    0.00%    0.00%    0.00%
 29  1     1    1  |1 1>-         0.00%   85.38%    0.04%    0.02%    0.00%    0.00%    0.00%    0.00%
 30  1     2    1  |1 1>-         0.00%    0.03%    0.00%    0.00%    0.00%    0.00%    0.00%    0.00%
 31  1     3    1  |1 1>-         0.00%    0.00%    0.00%    0.00%    0.02%    0.00%    0.00%    0.00%
 32  1     4    1  |1 1>-         0.00%    0.00%    0.00%    0.02%    0.00%    8.86%    0.00%    0.00%
 33  1     5    1  |1 1>-         0.00%    0.00%    0.02%    0.00%    0.08%    0.00%    0.00%    8.78%
 34  1     6    1  |1 1>-         0.00%    0.00%    0.00%    0.00%   22.94%    0.01%   12.80%    0.24%
 35  1     7    1  |1 1>-         0.00%    0.00%    5.79%    0.00%    0.03%    0.00%    0.00%    2.09%
 36  1     8    1  |1 1>-         0.01%    0.00%    0.00%    0.00%    0.99%    0.00%    1.81%    0.01%
 37  1     9    1  |1 1>-         0.00%    0.00%    0.00%    5.80%    0.00%    2.11%    0.00%    0.00%

   Total
 Nr Sym  State Sym Spin / Nr.      9       10       11       12       13       14       15       16

  1  1     1    1  |0 0>          0.00%    0.00%    0.00%    0.00%    0.00%    0.00%    0.00%    0.00%
  2  1     2    1  |0 0>          0.00%    0.00%    0.00%    0.00%    0.00%    0.00%    0.00%    0.00%
  3  1     3    1  |0 0>         41.66%    0.00%    0.00%    0.00%    0.00%    0.00%    0.00%    0.00%
  4  1     4    1  |0 0>          0.01%    0.00%    0.00%    0.00%    0.00%    0.00%    0.00%    0.00%
  5  1     5    1  |0 0>          0.00%    0.00%    0.00%    0.00%    0.00%    0.00%    0.00%    0.00%
  6  1     6    1  |0 0>          0.00%    0.00%    0.00%    0.00%    0.00%    0.00%    0.00%    0.00%
  7  1     7    1  |0 0>          0.00%    0.00%    0.00%    0.00%    0.00%    0.00%    0.00%    0.00%
  8  1     8    1  |0 0>          0.00%    0.00%    0.00%    0.00%    0.00%    0.00%    0.00%    0.00%
  9  1     9    1  |0 0>          0.00%    0.00%    0.00%    0.00%    0.00%    0.00%    0.00%    0.00%
 10  1    10    1  |0 0>          0.00%    0.00%    0.00%    0.00%    0.00%    0.00%    0.00%    0.00%
 11  1     1    1  |1 1>+         0.00%    0.00%    0.00%    0.00%    0.00%    0.00%    0.00%    0.00%
 12  1     2    1  |1 1>+         0.00%    0.00%   46.09%    0.00%    0.00%    0.00%    0.82%    0.00%
 13  1     3    1  |1 1>+         0.00%    0.00%    7.87%    0.00%    0.00%    0.00%   38.33%    0.00%
 14  1     4    1  |1 1>+         0.00%    0.00%    0.00%    0.00%    0.00%    0.00%    0.00%   33.29%
 15  1     5    1  |1 1>+         8.92%   24.66%    0.00%    0.00%   28.75%    0.00%    0.00%    0.00%
 16  1     6    1  |1 1>+         0.00%    0.00%    0.00%    2.49%    0.00%   50.98%    0.00%    0.00%
 17  1     7    1  |1 1>+         2.11%    0.00%    0.00%    0.00%    0.00%    0.00%    0.00%    0.00%
 18  1     8    1  |1 1>+         0.00%    0.00%    0.00%    0.00%    0.00%    0.00%    0.00%    0.00%
 19  1     9    1  |1 1>+         0.00%    0.00%    0.00%    0.00%    0.00%    0.00%    0.00%    0.00%
 20  1     1    1  |1 0>          0.00%    0.00%    0.00%    0.00%    0.00%    0.00%    0.00%    0.00%
 21  1     2    1  |1 0>          0.00%    0.00%    0.00%   30.12%    0.00%    4.52%    0.00%    0.00%
 22  1     3    1  |1 0>          0.00%    0.00%    0.00%   13.98%    0.00%   44.43%    0.00%    0.00%
 23  1     4    1  |1 0>          8.98%   15.55%    0.00%    0.00%   37.81%    0.00%    0.00%    0.00%
 24  1     5    1  |1 0>          0.02%    0.00%    0.00%    0.00%    0.00%    0.00%    0.00%   33.32%
 25  1     6    1  |1 0>          0.00%    0.00%    1.46%    0.00%    0.00%    0.00%   51.95%    0.00%
 26  1     7    1  |1 0>          0.00%    0.00%    0.00%    0.00%    0.00%    0.00%    0.00%    0.00%
 27  1     8    1  |1 0>          0.00%    0.00%    0.00%    0.00%    0.00%    0.00%    0.00%    0.00%
 28  1     9    1  |1 0>          2.11%    0.00%    0.00%    0.00%    0.00%    0.00%    0.00%    0.00%
 29  1     1    1  |1 1>-         0.00%    0.00%    0.00%    0.00%    0.00%    0.00%    0.00%    0.00%
 30  1     2    1  |1 1>-         2.74%   57.13%    0.00%    0.00%    0.84%    0.00%    0.00%    0.00%
 31  1     3    1  |1 1>-        33.41%    2.66%    0.00%    0.00%   32.59%    0.00%    0.00%    0.00%
 32  1     4    1  |1 1>-         0.00%    0.00%    0.00%   53.41%    0.00%    0.07%    0.00%    0.00%
 33  1     5    1  |1 1>-         0.00%    0.00%   44.58%    0.00%    0.00%    0.00%    8.90%    0.00%
 34  1     6    1  |1 1>-         0.01%    0.00%    0.00%    0.00%    0.00%    0.00%    0.00%   33.39%
 35  1     7    1  |1 1>-         0.00%    0.00%    0.00%    0.00%    0.00%    0.00%    0.00%    0.00%
 36  1     8    1  |1 1>-         0.00%    0.00%    0.00%    0.00%    0.00%    0.00%    0.00%    0.00%
 37  1     9    1  |1 1>-         0.00%    0.00%    0.00%    0.00%    0.00%    0.00%    0.00%    0.00%

   Total
 Nr Sym  State Sym Spin / Nr.     17       18       19       20       21       22       23       24

  1  1     1    1  |0 0>          0.00%    0.00%    0.00%    0.00%    0.00%    0.00%    0.00%    0.00%
  2  1     2    1  |0 0>          0.00%    0.00%    0.00%    0.00%    0.00%    0.02%    0.00%   23.93%
  3  1     3    1  |0 0>          0.00%    0.00%    0.00%    0.00%    0.00%   23.66%    0.27%    0.02%
  4  1     4    1  |0 0>          0.00%    0.00%    0.00%    0.00%    0.01%    0.27%   23.66%    0.00%
  5  1     5    1  |0 0>          0.00%    0.00%    0.00%   16.97%    6.96%    0.00%    0.01%    0.00%
  6  1     6    1  |0 0>          0.00%    0.00%    0.00%    6.97%   16.96%    0.00%    0.01%    0.00%
  7  1     7    1  |0 0>          0.00%   51.17%    0.00%    0.00%    0.00%    0.00%    0.00%    0.00%
  8  1     8    1  |0 0>         51.18%    0.00%    0.00%    0.00%    0.00%    0.00%    0.00%    0.00%
  9  1     9    1  |0 0>          0.00%    0.00%   51.17%    0.00%    0.00%    0.00%    0.00%    0.00%
 10  1    10    1  |0 0>          0.00%    0.00%    0.00%    0.00%    0.00%    0.00%    0.00%    0.00%
 11  1     1    1  |1 1>+         0.37%    0.00%    0.00%    0.00%    0.00%    0.00%    0.00%    0.00%
 12  1     2    1  |1 1>+         5.24%    0.00%    0.00%    0.00%    0.00%    0.01%    1.18%    0.00%
 13  1     3    1  |1 1>+         4.92%    0.00%    0.00%    0.00%    0.00%    0.01%    1.25%    0.00%
 14  1     4    1  |1 1>+         0.00%    0.00%    0.00%    0.52%    1.94%    0.00%    0.00%    0.00%
 15  1     5    1  |1 1>+         0.00%    7.62%    0.00%    0.00%    0.00%    0.61%    0.00%    0.00%
 16  1     6    1  |1 1>+         0.00%    0.00%    7.62%    0.00%    0.00%    0.00%    0.00%    0.61%
 17  1     7    1  |1 1>+         0.00%   11.52%    0.01%    0.01%    0.02%   35.90%    0.26%    0.00%
 18  1     8    1  |1 1>+         0.00%    0.01%   11.52%    0.00%    0.00%    0.00%    0.00%   36.18%
 19  1     9    1  |1 1>+         0.00%    0.00%    0.00%   38.04%   10.04%    0.04%    0.13%    0.00%
 20  1     1    1  |1 0>          0.00%    0.00%    0.37%    0.00%    0.00%    0.00%    0.00%    0.00%
 21  1     2    1  |1 0>          0.00%    0.00%    0.60%    0.00%    0.00%    0.00%    0.00%    2.30%
 22  1     3    1  |1 0>          0.00%    0.00%    9.56%    0.00%    0.00%    0.00%    0.00%    0.15%
 23  1     4    1  |1 0>          0.00%    7.62%    0.00%    0.00%    0.00%    0.61%    0.00%    0.00%
 24  1     5    1  |1 0>          0.00%    0.00%    0.00%    0.72%    1.73%    0.00%    0.01%    0.00%
 25  1     6    1  |1 0>          7.62%    0.00%    0.00%    0.00%    0.00%    0.00%    0.61%    0.00%
 26  1     7    1  |1 0>          0.01%    0.00%    0.00%   34.15%   14.08%    0.00%    0.01%    0.00%
 27  1     8    1  |1 0>         11.51%    0.00%    0.00%    0.01%    0.13%    0.25%   35.81%    0.00%
 28  1     9    1  |1 0>          0.00%   11.52%    0.00%    0.01%    0.01%   35.86%    0.25%    0.05%
 29  1     1    1  |1 1>-         0.00%    0.37%    0.00%    0.00%    0.00%    0.00%    0.00%    0.00%
 30  1     2    1  |1 1>-         0.00%    9.40%    0.00%    0.00%    0.00%    0.18%    0.00%    0.00%
 31  1     3    1  |1 1>-         0.00%    0.76%    0.00%    0.00%    0.00%    2.25%    0.02%    0.00%
 32  1     4    1  |1 1>-         0.00%    0.00%    7.62%    0.00%    0.00%    0.00%    0.00%    0.61%
 33  1     5    1  |1 1>-         7.62%    0.00%    0.00%    0.00%    0.00%    0.00%    0.61%    0.00%
 34  1     6    1  |1 1>-         0.00%    0.00%    0.00%    2.44%    0.01%    0.00%    0.00%    0.00%
 35  1     7    1  |1 1>-        11.51%    0.00%    0.00%    0.06%    0.19%    0.24%   35.70%    0.00%
 36  1     8    1  |1 1>-         0.01%    0.00%    0.00%    0.10%   47.89%    0.04%    0.21%    0.00%
 37  1     9    1  |1 1>-         0.00%    0.00%   11.52%    0.00%    0.00%    0.05%    0.00%   36.14%

   Total
 Nr Sym  State Sym Spin / Nr.     25       26       27       28       29       30       31       32

  1  1     1    1  |0 0>          0.02%    0.00%    0.00%    0.00%    0.00%    0.00%    0.00%    0.00%
  2  1     2    1  |0 0>          0.00%    0.00%    0.00%    0.00%    0.03%   34.33%    0.01%    0.00%
  3  1     3    1  |0 0>          0.00%    0.00%    0.00%    0.00%    0.01%    0.01%    0.00%    0.02%
  4  1     4    1  |0 0>          0.00%    0.00%    0.00%    0.00%    0.33%    0.00%    0.83%   33.20%
  5  1     5    1  |0 0>          0.00%    0.00%    0.00%    0.00%   31.62%    0.02%    2.09%    0.62%
  6  1     6    1  |0 0>          0.00%    0.00%    0.00%    0.00%    2.38%    0.01%   31.44%    0.53%
  7  1     7    1  |0 0>          0.00%   26.68%    0.00%    0.00%    0.00%    0.00%    0.00%    0.00%
  8  1     8    1  |0 0>          0.00%    0.00%   26.68%    0.00%    0.00%    0.00%    0.00%    0.00%
  9  1     9    1  |0 0>          0.00%    0.00%    0.00%   26.68%    0.00%    0.00%    0.00%    0.00%
 10  1    10    1  |0 0>         31.98%    0.00%    0.00%    0.00%    0.00%    0.00%    0.00%    0.00%
 11  1     1    1  |1 1>+         0.00%    0.00%    0.55%    0.00%    0.00%    0.00%    0.00%    0.00%
 12  1     2    1  |1 1>+         0.00%    0.00%   14.69%    0.00%    0.24%    0.00%    0.37%   13.03%
 13  1     3    1  |1 1>+         0.00%    0.00%   13.79%    0.00%    0.25%    0.00%    0.39%   13.88%
 14  1     4    1  |1 1>+         0.00%    0.00%    0.00%    0.00%    3.48%    0.02%   24.33%    0.33%
 15  1     5    1  |1 1>+         0.00%   21.36%    0.00%    0.00%    0.01%    0.00%    0.00%    0.00%
 16  1     6    1  |1 1>+         0.00%    0.00%    0.00%   21.36%    0.01%    7.03%    0.00%    0.00%
 17  1     7    1  |1 1>+         0.00%    0.79%    0.00%    0.00%    0.01%    0.01%    0.00%    0.00%
 18  1     8    1  |1 1>+         0.00%    0.00%    0.00%    0.79%    0.01%   11.68%    0.00%    0.00%
 19  1     9    1  |1 1>+        22.66%    0.00%    0.00%    0.00%   13.37%    0.01%    1.69%    0.51%
 20  1     1    1  |1 0>          0.00%    0.00%    0.00%    0.55%    0.00%    0.00%    0.00%    0.00%
 21  1     2    1  |1 0>          0.00%    0.00%    0.00%    1.69%    0.03%   26.45%    0.00%    0.00%
 22  1     3    1  |1 0>          0.00%    0.00%    0.00%   26.78%    0.00%    1.67%    0.00%    0.00%
 23  1     4    1  |1 0>          0.00%   21.36%    0.00%    0.00%    0.01%    0.00%    0.00%    0.00%
 24  1     5    1  |1 0>          0.00%    0.00%    0.00%    0.00%   26.90%    0.03%    0.91%    0.29%
 25  1     6    1  |1 0>          0.00%    0.00%   21.36%    0.00%    0.12%    0.00%    0.19%    6.73%
 26  1     7    1  |1 0>         22.65%    0.00%    0.00%    0.00%    0.41%    0.00%   14.77%    0.41%
 27  1     8    1  |1 0>          0.01%    0.00%    0.79%    0.00%    0.19%    0.00%    0.21%   11.30%
 28  1     9    1  |1 0>          0.00%    0.79%    0.00%    0.00%    0.01%    0.00%    0.00%    0.00%
 29  1     1    1  |1 1>-         0.00%    0.55%    0.00%    0.00%    0.00%    0.00%    0.00%    0.00%
 30  1     2    1  |1 1>-         0.00%   26.34%    0.00%    0.00%    0.00%    0.00%    0.00%    0.00%
 31  1     3    1  |1 1>-         0.00%    2.14%    0.00%    0.00%    0.03%    0.00%    0.01%    0.00%
 32  1     4    1  |1 1>-         0.00%    0.00%    0.00%   21.36%    0.01%    7.03%    0.00%    0.00%
 33  1     5    1  |1 1>-         0.00%    0.00%   21.36%    0.00%    0.12%    0.00%    0.19%    6.72%
 34  1     6    1  |1 1>-         0.00%    0.00%    0.00%    0.00%   11.03%    0.00%   15.85%    1.25%
 35  1     7    1  |1 1>-         0.01%    0.00%    0.79%    0.00%    0.28%    0.00%    0.25%   11.18%
 36  1     8    1  |1 1>-        22.65%    0.00%    0.00%    0.00%    9.11%    0.02%    6.46%    0.01%
 37  1     9    1  |1 1>-         0.00%    0.00%    0.00%    0.79%    0.01%   11.69%    0.00%    0.00%

   Total
 Nr Sym  State Sym Spin / Nr.     33       34       35       36       37

  1  1     1    1  |0 0>          0.00%    0.00%    0.00%    0.00%    0.01%
  2  1     2    1  |0 0>          0.01%    0.00%    0.00%    0.00%    0.00%
  3  1     3    1  |0 0>         34.33%    0.00%    0.00%    0.00%    0.00%
  4  1     4    1  |0 0>          0.01%    0.00%    0.00%    0.00%    0.00%
  5  1     5    1  |0 0>          0.02%    0.00%    0.00%    0.00%    0.00%
  6  1     6    1  |0 0>          0.00%    0.00%    0.00%    0.00%    0.00%
  7  1     7    1  |0 0>          0.00%   19.25%    0.00%    0.00%    0.00%
  8  1     8    1  |0 0>          0.00%    0.00%   19.25%    0.00%    0.00%
  9  1     9    1  |0 0>          0.00%    0.00%    0.00%   19.25%    0.00%
 10  1    10    1  |0 0>          0.00%    0.00%    0.00%    0.00%   68.02%
 11  1     1    1  |1 1>+         0.00%    0.00%   13.64%    0.00%    0.00%
 12  1     2    1  |1 1>+         0.00%    0.00%    0.69%    0.00%    0.00%
 13  1     3    1  |1 1>+         0.00%    0.00%    0.64%    0.00%    0.00%
 14  1     4    1  |1 1>+         0.00%    0.00%    0.00%    0.00%    0.00%
 15  1     5    1  |1 1>+         7.03%    1.00%    0.00%    0.00%    0.00%
 16  1     6    1  |1 1>+         0.00%    0.00%    0.00%    1.00%    0.00%
 17  1     7    1  |1 1>+        11.68%   31.89%    0.00%    0.00%    0.00%
 18  1     8    1  |1 1>+         0.01%    0.00%    0.00%   31.89%    0.00%
 19  1     9    1  |1 1>+         0.02%    0.00%    0.00%    0.00%   10.66%
 20  1     1    1  |1 0>          0.00%    0.00%    0.00%   13.64%    0.00%
 21  1     2    1  |1 0>          0.00%    0.00%    0.00%    0.08%    0.00%
 22  1     3    1  |1 0>          0.00%    0.00%    0.00%    1.25%    0.00%
 23  1     4    1  |1 0>          7.03%    1.00%    0.00%    0.00%    0.00%
 24  1     5    1  |1 0>          0.03%    0.00%    0.00%    0.00%    0.00%
 25  1     6    1  |1 0>          0.00%    0.00%    1.00%    0.00%    0.00%
 26  1     7    1  |1 0>          0.01%    0.00%    0.02%    0.00%   10.65%
 27  1     8    1  |1 0>          0.00%    0.00%   31.87%    0.00%    0.01%
 28  1     9    1  |1 0>         11.68%   31.89%    0.00%    0.01%    0.00%
 29  1     1    1  |1 1>-         0.00%   13.64%    0.00%    0.00%    0.00%
 30  1     2    1  |1 1>-         2.11%    1.23%    0.00%    0.00%    0.00%
 31  1     3    1  |1 1>-        26.00%    0.10%    0.00%    0.00%    0.00%
 32  1     4    1  |1 1>-         0.00%    0.00%    0.00%    1.00%    0.00%
 33  1     5    1  |1 1>-         0.00%    0.00%    1.00%    0.00%    0.00%
 34  1     6    1  |1 1>-         0.03%    0.00%    0.00%    0.00%    0.00%
 35  1     7    1  |1 1>-         0.00%    0.00%   31.87%    0.00%    0.01%
 36  1     8    1  |1 1>-         0.00%    0.00%    0.02%    0.00%   10.65%
 37  1     9    1  |1 1>-         0.00%    0.01%    0.00%   31.89%    0.00%


 No matrix element <i|DMX|i> larger than 5E-7
 No matrix element <i|DMX|1> larger than 5E-7

 No matrix element <i|DMY|i> larger than 5E-7
 No matrix element <i|DMY|1> larger than 5E-7

 No matrix element <i|DMZ|i> larger than 5E-7
 No matrix element <i|DMZ|1> larger than 5E-7


 **********************************************************************************************************************************
 DATASETS  * FILE   NREC   LENGTH (MB)   RECORD NAMES
              1      21       39.05       500      610      700      900      950      970     1000      129      960     1100   
                                          VAR    BASINP    GEOM    SYMINP    ZMAT    AOBASIS   BASIS     P2S    ABASIS      S 
                                         1400     1410     1420     1200     1210     1080     1700     1600     1650     1380   
                                           T        V       ECP      H0       H01     AOSYM    OPER      SMH    MOLCAS    JKOP   
                                         1700(1)
                                         OPER   

              2       7     1349.82       700     1000      520     2100     2140     5201     5202   
                                         GEOM     BASIS   MCVARS     RHF     MCSCF    MRCI     MRCI   

 PROGRAMS   *        TOTAL        CI        CI        CI     MULTI   RHF-SCF       INT
 CPU TIMES  *     72738.63  67893.16   2676.29   2162.59      5.21      0.05      1.03
 REAL TIME  *     73381.71 SEC
 DISK USED  *         1.36 GB (local),       19.06 GB (total)
 SF USED    *         7.23 GB
 GA USED    *         0.00 MB       (max)       0.00 MB       (current)
 **********************************************************************************************************************************

 CI/USERDEF energy=   -462.686962620698

              CI              CI           MULTI         RHF-SCF
   -462.64794226   -462.62833431   -461.77208885   -462.19812140
 **********************************************************************************************************************************
 Molpro calculation terminated with 1 warning(s)
