
 Working directory              : /wrk/irikura/molpro.G9RrCGNVkY/
 Global scratch directory       : /wrk/irikura/molpro.G9RrCGNVkY/
 Wavefunction directory         : /home/irikura/wfu/
 Main file repository           : /wrk/irikura/molpro.G9RrCGNVkY/

 id        : nistki

 Nodes            nprocs
 pn125343.nist.gov   14
 GA implementation: MPI file
 GA implementation (serial work in mppx): MPI file

 Using customized tuning parameters: mindgm=1; mindgv=20; mindgc=4; mindgr=1; noblas=0; minvec=7
 default implementation of scratch files=sf  


 Variables initialized (1042), CPU time= 0.01 sec
 ***,Kr SO-CI
                                                                                 ! active space (8/7)
 memory,4000,M;
 
 gprint,orbitals,civector,basis
 
 symmetry,xyz
 geometry={Kr};
 
 basis={
 ecp,kr,ECP10MDF;
 spdfgh,kr,aug-cc-pwCVQZ-PP;C; spdf,1,even,nprim=1,ratio=3.0;
 }
 
 rhf
 
 {multi,wmk
     occ,7,9
     wf,sym=1,spin=0;state,10;
     wf,sym=1,spin=2;state,9;
     expec2,lxx,lyy,lzz;
 }
 table, energy, ll
 title, Energies and &lt;L**2&gt; values
 
 core,0,0
 
 {ci;wf,sym=1,spin=0;state,10; save,5201.2}
 hlsdiag = energd4
 {ci;wf,sym=1,spin=2;state,9; save,5202.2}
 hlsdiag(11) = energd
 
 table,hlsdiag
 
 {ci;hlsmat,ecp,5201.2,5202.2;print,vls=0,hls=0}                                 !compute and diagonalize SO matrix
 Commands initialized (847), CPU time= 0.01 sec, 718 directives.
 Default parameters read. Elapsed time= 0.10 sec

 Checking input...
 Passed
1


                                         ***  PROGRAM SYSTEM MOLPRO  ***
                                       Copyright, TTI GmbH Stuttgart, 2015
                                    Version 2024.1 linked Mon Jun 17 07:53:25 2024


 **********************************************************************************************************************************
 LABEL *   Kr SO-CI                                                                                                                                                      
  (64 PROC) 64 bit mpp version                                                           DATE: 15-Oct-24          TIME: 11:17:17  
 **********************************************************************************************************************************

 SHA1:             0134236b472f03f1f5189f93707d8671e415b05c
 **********************************************************************************************************************************

 Memory per process:      4000 MW
 Total memory per node:  56000 MW

 GA preallocation disabled
 GA check disabled

 Variable memory set to 4000.0 MW


 ZSYMEL=XYZ

 SETTING BASIS          =    USERDEF


 Recomputing integrals since basis changed


 Using spherical harmonics

 Library entry Kr   ECP ECP10MDF                 selected for group  1
 Library entry KR     S AUG-CC-PWCVQZ-PP     selected for orbital group  1
 Even tempered Kr S diffuse               selected for group 1    nprim= 1    centre=  0.015    ratio= 3.000    dratio= 1.000
 Library entry KR     P AUG-CC-PWCVQZ-PP     selected for orbital group  1
 Even tempered Kr P diffuse               selected for group 1    nprim= 1    centre=  0.011    ratio= 3.000    dratio= 1.000
 Library entry KR     D AUG-CC-PWCVQZ-PP     selected for orbital group  1
 Even tempered Kr D diffuse               selected for group 1    nprim= 1    centre=  0.030    ratio= 3.000    dratio= 1.000
 Library entry KR     F AUG-CC-PWCVQZ-PP     selected for orbital group  1
 Even tempered Kr F diffuse               selected for group 1    nprim= 1    centre=  0.068    ratio= 3.000    dratio= 1.000
 Library entry KR     G AUG-CC-PWCVQZ-PP     selected for orbital group  1
 Library entry KR     H AUG-CC-PWCVQZ-PP     selected for orbital group  1


 PROGRAM * SEWARD (Integral evaluation for generally contracted gaussian basis sets)     Author: Roland Lindh, 1990

 Geometry written to block  1 of record 700

 Orientation using atomic masses  
 Molecule type: Atom
 User-specified symmetry elements: XYZ
 Symmetry elements: XYZ
 Rotational constants:       0.0000000      0.0000000      0.0000000 GHz  (calculated with average atomic masses)

 Point group  Ci  



 ATOMIC COORDINATES

 NR  ATOM    CHARGE       X              Y              Z

   1  KR     26.00    0.000000000    0.000000000    0.000000000


          KR  CORE POTENTIAL

          g POTENTIAL

 POWERS             2
 EXPONENTIALS   1.000000    
 COEFFICIENTS   0.000000    

          s - g POTENTIAL

 POWERS             2              2              2
 EXPONENTIALS   70.03441       31.89597       7.353728    
 COEFFICIENTS   49.95383       369.9782       10.05454    

          p - g POTENTIAL

 POWERS             2              2              2              2
 EXPONENTIALS   47.26518       46.66427       23.00813       22.10098    
 COEFFICIENTS   99.10183       198.2325       28.20467       56.51679    

          d - g POTENTIAL

 POWERS             2              2              2              2              2              2
 EXPONENTIALS   50.76817       50.78223       15.47950       15.55938       2.877154       1.991196    
 COEFFICIENTS  -18.58888      -27.87540     -0.2934110     -0.4693990      6.8881000E-02  0.1322700    

          f - g POTENTIAL

 POWERS             2              2
 EXPONENTIALS   15.43757       22.05574    
 COEFFICIENTS  -1.223389      -2.991233    


          KR  SPIN-ORBIT POTENTIAL

          p POTENTIAL

 POWERS             2              2              2              2
 EXPONENTIALS   47.26518       46.66427       23.00813       22.10098    
 COEFFICIENTS  -198.2037       198.2325      -56.40934       56.51679    

          d POTENTIAL

 POWERS             2              2              2              2              2              2
 EXPONENTIALS   50.76817       50.78223       15.47950       15.55938       2.877154       1.991196    
 COEFFICIENTS   18.58888      -18.58360      0.2934110     -0.3129330     -6.8881000E-02  8.8180000E-02

          f POTENTIAL

 POWERS             2              2
 EXPONENTIALS   15.43757       22.05574    
 COEFFICIENTS  0.8155930      -1.495617    


 BASIS DATA

   Nr Sym  Nuc  Type         Exponents   Contraction coefficients

    1.1 Ag    1  1s       76661.600000     0.000047    0.000000    0.000000    0.000000    0.000000    0.000000
    2.1 Ag                11509.100000     0.000358    0.000000    0.000000    0.000000    0.000000    0.000000
    3.1 Ag                 2619.790000     0.001764    0.000000    0.000000    0.000000    0.000000    0.000000
    4.1 Ag                  740.044000     0.006097    0.000000    0.000000    0.000000    0.000000    0.000000
    5.1 Ag                  235.341000     0.012681    0.000000    0.000000    0.000000    0.000000    0.000000
    6.1 Ag                   42.383900     0.137846    0.000000    0.000000    0.000000    0.000000    0.000000
                             26.501400    -0.192855    1.000000    0.000000    0.000000    0.000000    0.000000
                             16.573200    -0.278368    0.000000    0.000000    0.000000    0.000000    0.000000
                              4.591140     0.519056    0.000000    0.000000    0.000000    0.000000    0.000000
                              2.493680     0.534595    0.000000    0.000000    0.000000    0.000000    0.000000
                              1.351050     0.159405    0.000000    1.000000    0.000000    0.000000    0.000000
                              0.587240     0.008505    0.000000    0.000000    1.000000    0.000000    0.000000
                              0.270818     0.000131    0.000000    0.000000    0.000000    1.000000    0.000000
                              0.120385     0.000281    0.000000    0.000000    0.000000    0.000000    1.000000
    7.1 Ag    1  1s           7.179200     1.000000
    8.1 Ag    1  1s           4.495700     1.000000
    9.1 Ag    1  1s           2.815200     1.000000
   10.1 Ag    1  1s           0.045500     1.000000
   11.1 Ag    1  1s           0.015167     1.000000
   12.1 Ag    1  3d0       1171.060000     0.000115
                            355.351000     0.001194
                            139.684000     0.007882
                             64.021900     0.036793
                             31.834300     0.096287
                             16.142300     0.192550
                              8.334540     0.286961
                              4.299400     0.318125
                              2.195430     0.240967
                              1.075080     0.098910
                              0.457500     0.013929
   13.1 Ag    1  3d2-      1171.060000     0.000115
                            355.351000     0.001194
                            139.684000     0.007882
                             64.021900     0.036793
                             31.834300     0.096287
                             16.142300     0.192550
                              8.334540     0.286961
                              4.299400     0.318125
                              2.195430     0.240967
                              1.075080     0.098910
                              0.457500     0.013929
   14.1 Ag    1  3d1+      1171.060000     0.000115
                            355.351000     0.001194
                            139.684000     0.007882
                             64.021900     0.036793
                             31.834300     0.096287
                             16.142300     0.192550
                              8.334540     0.286961
                              4.299400     0.318125
                              2.195430     0.240967
                              1.075080     0.098910
                              0.457500     0.013929
   15.1 Ag    1  3d2+      1171.060000     0.000115
                            355.351000     0.001194
                            139.684000     0.007882
                             64.021900     0.036793
                             31.834300     0.096287
                             16.142300     0.192550
                              8.334540     0.286961
                              4.299400     0.318125
                              2.195430     0.240967
                              1.075080     0.098910
                              0.457500     0.013929
   16.1 Ag    1  3d1-      1171.060000     0.000115
                            355.351000     0.001194
                            139.684000     0.007882
                             64.021900     0.036793
                             31.834300     0.096287
                             16.142300     0.192550
                              8.334540     0.286961
                              4.299400     0.318125
                              2.195430     0.240967
                              1.075080     0.098910
                              0.457500     0.013929
   17.1 Ag    1  3d0       1171.060000     0.000000
                            355.351000     0.000000
                            139.684000     0.000000
                             64.021900     0.000000
                             31.834300     0.000000
                             16.142300     0.000000
                              8.334540     0.000000
                              4.299400     0.000000
                              2.195430     0.000000
                              1.075080     1.000000
                              0.457500     0.000000
   18.1 Ag    1  3d2-      1171.060000     0.000000
                            355.351000     0.000000
                            139.684000     0.000000
                             64.021900     0.000000
                             31.834300     0.000000
                             16.142300     0.000000
                              8.334540     0.000000
                              4.299400     0.000000
                              2.195430     0.000000
                              1.075080     1.000000
                              0.457500     0.000000
   19.1 Ag    1  3d1+      1171.060000     0.000000
                            355.351000     0.000000
                            139.684000     0.000000
                             64.021900     0.000000
                             31.834300     0.000000
                             16.142300     0.000000
                              8.334540     0.000000
                              4.299400     0.000000
                              2.195430     0.000000
                              1.075080     1.000000
                              0.457500     0.000000
   20.1 Ag    1  3d2+      1171.060000     0.000000
                            355.351000     0.000000
                            139.684000     0.000000
                             64.021900     0.000000
                             31.834300     0.000000
                             16.142300     0.000000
                              8.334540     0.000000
                              4.299400     0.000000
                              2.195430     0.000000
                              1.075080     1.000000
                              0.457500     0.000000
   21.1 Ag    1  3d1-      1171.060000     0.000000
                            355.351000     0.000000
                            139.684000     0.000000
                             64.021900     0.000000
                             31.834300     0.000000
                             16.142300     0.000000
                              8.334540     0.000000
                              4.299400     0.000000
                              2.195430     0.000000
                              1.075080     1.000000
                              0.457500     0.000000
   22.1 Ag    1  3d0       1171.060000     0.000000
                            355.351000     0.000000
                            139.684000     0.000000
                             64.021900     0.000000
                             31.834300     0.000000
                             16.142300     0.000000
                              8.334540     0.000000
                              4.299400     0.000000
                              2.195430     0.000000
                              1.075080     0.000000
                              0.457500     1.000000
   23.1 Ag    1  3d2-      1171.060000     0.000000
                            355.351000     0.000000
                            139.684000     0.000000
                             64.021900     0.000000
                             31.834300     0.000000
                             16.142300     0.000000
                              8.334540     0.000000
                              4.299400     0.000000
                              2.195430     0.000000
                              1.075080     0.000000
                              0.457500     1.000000
   24.1 Ag    1  3d1+      1171.060000     0.000000
                            355.351000     0.000000
                            139.684000     0.000000
                             64.021900     0.000000
                             31.834300     0.000000
                             16.142300     0.000000
                              8.334540     0.000000
                              4.299400     0.000000
                              2.195430     0.000000
                              1.075080     0.000000
                              0.457500     1.000000
   25.1 Ag    1  3d2+      1171.060000     0.000000
                            355.351000     0.000000
                            139.684000     0.000000
                             64.021900     0.000000
                             31.834300     0.000000
                             16.142300     0.000000
                              8.334540     0.000000
                              4.299400     0.000000
                              2.195430     0.000000
                              1.075080     0.000000
                              0.457500     1.000000
   26.1 Ag    1  3d1-      1171.060000     0.000000
                            355.351000     0.000000
                            139.684000     0.000000
                             64.021900     0.000000
                             31.834300     0.000000
                             16.142300     0.000000
                              8.334540     0.000000
                              4.299400     0.000000
                              2.195430     0.000000
                              1.075080     0.000000
                              0.457500     1.000000
   27.1 Ag    1  3d0          0.196500     1.000000
   28.1 Ag    1  3d2-         0.196500     1.000000
   29.1 Ag    1  3d1+         0.196500     1.000000
   30.1 Ag    1  3d2+         0.196500     1.000000
   31.1 Ag    1  3d1-         0.196500     1.000000
   32.1 Ag    1  3d0          9.710500     1.000000
   33.1 Ag    1  3d2-         9.710500     1.000000
   34.1 Ag    1  3d1+         9.710500     1.000000
   35.1 Ag    1  3d2+         9.710500     1.000000
   36.1 Ag    1  3d1-         9.710500     1.000000
   37.1 Ag    1  3d0          4.875500     1.000000
   38.1 Ag    1  3d2-         4.875500     1.000000
   39.1 Ag    1  3d1+         4.875500     1.000000
   40.1 Ag    1  3d2+         4.875500     1.000000
   41.1 Ag    1  3d1-         4.875500     1.000000
   42.1 Ag    1  3d0          2.447900     1.000000
   43.1 Ag    1  3d2-         2.447900     1.000000
   44.1 Ag    1  3d1+         2.447900     1.000000
   45.1 Ag    1  3d2+         2.447900     1.000000
   46.1 Ag    1  3d1-         2.447900     1.000000
   47.1 Ag    1  3d0          0.089700     1.000000
   48.1 Ag    1  3d2-         0.089700     1.000000
   49.1 Ag    1  3d1+         0.089700     1.000000
   50.1 Ag    1  3d2+         0.089700     1.000000
   51.1 Ag    1  3d1-         0.089700     1.000000
   52.1 Ag    1  3d0          0.029900     1.000000
   53.1 Ag    1  3d2-         0.029900     1.000000
   54.1 Ag    1  3d1+         0.029900     1.000000
   55.1 Ag    1  3d2+         0.029900     1.000000
   56.1 Ag    1  3d1-         0.029900     1.000000
   57.1 Ag    1  5g0          0.750400     1.000000
   58.1 Ag    1  5g2-         0.750400     1.000000
   59.1 Ag    1  5g1+         0.750400     1.000000
   60.1 Ag    1  5g4+         0.750400     1.000000
   61.1 Ag    1  5g1-         0.750400     1.000000
   62.1 Ag    1  5g2+         0.750400     1.000000
   63.1 Ag    1  5g4-         0.750400     1.000000
   64.1 Ag    1  5g3+         0.750400     1.000000
   65.1 Ag    1  5g3-         0.750400     1.000000
   66.1 Ag    1  5g0         10.991700     1.000000
   67.1 Ag    1  5g2-        10.991700     1.000000
   68.1 Ag    1  5g1+        10.991700     1.000000
   69.1 Ag    1  5g4+        10.991700     1.000000
   70.1 Ag    1  5g1-        10.991700     1.000000
   71.1 Ag    1  5g2+        10.991700     1.000000
   72.1 Ag    1  5g4-        10.991700     1.000000
   73.1 Ag    1  5g3+        10.991700     1.000000
   74.1 Ag    1  5g3-        10.991700     1.000000
   75.1 Ag    1  5g0          2.690400     1.000000
   76.1 Ag    1  5g2-         2.690400     1.000000
   77.1 Ag    1  5g1+         2.690400     1.000000
   78.1 Ag    1  5g4+         2.690400     1.000000
   79.1 Ag    1  5g1-         2.690400     1.000000
   80.1 Ag    1  5g2+         2.690400     1.000000
   81.1 Ag    1  5g4-         2.690400     1.000000
   82.1 Ag    1  5g3+         2.690400     1.000000
   83.1 Ag    1  5g3-         2.690400     1.000000
   84.1 Ag    1  5g0          0.353200     1.000000
   85.1 Ag    1  5g2-         0.353200     1.000000
   86.1 Ag    1  5g1+         0.353200     1.000000
   87.1 Ag    1  5g4+         0.353200     1.000000
   88.1 Ag    1  5g1-         0.353200     1.000000
   89.1 Ag    1  5g2+         0.353200     1.000000
   90.1 Ag    1  5g4-         0.353200     1.000000
   91.1 Ag    1  5g3+         0.353200     1.000000
   92.1 Ag    1  5g3-         0.353200     1.000000
    1.2 Au    1  2px        546.903000     0.000522
                            106.998000     0.004714
                             46.513300     0.006575
                             29.072200    -0.094387
                              8.147130     0.301261
                              4.195350     0.470405
                              2.148220     0.294731
                              1.052150     0.055015
                              0.477745     0.001431
                              0.208168     0.000532
                              0.086824    -0.000084
    2.2 Au    1  2py        546.903000     0.000522
                            106.998000     0.004714
                             46.513300     0.006575
                             29.072200    -0.094387
                              8.147130     0.301261
                              4.195350     0.470405
                              2.148220     0.294731
                              1.052150     0.055015
                              0.477745     0.001431
                              0.208168     0.000532
                              0.086824    -0.000084
    3.2 Au    1  2pz        546.903000     0.000522
                            106.998000     0.004714
                             46.513300     0.006575
                             29.072200    -0.094387
                              8.147130     0.301261
                              4.195350     0.470405
                              2.148220     0.294731
                              1.052150     0.055015
                              0.477745     0.001431
                              0.208168     0.000532
                              0.086824    -0.000084
    4.2 Au    1  2px        546.903000    -0.000153
                            106.998000    -0.001628
                             46.513300    -0.000365
                             29.072200     0.026449
                              8.147130    -0.106278
                              4.195350    -0.167412
                              2.148220    -0.129802
                              1.052150     0.167557
                              0.477745     0.459321
                              0.208168     0.429782
                              0.086824     0.138909
    5.2 Au    1  2py        546.903000    -0.000153
                            106.998000    -0.001628
                             46.513300    -0.000365
                             29.072200     0.026449
                              8.147130    -0.106278
                              4.195350    -0.167412
                              2.148220    -0.129802
                              1.052150     0.167557
                              0.477745     0.459321
                              0.208168     0.429782
                              0.086824     0.138909
    6.2 Au    1  2pz        546.903000    -0.000153
                            106.998000    -0.001628
                             46.513300    -0.000365
                             29.072200     0.026449
                              8.147130    -0.106278
                              4.195350    -0.167412
                              2.148220    -0.129802
                              1.052150     0.167557
                              0.477745     0.459321
                              0.208168     0.429782
                              0.086824     0.138909
    7.2 Au    1  2px        546.903000     0.000000
                            106.998000     0.000000
                             46.513300     0.000000
                             29.072200     0.000000
                              8.147130     0.000000
                              4.195350     0.000000
                              2.148220     0.000000
                              1.052150     0.000000
                              0.477745     1.000000
                              0.208168     0.000000
                              0.086824     0.000000
    8.2 Au    1  2py        546.903000     0.000000
                            106.998000     0.000000
                             46.513300     0.000000
                             29.072200     0.000000
                              8.147130     0.000000
                              4.195350     0.000000
                              2.148220     0.000000
                              1.052150     0.000000
                              0.477745     1.000000
                              0.208168     0.000000
                              0.086824     0.000000
    9.2 Au    1  2pz        546.903000     0.000000
                            106.998000     0.000000
                             46.513300     0.000000
                             29.072200     0.000000
                              8.147130     0.000000
                              4.195350     0.000000
                              2.148220     0.000000
                              1.052150     0.000000
                              0.477745     1.000000
                              0.208168     0.000000
                              0.086824     0.000000
   10.2 Au    1  2px        546.903000     0.000000
                            106.998000     0.000000
                             46.513300     0.000000
                             29.072200     0.000000
                              8.147130     0.000000
                              4.195350     0.000000
                              2.148220     0.000000
                              1.052150     0.000000
                              0.477745     0.000000
                              0.208168     1.000000
                              0.086824     0.000000
   11.2 Au    1  2py        546.903000     0.000000
                            106.998000     0.000000
                             46.513300     0.000000
                             29.072200     0.000000
                              8.147130     0.000000
                              4.195350     0.000000
                              2.148220     0.000000
                              1.052150     0.000000
                              0.477745     0.000000
                              0.208168     1.000000
                              0.086824     0.000000
   12.2 Au    1  2pz        546.903000     0.000000
                            106.998000     0.000000
                             46.513300     0.000000
                             29.072200     0.000000
                              8.147130     0.000000
                              4.195350     0.000000
                              2.148220     0.000000
                              1.052150     0.000000
                              0.477745     0.000000
                              0.208168     1.000000
                              0.086824     0.000000
   13.2 Au    1  2px        546.903000     0.000000
                            106.998000     0.000000
                             46.513300     0.000000
                             29.072200     0.000000
                              8.147130     0.000000
                              4.195350     0.000000
                              2.148220     0.000000
                              1.052150     0.000000
                              0.477745     0.000000
                              0.208168     0.000000
                              0.086824     1.000000
   14.2 Au    1  2py        546.903000     0.000000
                            106.998000     0.000000
                             46.513300     0.000000
                             29.072200     0.000000
                              8.147130     0.000000
                              4.195350     0.000000
                              2.148220     0.000000
                              1.052150     0.000000
                              0.477745     0.000000
                              0.208168     0.000000
                              0.086824     1.000000
   15.2 Au    1  2pz        546.903000     0.000000
                            106.998000     0.000000
                             46.513300     0.000000
                             29.072200     0.000000
                              8.147130     0.000000
                              4.195350     0.000000
                              2.148220     0.000000
                              1.052150     0.000000
                              0.477745     0.000000
                              0.208168     0.000000
                              0.086824     1.000000
   16.2 Au    1  2px         10.991200     1.000000
   17.2 Au    1  2py         10.991200     1.000000
   18.2 Au    1  2pz         10.991200     1.000000
   19.2 Au    1  2px          5.181700     1.000000
   20.2 Au    1  2py          5.181700     1.000000
   21.2 Au    1  2pz          5.181700     1.000000
   22.2 Au    1  2px          2.442900     1.000000
   23.2 Au    1  2py          2.442900     1.000000
   24.2 Au    1  2pz          2.442900     1.000000
   25.2 Au    1  2px          0.033700     1.000000
   26.2 Au    1  2py          0.033700     1.000000
   27.2 Au    1  2pz          0.033700     1.000000
   28.2 Au    1  2px          0.011233     1.000000
   29.2 Au    1  2py          0.011233     1.000000
   30.2 Au    1  2pz          0.011233     1.000000
   31.2 Au    1  4f1+         0.959600     1.000000
   32.2 Au    1  4f1-         0.959600     1.000000
   33.2 Au    1  4f0          0.959600     1.000000
   34.2 Au    1  4f3+         0.959600     1.000000
   35.2 Au    1  4f2-         0.959600     1.000000
   36.2 Au    1  4f3-         0.959600     1.000000
   37.2 Au    1  4f2+         0.959600     1.000000
   38.2 Au    1  4f1+         0.417000     1.000000
   39.2 Au    1  4f1-         0.417000     1.000000
   40.2 Au    1  4f0          0.417000     1.000000
   41.2 Au    1  4f3+         0.417000     1.000000
   42.2 Au    1  4f2-         0.417000     1.000000
   43.2 Au    1  4f3-         0.417000     1.000000
   44.2 Au    1  4f2+         0.417000     1.000000
   45.2 Au    1  4f1+        16.409700     1.000000
   46.2 Au    1  4f1-        16.409700     1.000000
   47.2 Au    1  4f0         16.409700     1.000000
   48.2 Au    1  4f3+        16.409700     1.000000
   49.2 Au    1  4f2-        16.409700     1.000000
   50.2 Au    1  4f3-        16.409700     1.000000
   51.2 Au    1  4f2+        16.409700     1.000000
   52.2 Au    1  4f1+         6.373500     1.000000
   53.2 Au    1  4f1-         6.373500     1.000000
   54.2 Au    1  4f0          6.373500     1.000000
   55.2 Au    1  4f3+         6.373500     1.000000
   56.2 Au    1  4f2-         6.373500     1.000000
   57.2 Au    1  4f3-         6.373500     1.000000
   58.2 Au    1  4f2+         6.373500     1.000000
   59.2 Au    1  4f1+         2.475500     1.000000
   60.2 Au    1  4f1-         2.475500     1.000000
   61.2 Au    1  4f0          2.475500     1.000000
   62.2 Au    1  4f3+         2.475500     1.000000
   63.2 Au    1  4f2-         2.475500     1.000000
   64.2 Au    1  4f3-         2.475500     1.000000
   65.2 Au    1  4f2+         2.475500     1.000000
   66.2 Au    1  4f1+         0.203300     1.000000
   67.2 Au    1  4f1-         0.203300     1.000000
   68.2 Au    1  4f0          0.203300     1.000000
   69.2 Au    1  4f3+         0.203300     1.000000
   70.2 Au    1  4f2-         0.203300     1.000000
   71.2 Au    1  4f3-         0.203300     1.000000
   72.2 Au    1  4f2+         0.203300     1.000000
   73.2 Au    1  4f1+         0.067767     1.000000
   74.2 Au    1  4f1-         0.067767     1.000000
   75.2 Au    1  4f0          0.067767     1.000000
   76.2 Au    1  4f3+         0.067767     1.000000
   77.2 Au    1  4f2-         0.067767     1.000000
   78.2 Au    1  4f3-         0.067767     1.000000
   79.2 Au    1  4f2+         0.067767     1.000000
   80.2 Au    1  6h1+         2.912200     1.000000
   81.2 Au    1  6h1-         2.912200     1.000000
   82.2 Au    1  6h2+         2.912200     1.000000
   83.2 Au    1  6h3+         2.912200     1.000000
   84.2 Au    1  6h4-         2.912200     1.000000
   85.2 Au    1  6h3-         2.912200     1.000000
   86.2 Au    1  6h4+         2.912200     1.000000
   87.2 Au    1  6h5-         2.912200     1.000000
   88.2 Au    1  6h0          2.912200     1.000000
   89.2 Au    1  6h5+         2.912200     1.000000
   90.2 Au    1  6h2-         2.912200     1.000000

 NUCLEAR CHARGE:                   26
 NUMBER OF PRIMITIVE AOS:         320
 NUMBER OF SYMMETRY AOS:          248
 NUMBER OF CONTRACTIONS:          182   (   92Ag  +   90Au  )
 NUMBER OF INNER CORE ORBITALS:     0   (    0Ag  +    0Au  )
 NUMBER OF OUTER CORE ORBITALS:     9   (    6Ag  +    3Au  )
 NUMBER OF VALENCE ORBITALS:        4   (    1Ag  +    3Au  )


 LX: Ag           LY: Ag           LZ: Ag 


 NUCLEAR REPULSION ENERGY    0.00000000

 EXTRA SYMMETRY OF AOS IN SYMMETRY 1:   1 1 1 1 1 1 1 1 1 1   1 2 3 4 5 6 2 3 4 5   6 2 3 4 5 6 2 3 4 5   6 2 3 4 5 6 2 3 4 5
                                        6 2 3 4 5 6 2 3 4 5   6 2 3 4 5 6 7 8 910  1112131415 7 8 91011  12131415 7 8 9101112
                                       131415 7 8 910111213  1415
 EXTRA SYMMETRY OF AOS IN SYMMETRY 2:   1 2 3 1 2 3 1 2 3 1   2 3 1 2 3 1 2 3 1 2   3 1 2 3 1 2 3 1 2 3   4 5 6 7 8 910 4 5 6
                                        7 8 910 4 5 6 7 8 9  10 4 5 6 7 8 910 4 5   6 7 8 910 4 5 6 7 8   910 4 5 6 7 8 91011
                                       12131415161718192021


 Eigenvalues of metric

         1 0.126E-03 0.106E-02 0.256E-02 0.904E-02 0.904E-02 0.904E-02 0.904E-02 0.904E-02
         2 0.320E-03 0.320E-03 0.320E-03 0.153E-02 0.153E-02 0.153E-02 0.204E-01 0.204E-01


 Contracted 2-electron integrals neglected if value below      1.0D-11
 AO integral compression algorithm  1   Integral accuracy      1.0D-11

     132.907 MB (compressed) written to integral file ( 13.1%)

     Node minimum: 3.932 MB, node maximum: 14.942 MB


 NUMBER OF SORTED TWO-ELECTRON INTEGRALS:    4999730.     BUFFER LENGTH:  32768
 NUMBER OF SEGMENTS:   1  SEGMENT LENGTH:    4999730      RECORD LENGTH: 524288

 Memory used in sort:       5.56 MW

 SORT1 READ   126663630. AND WROTE      941470. INTEGRALS IN      3 RECORDS. CPU TIME:     0.54 SEC, REAL TIME:     0.56 SEC
 SORT2 READ    12984937. AND WROTE    70094571. INTEGRALS IN    210 RECORDS. CPU TIME:     0.07 SEC, REAL TIME:     0.09 SEC

 Node minimum:     4996745.  Node maximum:     5016757. integrals

 OPERATOR DM      FOR CENTER  0  COORDINATES:    0.000000    0.000000    0.000000


 **********************************************************************************************************************************
 DATASETS  * FILE   NREC   LENGTH (MB)   RECORD NAMES
              1      19       29.49       500      610      700      900      950      970     1000      129      960     1100   
                                          VAR    BASINP    GEOM    SYMINP    ZMAT    AOBASIS   BASIS     P2S    ABASIS      S 
                                         1400     1410     1420     1200     1210     1080     1700     1600     1650   
                                           T        V       ECP      H0       H01     AOSYM    OPER      SMH    MOLCAS    

 PROGRAMS   *        TOTAL       INT
 CPU TIMES  *         2.54      2.36
 REAL TIME  *         4.19 SEC
 DISK USED  *        29.86 MB (local),      676.12 MB (total)
 GA USED    *         0.00 MB       (max)       0.00 MB       (current)
 **********************************************************************************************************************************


 Program * Restricted Hartree-Fock


   Atom=KR basis=cc-pVTZ-PP        lmin=0  lmax=2

 Orbital guess generated from atomic densities.

 Initial occupancy:   7   6

 NELEC=   26   SYM=1   MS2= 0   THRE=1.0D-08   THRD=3.2D-06   THRG=3.2D-06  HFMA2=F  DIIS_START=2   DIIS_MAX=10   DIIS_INCORE=F

 Level shifts:    0.00 (CLOSED)    0.00 (OPEN)    0.30 (GAP_MIN)

 ITER           ETOT              DE          GRAD        DDIFF     DIIS  NEXP   TIME(IT)  TIME(TOT)  DIAG
   1     -462.19986536    -462.19986536     0.00D+00     0.78D-01     0     0       0.03      0.06    start
   2     -462.19986841      -0.00000304     0.47D-04     0.21D-03     1     0       0.03      0.09    diag
   3     -462.19986853      -0.00000012     0.59D-05     0.25D-04     2     0       0.02      0.11    diag
   4     -462.19986853      -0.00000000     0.93D-06     0.23D-05     3     0       0.03      0.14    diag
   5     -462.19986853      -0.00000000     0.32D-06     0.38D-06     0     0       0.03      0.17    diag

 Final occupancy:   7   6

 !RHF STATE 1.1 Energy               -462.199868530660
  RHF One-electron energy            -808.823570596881
  RHF Two-electron energy             346.623702066221
  RHF Kinetic energy                  329.240776020473
  RHF Nuclear energy                    0.000000000000
  RHF Virial quotient                  -1.403835436538

 !RHF STATE 1.1 Dipole moment           0.00000000     0.00000000     0.00000000
 Dipole moment /Debye                   0.00000000     0.00000000     0.00000000

 ELECTRON ORBITALS
 =================

  Orbital  Occupation    Energy    Cen Mu Typ  Coefficients
    1.1     2.00000   -10.80717     1  1  s    1.00022
    2.1     2.00000    -3.75339     1  1  d1-  0.99977
    3.1     2.00000    -3.75339     1  1  d1+  0.99980
    4.1     2.00000    -3.75339     1  1  d2- -0.56766    1  1  d2+  0.82327
    5.1     2.00000    -3.75339     1  1  d2-  0.82324    1  1  d2+  0.56767
    6.1     2.00000    -3.75339     1  1  d0   1.00001
    7.1     2.00000    -1.18772     1  1  s   -0.41318    1  4  s    0.53232    1  5  s    0.59750    1  9  s   -0.26594
    1.2     2.00000    -8.48548     1  1  px   1.00005
    2.2     2.00000    -8.48548     1  1  py   1.00005
    3.2     2.00000    -8.48548     1  1  pz   1.00005
    4.2     2.00000    -0.52324     1  2  px   1.00344
    5.2     2.00000    -0.52324     1  2  py   1.00344
    6.2     2.00000    -0.52324     1  2  pz   1.00344


 HOMO      6.2    -0.523239 =     -14.2381eV
 LUMO      8.1     0.023544 =       0.6407eV
 LUMO-HOMO         0.546783 =      14.8787eV

 Orbitals saved in record  2100.2


 **********************************************************************************************************************************
 DATASETS  * FILE   NREC   LENGTH (MB)   RECORD NAMES
              1      19       29.49       500      610      700      900      950      970     1000      129      960     1100   
                                          VAR    BASINP    GEOM    SYMINP    ZMAT    AOBASIS   BASIS     P2S    ABASIS      S 
                                         1400     1410     1420     1200     1210     1080     1700     1600     1650   
                                           T        V       ECP      H0       H01     AOSYM    OPER      SMH    MOLCAS    

              2       4        0.66       700     1000      520     2100   
                                         GEOM     BASIS   MCVARS     RHF  

 PROGRAMS   *        TOTAL   RHF-SCF       INT
 CPU TIMES  *         2.72      0.18      2.36
 REAL TIME  *         4.39 SEC
 DISK USED  *        31.02 MB (local),      692.28 MB (total)
 GA USED    *         0.00 MB       (max)       0.00 MB       (current)
 **********************************************************************************************************************************

 PROGRAM * MULTI (Direct Multiconfiguration SCF)       Authors: P.J. Knowles, H.-J. Werner (1984)
                                                                D.A. Kreplin, P.J. Knowles, H.-J. Werner (2019)

 Number of closed-shell orbitals:   9 (    6    3)
 Number of active  orbitals:        7 (    1    6)
 Number of external orbitals:     166 (   85   81)

 State symmetry 1

 Number of active electrons:   8    Spin symmetry=Singlet   Space symmetry=1
 Number of states:            10
 Number of CSFs:             280   (625 determinants, 1225 intermediate states)

 State symmetry 2

 Number of active electrons:   8    Spin symmetry=Triplet   Space symmetry=1
 Number of states:             9
 Number of CSFs:             294   (345 determinants, 735 intermediate states)

 Molecular orbitals read from record     2100.2  Type=RHF/CANONICAL  
 *** IN SYMMETRY 1 ORBITAL  2 SYMMETRY CONTAMINATION OF 0.282D-01 HAS BEEN REMOVED
 *** IN SYMMETRY 1 ORBITAL  3 SYMMETRY CONTAMINATION OF 0.209D-01 HAS BEEN REMOVED
 *** IN SYMMETRY 1 ORBITAL  4 SYMMETRY CONTAMINATION OF 0.410D+00 HAS BEEN REMOVED
 *** IN SYMMETRY 1 ORBITAL  5 SYMMETRY CONTAMINATION OF 0.411D+00 HAS BEEN REMOVED
 *** IN SYMMETRY 1 ORBITAL  6 SYMMETRY CONTAMINATION OF 0.208D-03 HAS BEEN REMOVED

 EXTRA SYMMETRY OF MOS IN SYMMETRY 1:   1 6 4 5 3 2 1 1 2 3   5 4 6 1 3 5 2 6 4 1   3 5 4 6 2 2 3 5 4 6  1514131012 8 711 9 1
                                        5 3 4 6 2 710131514  12 8 911 1 5 3 2 4 6  1514 711 912 81310 1   5 3 2 4 6 11514 812
                                        7 9111310 3 5 4 6 2   1 1
 *** IN SYMMETRY 2 ORBITAL  2 SYMMETRY CONTAMINATION OF 0.175D-02 HAS BEEN REMOVED
 *** IN SYMMETRY 2 ORBITAL  3 SYMMETRY CONTAMINATION OF 0.175D-02 HAS BEEN REMOVED
 *** IN SYMMETRY 2 ORBITAL  4 SYMMETRY CONTAMINATION OF 0.103D-04 HAS BEEN REMOVED
 *** IN SYMMETRY 2 ORBITAL  5 SYMMETRY CONTAMINATION OF 0.330D-03 HAS BEEN REMOVED
 *** IN SYMMETRY 2 ORBITAL  6 SYMMETRY CONTAMINATION OF 0.328D-03 HAS BEEN REMOVED
 *** IN SYMMETRY 2 ORBITAL  8 SYMMETRY CONTAMINATION OF 0.279D-04 HAS BEEN REMOVED
 *** IN SYMMETRY 2 ORBITAL  9 SYMMETRY CONTAMINATION OF 0.279D-04 HAS BEEN REMOVED
 EXTRA SYMMETRY OF MOS IN SYMMETRY 2:   1 2 3 1 2 3 1 2 3 1   2 3 6 7 9 5 4 810 2   1 3 5 4 6 7 910 8 2   1 3 6 4 5 7 9 810 1
                                        2 3 4 5 7 9 610 8 9   7 4 5 610 8 1 2 315  17121120181416132119  10 8 9 7 4 5 6 1 2 3
                                        9 710 8 6 5 4 1 2 3

 Wavefunction dump at record             2140.2

 Convergence thresholds  0.10E-04 (gradient)  0.10E-05 (energy)

 Weight factors for state symmetry  1:    0.05263   0.05263   0.05263   0.05263   0.05263   0.05263   0.05263   0.05263
                                          0.05263   0.05263
 Weight factors for state symmetry  2:    0.05263   0.05263   0.05263   0.05263   0.05263   0.05263   0.05263   0.05263
                                          0.05263
 
 Number of orbital rotations:  1348  ( 24 closed/active, 753 closed/virtual, 0 active/active, 571 active/virtual )
 Total number of variables:    10703
 
 Second-order MCSCF: L-BFGS accelerated
 
 ITER  MIC  NCI  NEG     ENERGY(VAR)    ENERGY(PROJ) ENERGY CHANGE       GRAD(0)  GRAD(ORB)   GRAD(CI)      STEP      TIME
   1    9   25    0   -461.77014733    -461.83395634   -0.06380902    0.30529634 0.00056147 0.00094877  0.88E+00      3.09
   2    9   28    0   -461.81230248    -461.81936985   -0.00706737    0.29613064 0.00001410 0.00001513  0.14E+00      7.44
   3    7   18    0   -461.81940716    -461.81940793   -0.00000077    0.00253717 0.00000002 0.00000004  0.19E-02     10.29
   4   22   44    0   -461.81940793    -461.81940793   -0.00000000    0.00000039 0.00000001 0.00000000  0.49E-06     16.53

 CONVERGENCE REACHED!  Final gradient:    0.00000003 ( 0.33E-07)
                       Final energy:   -461.81940793
 
 Results for state 1.1 Singlet
 =============================
 !MCSCF STATE 1.1 Singlet Energy              -462.172415485710
 Nuclear energy                                  0.00000000
 Kinetic energy                                330.42482997
 One electron energy                          -811.68222026
 Two electron energy                           349.50980477
 Virial ratio                                    2.39872181
 
 !MCSCF STATE 1.1 Singlet Dipole moment          0.00000000     0.00000000     0.00000000
 Dipole moment /Debye                            0.00000000     0.00000000     0.00000000
 
 Results for state 2.1 Singlet
 =============================
 !MCSCF STATE 2.1 Singlet Energy              -461.800824278730
 Nuclear energy                                  0.00000000
 Kinetic energy                                328.90257391
 One electron energy                          -801.25577206
 Two electron energy                           339.45494778
 Virial ratio                                    2.40406570
 
 !MCSCF STATE 2.1 Singlet Dipole moment          0.00000000     0.00000000     0.00000000
 Dipole moment /Debye                            0.00000000     0.00000000     0.00000000
 
 Results for state 3.1 Singlet
 =============================
 !MCSCF STATE 3.1 Singlet Energy              -461.800824278718
 Nuclear energy                                  0.00000000
 Kinetic energy                                328.90257391
 One electron energy                          -801.25577206
 Two electron energy                           339.45494778
 Virial ratio                                    2.40406570
 
 !MCSCF STATE 3.1 Singlet Dipole moment          0.00000000     0.00000000     0.00000000
 Dipole moment /Debye                            0.00000000     0.00000000     0.00000000
 
 Results for state 4.1 Singlet
 =============================
 !MCSCF STATE 4.1 Singlet Energy              -461.800824278682
 Nuclear energy                                  0.00000000
 Kinetic energy                                328.90257391
 One electron energy                          -801.25577206
 Two electron energy                           339.45494778
 Virial ratio                                    2.40406570
 
 !MCSCF STATE 4.1 Singlet Dipole moment          0.00000000     0.00000000     0.00000000
 Dipole moment /Debye                            0.00000000     0.00000000     0.00000000
 
 Results for state 5.1 Singlet
 =============================
 !MCSCF STATE 5.1 Singlet Energy              -461.800824278665
 Nuclear energy                                  0.00000000
 Kinetic energy                                328.90257391
 One electron energy                          -801.25577205
 Two electron energy                           339.45494777
 Virial ratio                                    2.40406570
 
 !MCSCF STATE 5.1 Singlet Dipole moment          0.00000000     0.00000000     0.00000000
 Dipole moment /Debye                            0.00000000     0.00000000     0.00000000
 
 Results for state 6.1 Singlet
 =============================
 !MCSCF STATE 6.1 Singlet Energy              -461.800824278662
 Nuclear energy                                  0.00000000
 Kinetic energy                                328.90257391
 One electron energy                          -801.25577205
 Two electron energy                           339.45494777
 Virial ratio                                    2.40406570
 
 !MCSCF STATE 6.1 Singlet Dipole moment          0.00000000     0.00000000     0.00000000
 Dipole moment /Debye                            0.00000000     0.00000000     0.00000000
 
 Results for state 7.1 Singlet
 =============================
 !MCSCF STATE 7.1 Singlet Energy              -461.797918266927
 Nuclear energy                                  0.00000000
 Kinetic energy                                328.89947477
 One electron energy                          -801.24664874
 Two electron energy                           339.44873047
 Virial ratio                                    2.40407010
 
 !MCSCF STATE 7.1 Singlet Dipole moment          0.00000000     0.00000000     0.00000000
 Dipole moment /Debye                            0.00000000     0.00000000     0.00000000
 
 Results for state 8.1 Singlet
 =============================
 !MCSCF STATE 8.1 Singlet Energy              -461.797918266899
 Nuclear energy                                  0.00000000
 Kinetic energy                                328.89947477
 One electron energy                          -801.24664873
 Two electron energy                           339.44873047
 Virial ratio                                    2.40407010
 
 !MCSCF STATE 8.1 Singlet Dipole moment          0.00000000     0.00000000     0.00000000
 Dipole moment /Debye                            0.00000000     0.00000000     0.00000000
 
 Results for state 9.1 Singlet
 =============================
 !MCSCF STATE 9.1 Singlet Energy              -461.797918266895
 Nuclear energy                                  0.00000000
 Kinetic energy                                328.89947477
 One electron energy                          -801.24664872
 Two electron energy                           339.44873046
 Virial ratio                                    2.40407010
 
 !MCSCF STATE 9.1 Singlet Dipole moment          0.00000000     0.00000000     0.00000000
 Dipole moment /Debye                            0.00000000     0.00000000     0.00000000
 
 Results for state 10.1 Singlet
 ==============================
 !MCSCF STATE 10.1 Singlet Energy             -461.784137856644
 Nuclear energy                                  0.00000000
 Kinetic energy                                329.14574461
 One electron energy                          -802.17113003
 Two electron energy                           340.38699217
 Virial ratio                                    2.40297769
 
 !MCSCF STATE 10.1 Singlet Dipole moment         0.00000000     0.00000000     0.00000000
 Dipole moment /Debye                            0.00000000     0.00000000     0.00000000
 
 Results for state 1.1 Triplet
 =============================
 !MCSCF STATE 1.1 Triplet Energy              -461.808823123785
 Nuclear energy                                  0.00000000
 Kinetic energy                                328.88658059
 One electron energy                          -801.20455297
 Two electron energy                           339.39572985
 Virial ratio                                    2.40415830
 
 !MCSCF STATE 1.1 Triplet Dipole moment          0.00000000     0.00000000     0.00000000
 Dipole moment /Debye                            0.00000000     0.00000000     0.00000000
 
 Results for state 2.1 Triplet
 =============================
 !MCSCF STATE 2.1 Triplet Energy              -461.802259658732
 Nuclear energy                                  0.00000000
 Kinetic energy                                328.89457555
 One electron energy                          -801.23083108
 Two electron energy                           339.42857142
 Virial ratio                                    2.40410421
 
 !MCSCF STATE 2.1 Triplet Dipole moment          0.00000000     0.00000000     0.00000000
 Dipole moment /Debye                            0.00000000     0.00000000     0.00000000
 
 Results for state 3.1 Triplet
 =============================
 !MCSCF STATE 3.1 Triplet Energy              -461.802259658717
 Nuclear energy                                  0.00000000
 Kinetic energy                                328.89457554
 One electron energy                          -801.23083107
 Two electron energy                           339.42857141
 Virial ratio                                    2.40410421
 
 !MCSCF STATE 3.1 Triplet Dipole moment          0.00000000     0.00000000     0.00000000
 Dipole moment /Debye                            0.00000000     0.00000000     0.00000000
 
 Results for state 4.1 Triplet
 =============================
 !MCSCF STATE 4.1 Triplet Energy              -461.802259658667
 Nuclear energy                                  0.00000000
 Kinetic energy                                328.89457554
 One electron energy                          -801.23083107
 Two electron energy                           339.42857141
 Virial ratio                                    2.40410421
 
 !MCSCF STATE 4.1 Triplet Dipole moment          0.00000000     0.00000000     0.00000000
 Dipole moment /Debye                            0.00000000     0.00000000     0.00000000
 
 Results for state 5.1 Triplet
 =============================
 !MCSCF STATE 5.1 Triplet Energy              -461.802259658621
 Nuclear energy                                  0.00000000
 Kinetic energy                                328.89457554
 One electron energy                          -801.23083106
 Two electron energy                           339.42857140
 Virial ratio                                    2.40410421
 
 !MCSCF STATE 5.1 Triplet Dipole moment          0.00000000     0.00000000     0.00000000
 Dipole moment /Debye                            0.00000000     0.00000000     0.00000000
 
 Results for state 6.1 Triplet
 =============================
 !MCSCF STATE 6.1 Triplet Energy              -461.802259658621
 Nuclear energy                                  0.00000000
 Kinetic energy                                328.89457554
 One electron energy                          -801.23083106
 Two electron energy                           339.42857140
 Virial ratio                                    2.40410421
 
 !MCSCF STATE 6.1 Triplet Dipole moment          0.00000000     0.00000000     0.00000000
 Dipole moment /Debye                            0.00000000     0.00000000     0.00000000
 
 Results for state 7.1 Triplet
 =============================
 !MCSCF STATE 7.1 Triplet Energy              -461.798066542357
 Nuclear energy                                  0.00000000
 Kinetic energy                                328.89792127
 One electron energy                          -801.24089295
 Two electron energy                           339.44282641
 Virial ratio                                    2.40407718
 
 !MCSCF STATE 7.1 Triplet Dipole moment          0.00000000     0.00000000     0.00000000
 Dipole moment /Debye                            0.00000000     0.00000000     0.00000000
 
 Results for state 8.1 Triplet
 =============================
 !MCSCF STATE 8.1 Triplet Energy              -461.798066542328
 Nuclear energy                                  0.00000000
 Kinetic energy                                328.89792127
 One electron energy                          -801.24089295
 Two electron energy                           339.44282641
 Virial ratio                                    2.40407718
 
 !MCSCF STATE 8.1 Triplet Dipole moment          0.00000000     0.00000000     0.00000000
 Dipole moment /Debye                            0.00000000     0.00000000     0.00000000
 
 Results for state 9.1 Triplet
 =============================
 !MCSCF STATE 9.1 Triplet Energy              -461.798066542321
 Nuclear energy                                  0.00000000
 Kinetic energy                                328.89792127
 One electron energy                          -801.24089294
 Two electron energy                           339.44282639
 Virial ratio                                    2.40407718
 
 !MCSCF STATE 9.1 Triplet Dipole moment          0.00000000     0.00000000     0.00000000
 Dipole moment /Debye                            0.00000000     0.00000000     0.00000000
 
 State-averaged charge density matrix saved on record 2140.2 (density set 1)
 
 No non-zero expectation values
 
 Expectation values for two-electron operators:
 
 ? Warning
 ? Transition properties are only calculated between states of the same symmetry
 ? The problem occurs in mu_properties_expec2

 !MCSCF expec      <1.1 Singlet|LXLX|1.1 Singlet>     0.000000000001
 !MCSCF expec      <2.1 Singlet|LXLX|2.1 Singlet>     3.866736346801
 !MCSCF expec      <3.1 Singlet|LXLX|3.1 Singlet>     3.999999155334
 !MCSCF expec      <4.1 Singlet|LXLX|4.1 Singlet>     1.000000023230
 !MCSCF expec      <5.1 Singlet|LXLX|5.1 Singlet>     0.133263653830
 !MCSCF expec      <6.1 Singlet|LXLX|6.1 Singlet>     1.000000820759
 !MCSCF expec      <7.1 Singlet|LXLX|7.1 Singlet>     0.000000829742
 !MCSCF expec      <8.1 Singlet|LXLX|8.1 Singlet>     0.999999828644
 !MCSCF expec      <9.1 Singlet|LXLX|9.1 Singlet>     0.999999341614
 !MCSCF expec    <10.1 Singlet|LXLX|10.1 Singlet>     0.000000000004
 !MCSCF expec      <1.1 Triplet|LXLX|1.1 Triplet>     0.000000000005
 !MCSCF expec      <2.1 Triplet|LXLX|2.1 Triplet>     3.753531825597
 !MCSCF expec      <3.1 Triplet|LXLX|3.1 Triplet>     3.999999977434
 !MCSCF expec      <4.1 Triplet|LXLX|4.1 Triplet>     0.999999999996
 !MCSCF expec      <5.1 Triplet|LXLX|5.1 Triplet>     0.999999976929
 !MCSCF expec      <6.1 Triplet|LXLX|6.1 Triplet>     0.246468146530
 !MCSCF expec      <7.1 Triplet|LXLX|7.1 Triplet>     0.000000095001
 !MCSCF expec      <8.1 Triplet|LXLX|8.1 Triplet>     0.999999832788
 !MCSCF expec      <9.1 Triplet|LXLX|9.1 Triplet>     0.999999986465
 
 !MCSCF expec      <1.1 Singlet|LYLY|1.1 Singlet>     0.000000000001
 !MCSCF expec      <2.1 Singlet|LYLY|2.1 Singlet>     0.444963460068
 !MCSCF expec      <3.1 Singlet|LYLY|3.1 Singlet>     1.000000820782
 !MCSCF expec      <4.1 Singlet|LYLY|4.1 Singlet>     1.000000840093
 !MCSCF expec      <5.1 Singlet|LYLY|5.1 Singlet>     3.555036536169
 !MCSCF expec      <6.1 Singlet|LYLY|6.1 Singlet>     3.999998342843
 !MCSCF expec      <7.1 Singlet|LYLY|7.1 Singlet>     0.999999342689
 !MCSCF expec      <8.1 Singlet|LYLY|8.1 Singlet>     0.999997447382
 !MCSCF expec      <9.1 Singlet|LYLY|9.1 Singlet>     0.000003209929
 !MCSCF expec    <10.1 Singlet|LYLY|10.1 Singlet>     0.000000000004
 !MCSCF expec      <1.1 Triplet|LYLY|1.1 Triplet>     0.000000000005
 !MCSCF expec      <2.1 Triplet|LYLY|2.1 Triplet>     0.290260736830
 !MCSCF expec      <3.1 Triplet|LYLY|3.1 Triplet>     1.000000015711
 !MCSCF expec      <4.1 Triplet|LYLY|4.1 Triplet>     1.000000005500
 !MCSCF expec      <5.1 Triplet|LYLY|5.1 Triplet>     3.999999900409
 !MCSCF expec      <6.1 Triplet|LYLY|6.1 Triplet>     3.709739233100
 !MCSCF expec      <7.1 Triplet|LYLY|7.1 Triplet>     0.999999984097
 !MCSCF expec      <8.1 Triplet|LYLY|8.1 Triplet>     0.999964386172
 !MCSCF expec      <9.1 Triplet|LYLY|9.1 Triplet>     0.000021933736
 
 !MCSCF expec      <1.1 Singlet|LZLZ|1.1 Singlet>     0.000000000001
 !MCSCF expec      <2.1 Singlet|LZLZ|2.1 Singlet>     1.688300193103
 !MCSCF expec      <3.1 Singlet|LZLZ|3.1 Singlet>     1.000000023857
 !MCSCF expec      <4.1 Singlet|LZLZ|4.1 Singlet>     3.999999136649
 !MCSCF expec      <5.1 Singlet|LZLZ|5.1 Singlet>     2.311699809974
 !MCSCF expec      <6.1 Singlet|LZLZ|6.1 Singlet>     1.000000836370
 !MCSCF expec      <7.1 Singlet|LZLZ|7.1 Singlet>     0.999999827569
 !MCSCF expec      <8.1 Singlet|LZLZ|8.1 Singlet>     0.000002723975
 !MCSCF expec      <9.1 Singlet|LZLZ|9.1 Singlet>     0.999997448456
 !MCSCF expec    <10.1 Singlet|LZLZ|10.1 Singlet>     0.000000000004
 !MCSCF expec      <1.1 Triplet|LZLZ|1.1 Triplet>     0.000000000005
 !MCSCF expec      <2.1 Triplet|LZLZ|2.1 Triplet>     1.956207437545
 !MCSCF expec      <3.1 Triplet|LZLZ|3.1 Triplet>     1.000000006827
 !MCSCF expec      <4.1 Triplet|LZLZ|4.1 Triplet>     3.999999994476
 !MCSCF expec      <5.1 Triplet|LZLZ|5.1 Triplet>     1.000000122634
 !MCSCF expec      <6.1 Triplet|LZLZ|6.1 Triplet>     2.043792620342
 !MCSCF expec      <7.1 Triplet|LZLZ|7.1 Triplet>     0.999999920902
 !MCSCF expec      <8.1 Triplet|LZLZ|8.1 Triplet>     0.000035781041
 !MCSCF expec      <9.1 Triplet|LZLZ|9.1 Triplet>     0.999978079799
 
 !MCSCF expec      <1.1 Singlet|L**2|1.1 Singlet>     0.000000000003
 !MCSCF expec      <2.1 Singlet|L**2|2.1 Singlet>     5.999999999972
 !MCSCF expec      <3.1 Singlet|L**2|3.1 Singlet>     5.999999999972
 !MCSCF expec      <4.1 Singlet|L**2|4.1 Singlet>     5.999999999972
 !MCSCF expec      <5.1 Singlet|L**2|5.1 Singlet>     5.999999999972
 !MCSCF expec      <6.1 Singlet|L**2|6.1 Singlet>     5.999999999972
 !MCSCF expec      <7.1 Singlet|L**2|7.1 Singlet>     2.000000000000
 !MCSCF expec      <8.1 Singlet|L**2|8.1 Singlet>     2.000000000000
 !MCSCF expec      <9.1 Singlet|L**2|9.1 Singlet>     2.000000000000
 !MCSCF expec    <10.1 Singlet|L**2|10.1 Singlet>     0.000000000011
 !MCSCF expec      <1.1 Triplet|L**2|1.1 Triplet>     0.000000000014
 !MCSCF expec      <2.1 Triplet|L**2|2.1 Triplet>     5.999999999972
 !MCSCF expec      <3.1 Triplet|L**2|3.1 Triplet>     5.999999999972
 !MCSCF expec      <4.1 Triplet|L**2|4.1 Triplet>     5.999999999972
 !MCSCF expec      <5.1 Triplet|L**2|5.1 Triplet>     5.999999999972
 !MCSCF expec      <6.1 Triplet|L**2|6.1 Triplet>     5.999999999972
 !MCSCF expec      <7.1 Triplet|L**2|7.1 Triplet>     2.000000000000
 !MCSCF expec      <8.1 Triplet|L**2|8.1 Triplet>     2.000000000000
 !MCSCF expec      <9.1 Triplet|L**2|9.1 Triplet>     2.000000000000
 
 EXTRA SYMMETRY OF MOS IN SYMMETRY 1:   1 4 2 6 3 5 1 1 2 4   6 3 5 1 3 5 6 2 4 1   4 2 6 5 3 2 4 6 3 5   9 7 8121114151310 1
                                        4 2 6 3 5 9 7 81211  14151310 1 2 4 6 3 5   9 7 8121114151310 1   2 4 6 3 5 1 9 7 812
                                       1114151310 4 2 6 3 5   1 1
 EXTRA SYMMETRY OF MOS IN SYMMETRY 2:   3 1 2 2 1 3 3 1 2 2   1 3 9 7 810 5 6 4 2   1 3 4 6 5 810 9 7 3   1 2 4 6 5 810 9 7 1
                                        3 2 4 6 5 810 9 7 4   6 5 810 9 7 3 1 211  19211312141615172018   4 6 5 810 9 7 3 1 2
                                        4 6 510 8 9 7 1 2 3
 
  NATURAL ORBITALS (STATE AVERAGED)
  =================================

  Orbital  Occupation    Energy    Cen Mu Typ  Coefficients
    1.1     2.00000   -11.08536     1  1  s    1.00448
    2.1     2.00000    -4.03176     1  1  d1+  1.00039
    3.1     2.00000    -4.03176     1  1  d0   1.00039
    4.1     2.00000    -4.03176     1  1  d1-  1.00039
    5.1     2.00000    -4.03176     1  1  d2-  1.00039
    6.1     2.00000    -4.03176     1  1  d2+  1.00039
    7.1     1.99995    -1.41387     1  1  s   -0.41494    1  4  s    0.57826    1  5  s    0.61522    1  9  s   -0.27127
    1.2     2.00000    -8.76332     1  1  pz   1.00027
    2.2     2.00000    -8.76332     1  1  px   1.00027
    3.2     2.00000    -8.76332     1  1  py   1.00027
    4.2     1.68417    -0.68527     1  2  py   1.07037
    5.2     1.68417    -0.68527     1  2  px   1.07037
    6.2     1.68417    -0.68527     1  2  pz   1.07037
    7.2     0.31585     0.00516     1  9  pz   0.55605    1 10  pz   0.59068
    8.2     0.31585     0.00516     1  9  px   0.55605    1 10  px   0.59068
    9.2     0.31584     0.00516     1  9  py   0.55605    1 10  py   0.59068
 
 Natural orbital dump (state averaged) at molpro section 2140.2 (Orbital set 2)
 
 Transform the CI vectors
 
 CI Coefficients of symmetry 1 (Singlet)
 =======================================

 State:              1               2               3               4               5               6               7
 2 222000       0.98865835      0.00000001     -0.00000000     -0.00000000      0.00000000     -0.00000000      0.00000000
 2 2a20b0       0.06118870     -0.10537054     -0.00000117     -0.00001996      0.56759116     -0.00000253     -0.00000000
 2 2b20a0      -0.06118870      0.10537054      0.00000117      0.00001996     -0.56759116      0.00000253      0.00000000
 2 a2200b       0.06118870      0.54423363     -0.00000077      0.00000413     -0.19254201     -0.00000252     -0.00000000
 2 b2200a      -0.06118870     -0.54423363      0.00000077     -0.00000413      0.19254201      0.00000252      0.00000000
 2 22a00b       0.00000000      0.00000114      0.49994693     -0.00004473      0.00000124      0.00026148      0.49997763
 2 22b00a      -0.00000000     -0.00000114     -0.49994693      0.00004473     -0.00000124     -0.00026148     -0.49997763
 2 a22b00      -0.00000000      0.00000114      0.49994694     -0.00004473      0.00000124      0.00026148     -0.49997763
 2 b22a00       0.00000000     -0.00000114     -0.49994694      0.00004473     -0.00000124     -0.00026148      0.49997763
 2 2a200b       0.00000000      0.00000260      0.00004460      0.49994693      0.00001807      0.00026399      0.00020761
 2 2b200a      -0.00000000     -0.00000260     -0.00004460     -0.49994693     -0.00001807     -0.00026399     -0.00020761
 2 a220b0       0.00000000      0.00000260      0.00004460      0.49994694      0.00001807      0.00026399     -0.00020761
 2 b220a0      -0.00000000     -0.00000260     -0.00004460     -0.49994694     -0.00001807     -0.00026399      0.00020761
 2 2a2b00       0.00000000      0.00000332     -0.00026150     -0.00026396      0.00000283      0.49994686      0.00040535
 2 2b2a00      -0.00000000     -0.00000332      0.00026150      0.00026396     -0.00000283     -0.49994686     -0.00040535
 2 22a0b0      -0.00000000      0.00000332     -0.00026150     -0.00026396      0.00000283      0.49994687     -0.00040535
 2 22b0a0       0.00000000     -0.00000332      0.00026150      0.00026396     -0.00000283     -0.49994687      0.00040535
 2 22ab00       0.06118870     -0.43886310      0.00000194      0.00001583     -0.37504914      0.00000505      0.00000000
 2 22ba00      -0.06118870      0.43886310     -0.00000194     -0.00001583      0.37504914     -0.00000505     -0.00000000
 
 Energy:     -462.17241549   -461.80082428   -461.80082428   -461.80082428   -461.80082428   -461.80082428   -461.79791827

 State:              8               9              10
 2 222000      -0.00000000      0.00000000     -0.14988477
 2 2a20b0      -0.00000000     -0.00000000      0.40354926
 2 2b20a0       0.00000000      0.00000000     -0.40354926
 2 a2200b       0.00000000     -0.00000000      0.40354927
 2 b2200a      -0.00000000      0.00000000     -0.40354927
 2 22a00b      -0.00020696      0.00040569      0.00000000
 2 22b00a       0.00020696     -0.00040569     -0.00000000
 2 a22b00       0.00020696     -0.00040569     -0.00000000
 2 b22a00      -0.00020696      0.00040569      0.00000000
 2 2a200b       0.49997716     -0.00079864     -0.00000000
 2 2b200a      -0.49997716      0.00079864      0.00000000
 2 a220b0      -0.49997715      0.00079864     -0.00000000
 2 b220a0       0.49997715     -0.00079864      0.00000000
 2 2a2b00      -0.00079881     -0.49997704     -0.00000000
 2 2b2a00       0.00079881      0.49997704      0.00000000
 2 22a0b0       0.00079881      0.49997703      0.00000000
 2 22b0a0      -0.00079881     -0.49997703     -0.00000000
 2 22ab00      -0.00000000      0.00000000      0.40354927
 2 22ba00       0.00000000     -0.00000000     -0.40354927
 
 Energy:     -461.79791827   -461.79791827   -461.78413786
 
 
 CI Coefficients of symmetry 1 (Triplet)
 =======================================

 State:              1               2               3               4               5               6               7
 2 2a20a0       0.57731932     -0.20267061     -0.00000017      0.00000061     -0.00015493      0.79091603      0.00000000
 2 a2200a       0.57731934      0.78628867      0.00000002     -0.00000017      0.00004307     -0.21994012     -0.00000000
 2 a220a0      -0.00000000     -0.00000000     -0.00003368      0.70708391     -0.00003028     -0.00000055     -0.00019885
 2 22a00a       0.00000000      0.00000003      0.70708391      0.00003367     -0.00005121      0.00000015     -0.70704936
 2 a22a00      -0.00000000      0.00000003      0.70708391      0.00003367     -0.00005121      0.00000015      0.70704936
 2 2a200a      -0.00000000     -0.00000000     -0.00003368      0.70708391     -0.00003028     -0.00000055      0.00019885
 2 22a0a0      -0.00000000      0.00000002      0.00005120      0.00003028      0.70708390      0.00013851      0.00008915
 2 2a2a00      -0.00000000      0.00000002      0.00005120      0.00003028      0.70708389      0.00013851     -0.00008915
 2 22aa00       0.57731933     -0.58361809      0.00000015     -0.00000044      0.00011186     -0.57097589      0.00000000
 
 Energy:     -461.80882312   -461.80225966   -461.80225966   -461.80225966   -461.80225966   -461.80225966   -461.79806654

 State:              8               9
 2 2a20a0       0.00000000     -0.00000000
 2 a2200a      -0.00000000      0.00000000
 2 a220a0       0.70703677     -0.00421952
 2 22a00a      -0.00019938     -0.00008797
 2 a22a00       0.00019938      0.00008797
 2 2a200a      -0.70703678      0.00421952
 2 22a0a0      -0.00421949     -0.70703680
 2 2a2a00       0.00421949      0.70703681
 2 22aa00      -0.00000000      0.00000000
 
 Energy:     -461.79806654   -461.79806654
 


 **********************************************************************************************************************************
 DATASETS  * FILE   NREC   LENGTH (MB)   RECORD NAMES
              1      21       56.15       500      610      700      900      950      970     1000      129      960     1100   
                                          VAR    BASINP    GEOM    SYMINP    ZMAT    AOBASIS   BASIS     P2S    ABASIS      S 
                                         1400     1410     1420     1200     1210     1080     1700     1600     1650     1380   
                                           T        V       ECP      H0       H01     AOSYM    OPER      SMH    MOLCAS    JKOP   
                                         1700(1)
                                         OPER   

              2       5        1.40       700     1000      520     2100     2140   
                                         GEOM     BASIS   MCVARS     RHF     MCSCF   

 PROGRAMS   *        TOTAL     MULTI   RHF-SCF       INT
 CPU TIMES  *        11.98      9.25      0.18      2.36
 REAL TIME  *        21.69 SEC
 DISK USED  *        57.65 MB (local),        1.04 GB (total)
 SF USED    *        69.96 MB
 GA USED    *         0.00 MB       (max)       0.00 MB       (current)
 **********************************************************************************************************************************

 Energies and &lt;L**2&gt; values

         ENERGY     LL
    -462.1724155   0.0
    -461.8008243   6.0
    -461.8008243   6.0
    -461.8008243   6.0
    -461.8008243   6.0
    -461.8008243   6.0
    -461.7979183   2.0
    -461.7979183   2.0
    -461.7979183   2.0
    -461.7841379   0.0
    -461.8088231   0.0
    -461.8022597   6.0
    -461.8022597   6.0
    -461.8022597   6.0
    -461.8022597   6.0
    -461.8022597   6.0
    -461.7980665   2.0
    -461.7980665   2.0
    -461.7980665   2.0
                                                  


 PROGRAM * CI (Multireference internally contracted CI)     Authors: H.-J. Werner, P.J. Knowles, 1987


 Convergence thresholds:  THRVAR = 1.00D-08  THRDEN = 1.00D-06

 Number of optimized states: 10  Roots:   1   2   3   4   5   6   7   8   9  10
 Number of reference states: 10  Roots:   1   2   3   4   5   6   7   8   9  10

 Reference symmetry:                   1   Singlet 
 Number of electrons:                 26
 Maximum number of shells:             6
 Maximum number of spin couplings:    42

 Reference space:      231 conf      280 CSFs
 N elec internal:     9996 conf    21280 CSFs
 N-1 el internal:    15576 conf    58240 CSFs
 N-2 el internal:    14289 conf    77596 CSFs

 Number of electrons in valence space:                     26
 Maximum number of open shell orbitals in reference space:  6
 Maximum number of open shell orbitals in internal spaces: 10


 Number of closed-shell orbitals:   9 (   6   3 )
 Number of active  orbitals:        7 (   1   6 )
 Number of external orbitals:     166 (  85  81 )

 Molecular orbitals read from record     2140.2  Type=MCSCF/NATURAL (state averaged)

 Valence orbitals related to previous ones by unitary transformation. Operators transformed.


 Number of p-space configurations:  10

 Reference wavefunction optimized for reference space (refopt=1)

 State     Reference Energy 
     1      -462.17241549
     2      -461.80082428
     3      -461.80082428
     4      -461.80082428
     5      -461.80082428
     6      -461.80082428
     7      -461.79791827
     8      -461.79791827
     9      -461.79791827
    10      -461.78413786

 ?WARNING: SMALL EIGENVALUE OF PAIR OVERLAP MATRIX:  0.1279D-06

 ?WARNING: SMALL EIGENVALUE OF PAIR OVERLAP MATRIX:  0.8536D-07

 Number of blocks in overlap matrix:   994   Smallest eigenvalue:  0.85D-07
 Number of N-2 electron functions:    2430
 Number of N-1 electron functions:   58240

 Number of internal configurations:                10822
 Number of singly external configurations:       4832968
 Number of doubly external configurations:      16748922
 Total number of contracted configurations:     21592712
 Total number of uncontracted configurations:  538743966

 Diagonal Coupling coefficients finished.               Storage:  15178577 words, CPU-Time:     30.14 seconds.
 Energy denominators for pairs finished in 1 passes.    Storage:   2174023 words, CPU-time:      1.14 seconds.

  ITER. STATE  ROOT     SQ.NORM     CORR.ENERGY   TOTAL ENERGY   ENERGY CHANGE       DEN1      VAR(S)    VAR(P)      TIME
    1     1     1     1.00000000     0.00000000  -462.17241549    -0.00000000    -1.18277884  0.40D-01  0.67D-01    36.65
    1     2     2     1.00000000     0.00000000  -461.80082428     0.00000000    -1.14837040  0.16D-01  0.70D-01    36.65
    1     3     3     1.00000000     0.00000000  -461.80082428    -0.00000000    -1.13947649  0.16D-01  0.65D-01    36.65
    1     4     4     1.00000000     0.00000000  -461.80082428     0.00000000    -1.13962312  0.16D-01  0.65D-01    36.65
    1     5     5     1.00000000     0.00000000  -461.80082428     0.00000000    -1.14844034  0.16D-01  0.70D-01    36.65
    1     6     6     1.00000000     0.00000000  -461.80082428     0.00000000    -1.13953585  0.16D-01  0.65D-01    36.65
    1     7     7     1.00000000     0.00000000  -461.79791827    -0.00000000    -1.14048998  0.16D-01  0.65D-01    36.65
    1     8     8     1.00000000     0.00000000  -461.79791827     0.00000000    -1.14051705  0.16D-01  0.65D-01    36.65
    1     9     9     1.00000000     0.00000000  -461.79791827     0.00000000    -1.14047115  0.16D-01  0.65D-01    36.65
    1    10    10     1.00000000     0.00000000  -461.78413786     0.00000000    -1.15719872  0.37D-01  0.67D-01    36.65
    2     1     1     1.07993641    -1.02470912  -463.19712460    -1.02470912    -0.03212007  0.82D-02  0.13D-02   677.86
    2     2     2     1.06283669    -1.00502795  -462.80585223    -1.00502795    -0.01609390  0.14D-02  0.81D-03   677.86
    2     3     3     1.06281926    -1.00498844  -462.80581272    -1.00498844    -0.01611627  0.14D-02  0.82D-03   677.86
    2     4     4     1.06280266    -1.00498487  -462.80580915    -1.00498487    -0.01611412  0.14D-02  0.82D-03   677.86
    2     5     5     1.06554904    -1.00414871  -462.80497299    -1.00414871    -0.01699304  0.14D-02  0.10D-02   677.86
    2     6     6     1.06560248    -1.00402918  -462.80485346    -1.00402918    -0.01707872  0.14D-02  0.10D-02   677.86
    2     7     7     1.06295370    -1.00536416  -462.80328243    -1.00536416    -0.01603560  0.13D-02  0.84D-03   677.86
    2     8     8     1.06294683    -1.00530641  -462.80322468    -1.00530641    -0.01607476  0.13D-02  0.84D-03   677.86
    2     9     9     1.06294798    -1.00528286  -462.80320113    -1.00528286    -0.01609007  0.13D-02  0.85D-03   677.86
    2    10    10     1.07599834    -0.99933605  -462.78347390    -0.99933605    -0.02686275  0.81D-02  0.90D-03   677.86
    3     1     1     1.06647159    -1.05769608  -463.23011156    -0.03298696    -0.00105703  0.43D-04  0.11D-03  1319.21
    3     2     2     1.06041408    -1.02064227  -462.82146655    -0.01561432    -0.00047386  0.15D-04  0.59D-04  1319.21
    3     3     3     1.06039661    -1.02063476  -462.82145904    -0.01564632    -0.00047841  0.15D-04  0.59D-04  1319.21
    3     4     4     1.06039228    -1.02063249  -462.82145677    -0.01564762    -0.00047969  0.15D-04  0.59D-04  1319.21
    3     5     5     1.06073859    -1.02062391  -462.82144819    -0.01647520    -0.00048348  0.14D-04  0.63D-04  1319.21
    3     6     6     1.06070909    -1.02061087  -462.82143515    -0.01658168    -0.00049203  0.14D-04  0.65D-04  1319.21
    3     7     7     1.06054703    -1.02095446  -462.81887272    -0.01559029    -0.00049490  0.15D-04  0.62D-04  1319.21
    3     8     8     1.06052641    -1.02094544  -462.81886371    -0.01563903    -0.00050045  0.15D-04  0.63D-04  1319.21
    3     9     9     1.06051814    -1.02094215  -462.81886041    -0.01565929    -0.00050254  0.15D-04  0.63D-04  1319.21
    3    10    10     1.06186283    -1.02540653  -462.80954439    -0.02607049    -0.00083707  0.78D-04  0.81D-04  1319.21
    4     1     1     1.06940982    -1.05894236  -463.23135784    -0.00124628    -0.00007089  0.31D-05  0.64D-05  1962.06
    4     2     2     1.06174391    -1.02123665  -462.82206093    -0.00059439    -0.00004569  0.16D-05  0.51D-05  1962.06
    4     3     3     1.06173973    -1.02123574  -462.82206002    -0.00060098    -0.00004630  0.16D-05  0.52D-05  1962.06
    4     4     4     1.06173880    -1.02123538  -462.82205966    -0.00060289    -0.00004651  0.16D-05  0.52D-05  1962.06
    4     5     5     1.06167355    -1.02123306  -462.82205733    -0.00060914    -0.00004877  0.15D-05  0.57D-05  1962.06
    4     6     6     1.06166088    -1.02123189  -462.82205617    -0.00062103    -0.00004970  0.15D-05  0.58D-05  1962.06
    4     7     7     1.06188896    -1.02158402  -462.81950229    -0.00062956    -0.00004985  0.16D-05  0.55D-05  1962.06
    4     8     8     1.06188505    -1.02158313  -462.81950140    -0.00063769    -0.00005054  0.16D-05  0.55D-05  1962.06
    4     9     9     1.06188276    -1.02158276  -462.81950102    -0.00064061    -0.00005078  0.16D-05  0.55D-05  1962.06
    4    10    10     1.06277262    -1.02637054  -462.81050839    -0.00096400    -0.00007089  0.30D-05  0.81D-05  1962.06
    5     1     1     1.07021022    -1.05902640  -463.23144189    -0.00008404    -0.00000533  0.14D-06  0.49D-06  2605.90
    5     2     2     1.06220254    -1.02129557  -462.82211985    -0.00005892    -0.00000473  0.21D-06  0.48D-06  2605.90
    5     3     3     1.06220205    -1.02129542  -462.82211970    -0.00005968    -0.00000479  0.21D-06  0.48D-06  2605.90
    5     4     4     1.06221834    -1.02129514  -462.82211941    -0.00005975    -0.00000483  0.21D-06  0.50D-06  2605.90
    5     5     5     1.06221832    -1.02129501  -462.82211929    -0.00006195    -0.00000490  0.22D-06  0.50D-06  2605.90
    5     6     6     1.06221845    -1.02129493  -462.82211921    -0.00006304    -0.00000494  0.22D-06  0.51D-06  2605.90
    5     7     7     1.06238227    -1.02164744  -462.81956571    -0.00006342    -0.00000503  0.22D-06  0.51D-06  2605.90
    5     8     8     1.06238223    -1.02164737  -462.81956563    -0.00006424    -0.00000509  0.22D-06  0.51D-06  2605.90
    5     9     9     1.06238254    -1.02164730  -462.81956557    -0.00006455    -0.00000512  0.22D-06  0.52D-06  2605.90
    5    10    10     1.06331690    -1.02645969  -462.81059755    -0.00008915    -0.00000827  0.42D-06  0.87D-06  2605.90
    6     1     1     1.07023157    -1.05903257  -463.23144806    -0.00000617    -0.00000046  0.13D-07  0.44D-07  3248.89
    6     2     2     1.06222518    -1.02130134  -462.82212562    -0.00000577    -0.00000057  0.20D-07  0.69D-07  3248.89
    6     3     3     1.06222560    -1.02130127  -462.82212554    -0.00000584    -0.00000058  0.20D-07  0.70D-07  3248.89
    6     4     4     1.06222596    -1.02130125  -462.82212553    -0.00000611    -0.00000065  0.22D-07  0.74D-07  3248.89
    6     5     5     1.06222571    -1.02130120  -462.82212548    -0.00000620    -0.00000066  0.22D-07  0.75D-07  3248.89
    6     6     6     1.06222570    -1.02130119  -462.82212546    -0.00000625    -0.00000067  0.22D-07  0.76D-07  3248.89
    6     7     7     1.06239183    -1.02165369  -462.81957196    -0.00000625    -0.00000063  0.21D-07  0.73D-07  3248.89
    6     8     8     1.06239149    -1.02165368  -462.81957195    -0.00000631    -0.00000064  0.21D-07  0.73D-07  3248.89
[...]
  5  1     5    1  |0 0>          0.00%    0.00%    0.00%    0.00%    0.00%    0.00%    0.00%    0.00%
  6  1     6    1  |0 0>          0.00%    0.00%    0.00%    0.00%    0.00%    0.00%    0.00%    0.00%
  7  1     7    1  |0 0>          0.00%    0.02%    4.85%    0.01%    0.00%    0.00%    0.00%    0.00%
  8  1     8    1  |0 0>          0.00%    0.11%    0.01%    4.76%    0.00%    0.00%    0.00%    0.00%
  9  1     9    1  |0 0>          0.00%    4.75%    0.02%    0.11%    0.00%    0.00%    0.00%    0.00%
 10  1    10    1  |0 0>          0.00%    0.00%    0.00%    0.00%    0.00%    0.00%    0.00%    0.00%
 11  1     1    1  |1 1>+         0.00%   80.54%    0.12%    0.03%    0.00%    0.00%    0.00%    0.00%
 12  1     2    1  |1 1>+         0.00%    0.00%    0.00%    0.00%    0.00%    0.00%   33.84%    0.03%
 13  1     3    1  |1 1>+         0.00%    0.01%    0.00%    0.00%    0.04%    0.00%    0.00%    0.00%
 14  1     4    1  |1 1>+         0.00%    0.00%    0.00%    0.00%   33.30%    0.02%    0.00%    0.00%
 15  1     5    1  |1 1>+         0.00%    0.00%    0.00%    0.01%    0.00%    0.01%    0.04%   37.24%
 16  1     6    1  |1 1>+         0.00%    0.00%    0.01%    0.00%    0.01%   41.08%    0.01%    0.00%
 17  1     7    1  |1 1>+         0.00%    0.00%    0.00%    7.19%    0.00%    0.00%    0.00%    0.00%
 18  1     8    1  |1 1>+         0.01%    0.00%    0.00%    0.00%    0.00%    0.00%    0.00%    0.00%
 19  1     9    1  |1 1>+         0.00%    0.01%    7.18%    0.00%    0.00%    0.00%    0.00%    0.00%
 20  1     1    1  |1 0>          0.00%    0.12%   80.57%    0.00%    0.00%    0.00%    0.00%    0.00%
 21  1     2    1  |1 0>          0.00%    0.00%    0.01%    0.00%    0.00%    0.26%    0.00%    0.06%
 22  1     3    1  |1 0>          0.00%    0.00%    0.00%    0.00%    0.00%   33.04%    0.00%    0.51%
 23  1     4    1  |1 0>          0.00%    0.00%    0.00%    0.01%    0.00%    0.37%    0.06%   28.69%
 24  1     5    1  |1 0>          0.00%    0.00%    0.00%    0.00%   32.66%    0.00%    0.61%    0.00%
 25  1     6    1  |1 0>          0.00%    0.01%    0.00%    0.00%    0.65%    0.01%   40.54%    0.08%
 26  1     7    1  |1 0>          0.01%    0.00%    0.00%    0.00%    0.00%    0.00%    0.00%    0.00%
 27  1     8    1  |1 0>          0.00%    0.00%    0.00%    7.19%    0.00%    0.00%    0.00%    0.00%
 28  1     9    1  |1 0>          0.00%    7.18%    0.01%    0.00%    0.00%    0.00%    0.00%    0.00%
 29  1     1    1  |1 1>-         0.00%    0.03%    0.00%   80.66%    0.00%    0.00%    0.00%    0.00%
 30  1     2    1  |1 1>-         0.00%    0.00%    0.00%    0.01%    0.00%    0.10%    0.00%   11.82%
 31  1     3    1  |1 1>-         0.00%    0.00%    0.00%    0.01%    0.00%    0.43%    0.02%   21.01%
 32  1     4    1  |1 1>-         0.00%    0.00%    0.01%    0.00%    0.01%   24.67%    0.00%    0.55%
 33  1     5    1  |1 1>-         0.00%    0.01%    0.00%    0.00%    0.31%    0.00%   24.49%    0.01%
 34  1     6    1  |1 1>-         0.00%    0.00%    0.00%    0.00%   33.01%    0.01%    0.39%    0.00%
 35  1     7    1  |1 1>-         0.00%    7.18%    0.01%    0.00%    0.00%    0.00%    0.00%    0.00%
 36  1     8    1  |1 1>-         0.00%    0.01%    7.19%    0.00%    0.00%    0.00%    0.00%    0.00%
 37  1     9    1  |1 1>-         0.01%    0.00%    0.00%    0.00%    0.00%    0.00%    0.00%    0.00%

   Total
 Nr Sym  State Sym Spin / Nr.      9       10       11       12       13       14       15       16

  1  1     1    1  |0 0>          0.00%    0.00%    0.00%    0.00%    0.00%    0.00%    0.00%    0.00%
  2  1     2    1  |0 0>          0.00%    0.00%    0.00%    0.01%    0.00%   47.69%    0.01%    0.04%
  3  1     3    1  |0 0>          0.00%    0.00%    0.00%   39.75%    7.72%    0.01%    0.27%    0.01%
  4  1     4    1  |0 0>          0.00%    0.00%    0.00%    0.00%    0.00%    0.04%    0.62%   47.10%
  5  1     5    1  |0 0>          0.00%    0.00%    0.00%    0.25%    0.03%    0.01%   46.86%    0.60%
  6  1     6    1  |0 0>          0.00%    0.00%    0.00%    7.75%   40.00%    0.00%    0.00%    0.00%
  7  1     7    1  |0 0>          0.00%    0.00%    0.00%    0.00%    0.00%    0.00%    0.00%    0.00%
  8  1     8    1  |0 0>          0.00%    0.00%    0.00%    0.00%    0.00%    0.00%    0.00%    0.00%
  9  1     9    1  |0 0>          0.00%    0.00%    0.00%    0.00%    0.00%    0.00%    0.00%    0.00%
 10  1    10    1  |0 0>          0.00%    0.00%    0.00%    0.00%    0.00%    0.00%    0.00%    0.00%
 11  1     1    1  |1 1>+         0.00%    0.00%    0.00%    0.00%    0.00%    0.00%    0.00%    0.00%
 12  1     2    1  |1 1>+         0.65%    0.01%    0.00%    0.01%    0.00%    0.00%    0.32%   31.27%
 13  1     3    1  |1 1>+        58.53%    0.08%    0.00%    0.00%    0.00%    0.00%    0.02%    1.64%
 14  1     4    1  |1 1>+         0.02%    0.00%    0.00%    0.63%   32.43%    0.01%    0.04%    0.00%
 15  1     5    1  |1 1>+         0.03%   12.22%    3.84%    0.03%    0.01%    0.06%    8.06%    0.08%
 16  1     6    1  |1 1>+         0.00%    2.53%    9.76%    0.00%    0.02%    8.15%    0.05%    0.00%
 17  1     7    1  |1 1>+         0.00%    0.00%    0.00%    0.00%    0.00%    0.00%    1.26%    0.01%
 18  1     8    1  |1 1>+         0.00%    0.00%    0.00%    1.67%    0.03%    0.00%    0.00%    0.00%
 19  1     9    1  |1 1>+         0.00%    0.00%    0.00%    0.00%    0.00%    1.28%    0.00%    0.00%
 20  1     1    1  |1 0>          0.00%    0.00%    0.00%    0.00%    0.00%    0.00%    0.00%    0.00%
 21  1     2    1  |1 0>          0.01%    7.75%   49.61%    0.00%    0.00%    2.86%    0.00%    0.00%
 22  1     3    1  |1 0>          0.00%    0.18%    1.78%    0.00%    0.00%   30.35%    0.03%    0.00%
 23  1     4    1  |1 0>          0.00%   21.40%    2.89%    0.02%    0.00%    0.01%    8.06%    0.12%
 24  1     5    1  |1 0>          0.30%    0.00%    0.00%   27.94%    4.56%    0.01%    0.17%    0.15%
 25  1     6    1  |1 0>         11.87%    0.00%    0.00%    0.43%    0.06%    0.00%    0.09%    7.93%
 26  1     7    1  |1 0>          0.00%    0.00%    0.00%    0.24%    1.47%    0.00%    0.00%    0.00%
 27  1     8    1  |1 0>          0.00%    0.00%    0.00%    0.00%    0.00%    0.00%    1.26%    0.01%
 28  1     9    1  |1 0>          0.00%    0.00%    0.00%    0.00%    0.00%    0.00%    0.01%    1.27%
 29  1     1    1  |1 1>-         0.00%    0.00%    0.00%    0.00%    0.00%    0.00%    0.00%    0.00%
 30  1     2    1  |1 1>-         0.03%   31.14%    4.47%    0.06%    0.01%    0.02%   15.18%    0.17%
 31  1     3    1  |1 1>-         0.04%   20.57%    3.57%    0.06%    0.01%    0.02%   17.53%    0.19%
 32  1     4    1  |1 1>-         0.00%    4.09%   24.07%    0.01%    0.00%    8.20%    0.01%    0.00%
 33  1     5    1  |1 1>-        28.31%    0.02%    0.00%    0.21%    0.16%    0.00%    0.11%    8.06%
 34  1     6    1  |1 1>-         0.20%    0.00%    0.01%   20.28%   12.40%    0.00%    0.02%    0.07%
 35  1     7    1  |1 1>-         0.00%    0.00%    0.00%    0.00%    0.00%    0.00%    0.01%    1.27%
 36  1     8    1  |1 1>-         0.00%    0.00%    0.00%    0.00%    0.00%    1.28%    0.00%    0.00%
 37  1     9    1  |1 1>-         0.00%    0.00%    0.00%    0.64%    1.06%    0.00%    0.01%    0.00%

   Total
 Nr Sym  State Sym Spin / Nr.     17       18       19       20       21       22       23       24

  1  1     1    1  |0 0>          0.00%    0.00%    0.00%    0.00%    0.00%    0.00%    0.00%    0.00%
  2  1     2    1  |0 0>          0.00%    0.00%    0.00%    0.00%    0.00%   13.18%    5.35%    0.00%
  3  1     3    1  |0 0>          0.00%    0.00%    0.00%   14.04%    4.45%    0.00%    0.00%    0.04%
  4  1     4    1  |0 0>          0.00%    0.00%    0.00%    0.00%    0.00%    5.35%   13.18%    0.00%
  5  1     5    1  |0 0>          0.00%    0.00%    0.00%    0.04%    0.00%    0.00%    0.00%   18.48%
  6  1     6    1  |0 0>          0.00%    0.00%    0.00%    4.45%   14.08%    0.00%    0.00%    0.00%
  7  1     7    1  |0 0>          0.34%   52.90%    0.29%    0.00%    0.00%    0.00%    0.00%    0.00%
  8  1     8    1  |0 0>          0.91%    0.37%   52.25%    0.00%    0.00%    0.00%    0.00%    0.00%
  9  1     9    1  |0 0>         52.28%    0.26%    0.99%    0.00%    0.00%    0.00%    0.00%    0.00%
 10  1    10    1  |0 0>          0.00%    0.00%    0.00%    0.00%    0.00%    0.00%    0.00%    0.00%
 11  1     1    1  |1 1>+         0.15%    0.00%    0.00%    0.00%    0.00%    0.00%    0.00%    0.00%
 12  1     2    1  |1 1>+         0.44%    0.00%    0.00%    0.00%    0.00%    1.02%    2.14%    0.00%
 13  1     3    1  |1 1>+         8.26%    0.02%    0.01%    0.00%    0.00%    0.05%    0.11%    0.00%
 14  1     4    1  |1 1>+         0.00%    0.00%    0.00%    2.54%    0.78%    0.00%    0.00%    0.00%
 15  1     5    1  |1 1>+         0.01%    0.05%    6.48%    0.01%    0.00%    0.00%    0.00%    0.82%
 16  1     6    1  |1 1>+         0.02%    6.47%    0.05%    0.00%    0.00%    0.56%    0.27%    0.01%
 17  1     7    1  |1 1>+         0.02%    0.00%   12.24%    0.18%    0.11%    0.01%    0.00%   37.94%
 18  1     8    1  |1 1>+         0.00%    0.00%    0.00%   11.79%   38.81%    0.04%    0.00%    0.35%
 19  1     9    1  |1 1>+         0.03%   12.23%    0.00%    0.01%    0.01%   25.88%   12.33%    0.01%
 20  1     1    1  |1 0>          0.00%    0.15%    0.00%    0.00%    0.00%    0.00%    0.00%    0.00%
 21  1     2    1  |1 0>          0.02%    7.95%    0.01%    0.00%    0.00%    0.19%    0.09%    0.00%
 22  1     3    1  |1 0>          0.00%    0.75%    0.00%    0.00%    0.00%    2.06%    0.98%    0.00%
 23  1     4    1  |1 0>          0.00%    0.01%    6.53%    0.00%    0.00%    0.00%    0.00%    0.82%
 24  1     5    1  |1 0>          0.08%    0.00%    0.00%    2.39%    0.86%    0.01%    0.01%    0.03%
 25  1     6    1  |1 0>          6.44%    0.02%    0.00%    0.03%    0.01%    0.26%    0.56%    0.00%
 26  1     7    1  |1 0>          0.00%    0.00%    0.00%   13.56%   37.41%    0.00%    0.01%    0.00%
 27  1     8    1  |1 0>          0.01%    0.01%   12.23%    0.25%    0.11%    0.03%    0.00%   37.85%
 28  1     9    1  |1 0>         12.21%    0.03%    0.01%    0.02%    0.00%   12.32%   25.90%    0.00%
 29  1     1    1  |1 1>-         0.00%    0.00%    0.15%    0.00%    0.00%    0.00%    0.00%    0.00%
 30  1     2    1  |1 1>-         0.01%    0.00%    4.67%    0.01%    0.01%    0.00%    0.00%    1.53%
 31  1     3    1  |1 1>-         0.01%    0.00%    4.04%    0.01%    0.01%    0.00%    0.00%    1.77%
 32  1     4    1  |1 1>-         0.01%    6.52%    0.01%    0.00%    0.00%    0.56%    0.26%    0.00%
 33  1     5    1  |1 1>-         6.43%    0.01%    0.01%    0.00%    0.04%    0.27%    0.56%    0.00%
 34  1     6    1  |1 1>-         0.08%    0.00%    0.00%    0.00%    3.27%    0.00%    0.01%    0.01%
 35  1     7    1  |1 1>-        12.22%    0.02%    0.02%    0.04%    0.01%   11.95%   26.24%    0.01%
 36  1     8    1  |1 1>-         0.02%   12.23%    0.01%    0.01%    0.00%   26.20%   11.99%    0.04%
 37  1     9    1  |1 1>-         0.00%    0.00%    0.00%   50.63%    0.01%    0.05%    0.01%    0.28%

   Total
 Nr Sym  State Sym Spin / Nr.     25       26       27       28       29       30       31       32

  1  1     1    1  |0 0>          0.01%    0.00%    0.00%    0.00%    0.00%    0.00%    0.00%    0.00%
  2  1     2    1  |0 0>          0.00%    0.00%    0.00%    0.00%    0.01%    0.00%   33.68%    0.03%
  3  1     3    1  |0 0>          0.00%    0.00%    0.00%    0.00%   32.96%    0.48%    0.01%    0.00%
  4  1     4    1  |0 0>          0.00%    0.00%    0.00%    0.00%    0.00%    0.00%    0.03%   33.68%
  5  1     5    1  |0 0>          0.00%    0.00%    0.00%    0.00%    0.26%    0.00%    0.00%    0.01%
  6  1     6    1  |0 0>          0.00%    0.00%    0.00%    0.00%    0.48%   33.23%    0.00%    0.00%
  7  1     7    1  |0 0>          0.00%    0.00%   22.20%    0.32%    0.00%    0.00%    0.00%    0.00%
  8  1     8    1  |0 0>          0.00%    0.69%    0.30%   21.54%    0.00%    0.00%    0.00%    0.00%
  9  1     9    1  |0 0>          0.00%   21.83%    0.03%    0.66%    0.00%    0.00%    0.00%    0.00%
 10  1    10    1  |0 0>         50.84%    0.00%    0.00%    0.00%    0.00%    0.00%    0.00%    0.00%
 11  1     1    1  |1 1>+         0.00%    0.69%    0.00%    0.00%    0.00%    0.00%    0.00%    0.00%
 12  1     2    1  |1 1>+         0.00%    1.50%    0.00%    0.00%    0.00%    0.00%    0.00%   28.68%
 13  1     3    1  |1 1>+         0.00%   28.53%    0.07%    0.00%    0.00%    0.00%    0.00%    1.51%
 14  1     4    1  |1 1>+         0.00%    0.00%    0.01%    0.00%    5.32%   24.86%    0.00%    0.00%
 15  1     5    1  |1 1>+         0.00%    0.00%    0.03%   22.55%    0.02%    0.00%    0.08%    0.01%
 16  1     6    1  |1 1>+         0.00%    0.06%   22.48%    0.03%    0.01%    0.01%    7.47%    0.00%
 17  1     7    1  |1 1>+         0.00%    0.00%    0.00%    0.76%    0.02%    0.00%    0.00%    0.01%
 18  1     8    1  |1 1>+        16.38%    0.00%    0.00%    0.00%   11.48%    2.47%    0.00%    0.00%
 19  1     9    1  |1 1>+         0.00%    0.00%    0.76%    0.00%    0.00%    0.00%   10.48%    0.00%
 20  1     1    1  |1 0>          0.00%    0.00%    0.68%    0.00%    0.00%    0.00%    0.00%    0.00%
 21  1     2    1  |1 0>          0.00%    0.06%   27.28%    0.17%    0.00%    0.00%    2.61%    0.00%
 22  1     3    1  |1 0>          0.00%    0.01%    2.57%    0.02%    0.00%    0.00%   27.61%    0.00%
 23  1     4    1  |1 0>          0.00%    0.01%    0.14%   22.42%    0.01%    0.00%    0.00%    0.00%
 24  1     5    1  |1 0>          0.00%    0.29%    0.00%    0.00%   29.47%    0.24%    0.00%    0.15%
 25  1     6    1  |1 0>          0.00%   22.23%    0.05%    0.01%    0.43%    0.00%    0.00%    7.41%
 26  1     7    1  |1 0>         16.38%    0.00%    0.00%    0.00%    0.11%   13.85%    0.00%    0.00%
 27  1     8    1  |1 0>          0.00%    0.00%    0.00%    0.76%    0.03%    0.00%    0.00%    0.01%
 28  1     9    1  |1 0>          0.01%    0.76%    0.00%    0.00%    0.00%    0.00%    0.00%   10.46%
 29  1     1    1  |1 1>-         0.00%    0.00%    0.00%    0.68%    0.00%    0.00%    0.00%    0.00%
 30  1     2    1  |1 1>-         0.00%    0.00%    0.10%   16.04%    0.04%    0.00%    0.00%    0.01%
 31  1     3    1  |1 1>-         0.00%    0.00%    0.07%   13.89%    0.04%    0.00%    0.00%    0.01%
 32  1     4    1  |1 1>-         0.00%    0.06%   22.38%    0.13%    0.01%    0.01%    7.55%    0.00%
 33  1     5    1  |1 1>-         0.00%   22.24%    0.05%    0.00%    0.10%    0.25%    0.00%    7.49%
 34  1     6    1  |1 1>-         0.00%    0.28%    0.01%    0.00%    9.87%   19.96%    0.01%    0.06%
 35  1     7    1  |1 1>-         0.01%    0.76%    0.00%    0.00%    0.01%    0.00%    0.00%   10.46%
 36  1     8    1  |1 1>-         0.00%    0.00%    0.75%    0.00%    0.00%    0.00%   10.47%    0.00%
 37  1     9    1  |1 1>-        16.38%    0.00%    0.00%    0.00%    9.31%    4.62%    0.00%    0.01%

   Total
 Nr Sym  State Sym Spin / Nr.     33       34       35       36       37

  1  1     1    1  |0 0>          0.00%    0.00%    0.00%    0.00%    0.01%
  2  1     2    1  |0 0>          0.00%    0.00%    0.00%    0.00%    0.00%
  3  1     3    1  |0 0>          0.26%    0.00%    0.00%    0.00%    0.00%
  4  1     4    1  |0 0>          0.01%    0.00%    0.00%    0.00%    0.00%
  5  1     5    1  |0 0>         33.44%    0.00%    0.00%    0.00%    0.00%
  6  1     6    1  |0 0>          0.00%    0.00%    0.00%    0.00%    0.00%
  7  1     7    1  |0 0>          0.00%    0.07%   18.92%    0.07%    0.00%
  8  1     8    1  |0 0>          0.00%    0.40%    0.09%   18.58%    0.00%
  9  1     9    1  |0 0>          0.00%   18.60%    0.05%    0.42%    0.00%
 10  1    10    1  |0 0>          0.00%    0.00%    0.00%    0.00%   49.16%
 11  1     1    1  |1 1>+         0.00%   18.44%    0.02%    0.01%    0.00%
 12  1     2    1  |1 1>+         0.02%    0.06%    0.00%    0.00%    0.00%
 13  1     3    1  |1 1>+         0.00%    1.10%    0.00%    0.00%    0.00%
 14  1     4    1  |1 1>+         0.02%    0.00%    0.00%    0.00%    0.00%
 15  1     5    1  |1 1>+         7.45%    0.00%    0.01%    0.86%    0.00%
 16  1     6    1  |1 1>+         0.07%    0.00%    0.86%    0.01%    0.00%
 17  1     7    1  |1 1>+        10.46%    0.02%    0.00%   29.76%    0.00%
 18  1     8    1  |1 1>+         0.02%    0.00%    0.00%    0.00%   16.94%
 19  1     9    1  |1 1>+         0.00%    0.03%   29.75%    0.00%    0.00%
 20  1     1    1  |1 0>          0.00%    0.02%   18.44%    0.00%    0.00%
 21  1     2    1  |1 0>          0.00%    0.00%    1.06%    0.00%    0.00%
 22  1     3    1  |1 0>          0.00%    0.00%    0.10%    0.00%    0.00%
 23  1     4    1  |1 0>          7.54%    0.00%    0.00%    0.87%    0.00%
 24  1     5    1  |1 0>          0.07%    0.01%    0.00%    0.00%    0.00%
 25  1     6    1  |1 0>          0.00%    0.86%    0.00%    0.00%    0.00%
 26  1     7    1  |1 0>          0.00%    0.01%    0.00%    0.00%   16.94%
 27  1     8    1  |1 0>         10.44%    0.01%    0.01%   29.77%    0.00%
 28  1     9    1  |1 0>          0.01%   29.73%    0.03%    0.01%    0.01%
 29  1     1    1  |1 1>-         0.00%    0.01%    0.00%   18.45%    0.00%
 30  1     2    1  |1 1>-        13.97%    0.00%    0.00%    0.62%    0.00%
 31  1     3    1  |1 1>-        16.14%    0.00%    0.00%    0.54%    0.00%
 32  1     4    1  |1 1>-         0.00%    0.00%    0.87%    0.00%    0.00%
 33  1     5    1  |1 1>-         0.00%    0.86%    0.00%    0.00%    0.00%
 34  1     6    1  |1 1>-         0.02%    0.01%    0.00%    0.00%    0.00%
 35  1     7    1  |1 1>-         0.01%   29.74%    0.01%    0.02%    0.01%
 36  1     8    1  |1 1>-         0.00%    0.01%   29.77%    0.01%    0.00%
 37  1     9    1  |1 1>-         0.03%    0.01%    0.00%    0.00%   16.94%



 **********************************************************************************************************************************
 DATASETS  * FILE   NREC   LENGTH (MB)   RECORD NAMES
              1      21       56.15       500      610      700      900      950      970     1000      129      960     1100   
                                          VAR    BASINP    GEOM    SYMINP    ZMAT    AOBASIS   BASIS     P2S    ABASIS      S 
                                         1400     1410     1420     1200     1210     1080     1700     1600     1650     1380   
                                           T        V       ECP      H0       H01     AOSYM    OPER      SMH    MOLCAS    JKOP   
                                         1700(1)
                                         OPER   

              2       7     3292.49       700     1000      520     2100     2140     5201     5202   
                                         GEOM     BASIS   MCVARS     RHF     MCSCF    MRCI     MRCI   

 PROGRAMS   *        TOTAL        CI        CI        CI     MULTI   RHF-SCF       INT
 CPU TIMES  *     98224.78  88748.15   4618.13   4846.50      9.25      0.18      2.36
 REAL TIME  *     99232.48 SEC
 DISK USED  *         3.27 GB (local),       46.04 GB (total)
 SF USED    *        16.35 GB
 GA USED    *         0.00 MB       (max)       0.00 MB       (current)
 **********************************************************************************************************************************

 CI/USERDEF energy=   -462.864719267227

              CI              CI           MULTI         RHF-SCF
   -462.81953175   -462.81060969   -461.79806654   -462.19986853
 **********************************************************************************************************************************
 Molpro calculation terminated with 1 warning(s)
