
 Working directory              : /wrk/irikura/molpro.DkCFaafSJw/
 Global scratch directory       : /wrk/irikura/molpro.DkCFaafSJw/
 Wavefunction directory         : /home/irikura/wfu/
 Main file repository           : /wrk/irikura/molpro.DkCFaafSJw/

 id        : nistki

 Nodes            nprocs
 pn125343.nist.gov   14
 GA implementation: MPI file
 GA implementation (serial work in mppx): MPI file

 Using customized tuning parameters: mindgm=1; mindgv=20; mindgc=4; mindgr=1; noblas=0; minvec=7
 default implementation of scratch files=sf  


 Variables initialized (1042), CPU time= 0.01 sec
 ***,Kr SO-CI
                                                                                 ! active space (8/8)
 memory,4000,M;
 
 gprint,orbitals,civector;
                                                                                 !gthresh,energy=1.d-10,coeff=1.d-8;
 
 symmetry,xyz
 geometry={Kr};
 
 basis=aug-cc-pwCV5Z-PP
 
 rhf
 
 {multi,wmk
     occ,8,9
     wf,sym=1,spin=0;state,10;
     wf,sym=1,spin=2;state,9;
     expec2,lxx,lyy,lzz;
 }
 table, energy, ll
 title, Energies and &lt;L**2&gt; values
 
 core,0,0
 
 {ci;wf,sym=1,spin=0;state,10; save,5201.2}
 hlsdiag = energd4
 {ci;wf,sym=1,spin=2;state,9; save,5202.2}
 hlsdiag(11) = energd
 
 table,hlsdiag
 
 {ci;hlsmat,ecp,5201.2,5202.2;print,vls=0,hls=0}                                 !compute and diagonalize SO matrix
 Commands initialized (847), CPU time= 0.01 sec, 718 directives.
 Default parameters read. Elapsed time= 0.10 sec

 Checking input...
 Passed
1


                                         ***  PROGRAM SYSTEM MOLPRO  ***
                                       Copyright, TTI GmbH Stuttgart, 2015
                                    Version 2024.1 linked Mon Jun 17 07:53:25 2024


 **********************************************************************************************************************************
 LABEL *   Kr SO-CI                                                                                                                                                      
  (64 PROC) 64 bit mpp version                                                           DATE: 28-Aug-24          TIME: 10:32:50  
 **********************************************************************************************************************************

 SHA1:             0134236b472f03f1f5189f93707d8671e415b05c
 **********************************************************************************************************************************

 Memory per process:      4000 MW
 Total memory per node:  56000 MW

 GA preallocation disabled
 GA check disabled

 Variable memory set to 4000.0 MW


 ZSYMEL=XYZ

 SETTING BASIS          =    AUG-CC-PWCV5Z-PP


 Recomputing integrals since basis changed


 Using spherical harmonics

 Library entry Kr   ECP ECP10MDF                 selected for group  1
 Library entry KR     S aug-cc-pwCV5Z-PP     selected for orbital group  1
 Library entry KR     P aug-cc-pwCV5Z-PP     selected for orbital group  1
 Library entry KR     D aug-cc-pwCV5Z-PP     selected for orbital group  1
 Library entry KR     F aug-cc-pwCV5Z-PP     selected for orbital group  1
 Library entry KR     G aug-cc-pwCV5Z-PP     selected for orbital group  1
 Library entry KR     H aug-cc-pwCV5Z-PP     selected for orbital group  1
 Library entry KR     I aug-cc-pwCV5Z-PP     selected for orbital group  1


 PROGRAM * SEWARD (Integral evaluation for generally contracted gaussian basis sets)     Author: Roland Lindh, 1990

 Geometry written to block  1 of record 700

 Orientation using atomic masses  
 Molecule type: Atom
 User-specified symmetry elements: XYZ
 Symmetry elements: XYZ
 Rotational constants:       0.0000000      0.0000000      0.0000000 GHz  (calculated with average atomic masses)

 Point group  Ci  



 ATOMIC COORDINATES

 NR  ATOM    CHARGE       X              Y              Z

   1  KR     26.00    0.000000000    0.000000000    0.000000000

 NUCLEAR CHARGE:                   26
 NUMBER OF PRIMITIVE AOS:         465
 NUMBER OF SYMMETRY AOS:          332
 NUMBER OF CONTRACTIONS:          265   (  129Ag  +  136Au  )
 NUMBER OF INNER CORE ORBITALS:     0   (    0Ag  +    0Au  )
 NUMBER OF OUTER CORE ORBITALS:     9   (    6Ag  +    3Au  )
 NUMBER OF VALENCE ORBITALS:        4   (    1Ag  +    3Au  )


 LX: Ag           LY: Ag           LZ: Ag 


 NUCLEAR REPULSION ENERGY    0.00000000

 EXTRA SYMMETRY OF AOS IN SYMMETRY 1:   1 1 1 1 1 1 1 1 1 1   1 1 2 3 4 5 6 2 3 4   5 6 2 3 4 5 6 2 3 4   5 6 2 3 4 5 6 2 3 4
                                        5 6 2 3 4 5 6 2 3 4   5 6 2 3 4 5 6 2 3 4   5 6 7 8 91011121314  15 7 8 9101112131415
                                        7 8 9101112131415 7   8 9101112131415 7 8   9101112131415 7 8 9  10111213141516171819
                                       202122232425262728
 EXTRA SYMMETRY OF AOS IN SYMMETRY 2:   1 2 3 1 2 3 1 2 3 1   2 3 1 2 3 1 2 3 1 2   3 1 2 3 1 2 3 1 2 3   1 2 3 1 2 3 4 5 6 7
                                        8 910 4 5 6 7 8 910   4 5 6 7 8 910 4 5 6   7 8 910 4 5 6 7 8 9  10 4 5 6 7 8 910 4 5
                                        6 7 8 910 4 5 6 7 8   9101112131415161718  19202111121314151617  18192021111213141516
                                       17181920211112131415  161718192021


 Eigenvalues of metric

         1 0.549E-04 0.126E-03 0.540E-03 0.104E-02 0.104E-02 0.104E-02 0.104E-02 0.104E-02
         2 0.275E-04 0.275E-04 0.275E-04 0.398E-03 0.398E-03 0.398E-03 0.296E-02 0.296E-02


 Contracted 2-electron integrals neglected if value below      1.0D-12
 AO integral compression algorithm  1   Integral accuracy      1.0D-12

     561.250 MB (compressed) written to integral file ( 13.7%)

     Node minimum: 31.719 MB, node maximum: 49.283 MB


 NUMBER OF SORTED TWO-ELECTRON INTEGRALS:   22335719.     BUFFER LENGTH:  32768
 NUMBER OF SEGMENTS:   2  SEGMENT LENGTH:   15996659      RECORD LENGTH: 524288

 Memory used in sort:      16.55 MW

 SORT1 READ   511790813. AND WROTE     3785086. INTEGRALS IN     12 RECORDS. CPU TIME:     2.67 SEC, REAL TIME:     2.78 SEC
 SORT2 READ    53582001. AND WROTE   312900871. INTEGRALS IN   2632 RECORDS. CPU TIME:     0.41 SEC, REAL TIME:     0.48 SEC

 Node minimum:    22335257.  Node maximum:    22368464. integrals

 OPERATOR DM      FOR CENTER  0  COORDINATES:    0.000000    0.000000    0.000000


 **********************************************************************************************************************************
 DATASETS  * FILE   NREC   LENGTH (MB)   RECORD NAMES
              1      19       30.46       500      610      700      900      950      970     1000      129      960     1100   
                                          VAR    BASINP    GEOM    SYMINP    ZMAT    AOBASIS   BASIS     P2S    ABASIS      S 
                                         1400     1410     1420     1200     1210     1080     1700     1600     1650   
                                           T        V       ECP      H0       H01     AOSYM    OPER      SMH    MOLCAS    

 PROGRAMS   *        TOTAL       INT
 CPU TIMES  *         7.48      7.28
 REAL TIME  *         9.70 SEC
 DISK USED  *        30.87 MB (local),        1.49 GB (total)
 GA USED    *         0.00 MB       (max)       0.00 MB       (current)
 **********************************************************************************************************************************


 Program * Restricted Hartree-Fock

 Orbital guess generated from atomic densities.

 Initial occupancy:   7   6

 NELEC=   26   SYM=1   MS2= 0   THRE=1.0D-08   THRD=3.2D-06   THRG=3.2D-06  HFMA2=F  DIIS_START=2   DIIS_MAX=10   DIIS_INCORE=F

 Level shifts:    0.00 (CLOSED)    0.00 (OPEN)    0.30 (GAP_MIN)

 ITER           ETOT              DE          GRAD        DDIFF     DIIS  NEXP   TIME(IT)  TIME(TOT)  DIAG
   1     -462.20021095    -462.20021095     0.00D+00     0.50D-01     0     0       0.11      0.23    start
   2     -462.20021380      -0.00000286     0.39D-04     0.59D-04     1     0       0.13      0.36    diag
   3     -462.20021392      -0.00000011     0.49D-05     0.95D-05     2     0       0.12      0.48    diag
   4     -462.20021392      -0.00000000     0.14D-05     0.10D-05     3     0       0.12      0.60    diag
   5     -462.20021392      -0.00000000     0.54D-06     0.28D-06     0     0       0.13      0.73    diag

 Final occupancy:   7   6

 !RHF STATE 1.1 Energy               -462.200213922396
  RHF One-electron energy            -808.825824379889
  RHF Two-electron energy             346.625610457493
  RHF Kinetic energy                  329.246622531192
  RHF Nuclear energy                    0.000000000000
  RHF Virial quotient                  -1.403811557334

 !RHF STATE 1.1 Dipole moment           0.00000000     0.00000000     0.00000000
 Dipole moment /Debye                   0.00000000     0.00000000     0.00000000

 ELECTRON ORBITALS
 =================

  Orbital  Occupation    Energy    Cen Mu Typ  Coefficients
    1.1     2.00000   -10.80713     1  1  s    1.00004
    2.1     2.00000    -3.75330     1  1  d0   0.99996
    3.1     2.00000    -3.75330     1  1  d2- -0.29551    1  1  d1+  0.78840    1  1  d2+ -0.52470
    4.1     2.00000    -3.75330     1  1  d1-  0.95965
    5.1     2.00000    -3.75330     1  1  d1+  0.60393    1  1  d2+  0.75805
    6.1     2.00000    -3.75330     1  1  d2-  0.92050    1  1  d2+ -0.30613
    7.1     2.00000    -1.18782     1  1  s   -0.44482    1  5  s    0.53692    1  6  s    0.59428
    1.2     2.00000    -8.48542     1  1  px   0.99955
    2.2     2.00000    -8.48542     1  1  pz   0.99954
    3.2     2.00000    -8.48542     1  1  py   0.99954
    4.2     2.00000    -0.52322     1  1  py  -0.30410    1  4  py   0.31147    1  5  py   0.44363    1  6  py   0.32584
    5.2     2.00000    -0.52322     1  1  px  -0.30410    1  4  px   0.31148    1  5  px   0.44364    1  6  px   0.32585
    6.2     2.00000    -0.52322     1  1  pz  -0.30410    1  4  pz   0.31147    1  5  pz   0.44363    1  6  pz   0.32584


 HOMO      6.2    -0.523223 =     -14.2376eV
 LUMO      7.2     0.071020 =       1.9325eV
 LUMO-HOMO         0.594242 =      16.1702eV

 Orbitals saved in record  2100.2


 **********************************************************************************************************************************
 DATASETS  * FILE   NREC   LENGTH (MB)   RECORD NAMES
              1      19       30.46       500      610      700      900      950      970     1000      129      960     1100   
                                          VAR    BASINP    GEOM    SYMINP    ZMAT    AOBASIS   BASIS     P2S    ABASIS      S 
                                         1400     1410     1420     1200     1210     1080     1700     1600     1650   
                                           T        V       ECP      H0       H01     AOSYM    OPER      SMH    MOLCAS    

              2       4        0.96       700     1000      520     2100   
                                         GEOM     BASIS   MCVARS     RHF  

 PROGRAMS   *        TOTAL   RHF-SCF       INT
 CPU TIMES  *         8.21      0.72      7.28
 REAL TIME  *        10.48 SEC
 DISK USED  *        33.17 MB (local),        1.52 GB (total)
 GA USED    *         0.00 MB       (max)       0.00 MB       (current)
 **********************************************************************************************************************************

 PROGRAM * MULTI (Direct Multiconfiguration SCF)       Authors: P.J. Knowles, H.-J. Werner (1984)
                                                                D.A. Kreplin, P.J. Knowles, H.-J. Werner (2019)

 Number of closed-shell orbitals:   9 (    6    3)
 Number of active  orbitals:        8 (    2    6)
 Number of external orbitals:     248 (  121  127)

 State symmetry 1

 Number of active electrons:   8    Spin symmetry=Singlet   Space symmetry=1
 Number of states:            10
 Number of CSFs:             924   (2500 determinants, 4900 intermediate states)

 State symmetry 2

 Number of active electrons:   8    Spin symmetry=Triplet   Space symmetry=1
 Number of states:             9
 Number of CSFs:            1176   (1576 determinants, 3136 intermediate states)

 Molecular orbitals read from record     2100.2  Type=RHF/CANONICAL  
 *** IN SYMMETRY 1 ORBITAL  2 SYMMETRY CONTAMINATION OF 0.116D-01 HAS BEEN REMOVED
 *** IN SYMMETRY 1 ORBITAL  3 SYMMETRY CONTAMINATION OF 0.546D+00 HAS BEEN REMOVED
 *** IN SYMMETRY 1 ORBITAL  4 SYMMETRY CONTAMINATION OF 0.310D+00 HAS BEEN REMOVED
 *** IN SYMMETRY 1 ORBITAL  5 SYMMETRY CONTAMINATION OF 0.556D+00 HAS BEEN REMOVED
 *** IN SYMMETRY 1 ORBITAL  6 SYMMETRY CONTAMINATION OF 0.408D+00 HAS BEEN REMOVED

 EXTRA SYMMETRY OF MOS IN SYMMETRY 1:   1 2 4 6 5 3 1 1 3 5   6 4 2 1 3 5 2 6 413  10 711 91415 812 2 3   5 6 4 1 71514 91113
                                       10 812 3 5 6 4 2 1 7  1514 911 8121013 5 3   4 6 2 1 812 7 91115  141310 5 3 4 6 22623
                                       19241721201825272822  16 81211 9 713101415   1 5 3 4 6 2 1 5 4 3   6 2 9111310 812 715
                                       14 1 5 3 2 4 6 1 1
 *** IN SYMMETRY 2 ORBITAL  1 SYMMETRY CONTAMINATION OF 0.101D-02 HAS BEEN REMOVED
 *** IN SYMMETRY 2 ORBITAL  2 SYMMETRY CONTAMINATION OF 0.433D-02 HAS BEEN REMOVED
 *** IN SYMMETRY 2 ORBITAL  3 SYMMETRY CONTAMINATION OF 0.377D-02 HAS BEEN REMOVED
 *** IN SYMMETRY 2 ORBITAL  4 SYMMETRY CONTAMINATION OF 0.728D-02 HAS BEEN REMOVED
 *** IN SYMMETRY 2 ORBITAL  6 SYMMETRY CONTAMINATION OF 0.728D-02 HAS BEEN REMOVED
 *** IN SYMMETRY 2 ORBITAL  7 SYMMETRY CONTAMINATION OF 0.979D-03 HAS BEEN REMOVED
 *** IN SYMMETRY 2 ORBITAL  8 SYMMETRY CONTAMINATION OF 0.932D-03 HAS BEEN REMOVED
 *** IN SYMMETRY 2 ORBITAL  9 SYMMETRY CONTAMINATION OF 0.121D-03 HAS BEEN REMOVED
 EXTRA SYMMETRY OF MOS IN SYMMETRY 2:   1 3 2 2 1 3 3 2 1 3   1 2 810 7 9 5 4 6 3   2 1 810 6 7 9 4 5 3   2 1 810 6 7 9 5 418
                                       20211311121914161517   6 810 9 7 5 4 3 1 2  18201911122113141615  17 610 8 7 9 5 4 1 2
                                        3191112201814161517  2113 610 8 5 4 7 9 1   2 310 8 4 5 6 7 919  20211813111716121514
                                        1 2 3 810 6 4 5 7 9   2 3 1 2 1 3

 Wavefunction dump at record             2140.2

 Convergence thresholds  0.10E-04 (gradient)  0.10E-05 (energy)

 Weight factors for state symmetry  1:    0.05263   0.05263   0.05263   0.05263   0.05263   0.05263   0.05263   0.05263
                                          0.05263   0.05263
 Weight factors for state symmetry  2:    0.05263   0.05263   0.05263   0.05263   0.05263   0.05263   0.05263   0.05263
                                          0.05263
 
 Number of orbital rotations:  2141  ( 30 closed/active, 1107 closed/virtual, 0 active/active, 1004 active/virtual )
 Total number of variables:    41325
 
 Second-order MCSCF: L-BFGS accelerated
 
 ITER  MIC  NCI  NEG     ENERGY(VAR)    ENERGY(PROJ) ENERGY CHANGE       GRAD(0)  GRAD(ORB)   GRAD(CI)      STEP      TIME
   1   14   58    0   -461.77870211    -461.82851540   -0.04981329    0.28550291 0.00401428 0.00243215  0.11E+01     11.82
   2    8   34    0   -461.81152991    -461.81622519   -0.00469528    0.24712204 0.00017512 0.00021940  0.11E+00     19.05
   3    9   36    0   -461.81625807    -461.81625887   -0.00000080    0.00194335 0.00000254 0.00000799  0.71E-02     27.41
   4    6   24    0   -461.81625887    -461.81625887   -0.00000000    0.00000050 0.00000000 0.00000007  0.49E-04     34.14

 CONVERGENCE REACHED!  Final gradient:    0.00000002 ( 0.23E-07)
                       Final energy:   -461.81625887
 
 Results for state 1.1 Singlet
 =============================
 !MCSCF STATE 1.1 Singlet Energy              -462.184153588983
 Nuclear energy                                  0.00000000
 Kinetic energy                                330.06862699
 One electron energy                          -810.70375723
 Two electron energy                           348.51960364
 Virial ratio                                    2.40026684
 
 !MCSCF STATE 1.1 Singlet Dipole moment          0.00000000     0.00000000     0.00000000
 Dipole moment /Debye                            0.00000000     0.00000000     0.00000000
 
 Results for state 2.1 Singlet
 =============================
 !MCSCF STATE 2.1 Singlet Energy              -461.797080669412
 Nuclear energy                                  0.00000000
 Kinetic energy                                328.96272602
 One electron energy                          -801.84015408
 Two electron energy                           340.04307341
 Virial ratio                                    2.40379759
 
 !MCSCF STATE 2.1 Singlet Dipole moment          0.00000000     0.00000000     0.00000000
 Dipole moment /Debye                            0.00000000     0.00000000     0.00000000
 
 Results for state 3.1 Singlet
 =============================
 !MCSCF STATE 3.1 Singlet Energy              -461.797080669412
 Nuclear energy                                  0.00000000
 Kinetic energy                                328.96272602
 One electron energy                          -801.84015408
 Two electron energy                           340.04307341
 Virial ratio                                    2.40379759
 
 !MCSCF STATE 3.1 Singlet Dipole moment          0.00000000     0.00000000     0.00000000
 Dipole moment /Debye                            0.00000000     0.00000000     0.00000000
 
 Results for state 4.1 Singlet
 =============================
 !MCSCF STATE 4.1 Singlet Energy              -461.797080669411
 Nuclear energy                                  0.00000000
 Kinetic energy                                328.96272602
 One electron energy                          -801.84015408
 Two electron energy                           340.04307341
 Virial ratio                                    2.40379759
 
 !MCSCF STATE 4.1 Singlet Dipole moment          0.00000000     0.00000000     0.00000000
 Dipole moment /Debye                            0.00000000     0.00000000     0.00000000
 
 Results for state 5.1 Singlet
 =============================
 !MCSCF STATE 5.1 Singlet Energy              -461.797080669411
 Nuclear energy                                  0.00000000
 Kinetic energy                                328.96272602
 One electron energy                          -801.84015408
 Two electron energy                           340.04307341
 Virial ratio                                    2.40379759
 
 !MCSCF STATE 5.1 Singlet Dipole moment          0.00000000     0.00000000     0.00000000
 Dipole moment /Debye                            0.00000000     0.00000000     0.00000000
 
 Results for state 6.1 Singlet
 =============================
 !MCSCF STATE 6.1 Singlet Energy              -461.797080669411
 Nuclear energy                                  0.00000000
 Kinetic energy                                328.96272602
 One electron energy                          -801.84015408
 Two electron energy                           340.04307341
 Virial ratio                                    2.40379759
 
 !MCSCF STATE 6.1 Singlet Dipole moment          0.00000000     0.00000000     0.00000000
 Dipole moment /Debye                            0.00000000     0.00000000     0.00000000
 
 Results for state 7.1 Singlet
 =============================
 !MCSCF STATE 7.1 Singlet Energy              -461.793338537704
 Nuclear energy                                  0.00000000
 Kinetic energy                                328.95771543
 One electron energy                          -801.82490322
 Two electron energy                           340.03156468
 Virial ratio                                    2.40380759
 
 !MCSCF STATE 7.1 Singlet Dipole moment          0.00000000     0.00000000     0.00000000
 Dipole moment /Debye                            0.00000000     0.00000000     0.00000000
 
 Results for state 8.1 Singlet
 =============================
 !MCSCF STATE 8.1 Singlet Energy              -461.793338537704
 Nuclear energy                                  0.00000000
 Kinetic energy                                328.95771543
 One electron energy                          -801.82490322
 Two electron energy                           340.03156468
 Virial ratio                                    2.40380759
 
 !MCSCF STATE 8.1 Singlet Dipole moment          0.00000000     0.00000000     0.00000000
 Dipole moment /Debye                            0.00000000     0.00000000     0.00000000
 
 Results for state 9.1 Singlet
 =============================
 !MCSCF STATE 9.1 Singlet Energy              -461.793338537704
 Nuclear energy                                  0.00000000
 Kinetic energy                                328.95771543
 One electron energy                          -801.82490322
 Two electron energy                           340.03156468
 Virial ratio                                    2.40380759
 
 !MCSCF STATE 9.1 Singlet Dipole moment          0.00000000     0.00000000     0.00000000
 Dipole moment /Debye                            0.00000000     0.00000000     0.00000000
 
 Results for state 10.1 Singlet
 ==============================
 !MCSCF STATE 10.1 Singlet Energy             -461.773993506181
 Nuclear energy                                  0.00000000
 Kinetic energy                                329.24006071
 One electron energy                          -802.90610772
 Two electron energy                           341.13211421
 Virial ratio                                    2.40254498
 
 !MCSCF STATE 10.1 Singlet Dipole moment         0.00000000     0.00000000     0.00000000
 Dipole moment /Debye                            0.00000000     0.00000000     0.00000000
 
 Results for state 1.1 Triplet
 =============================
 !MCSCF STATE 1.1 Triplet Energy              -461.808508050520
 Nuclear energy                                  0.00000000
 Kinetic energy                                328.93858059
 One electron energy                          -801.76053279
 Two electron energy                           339.95202474
 Virial ratio                                    2.40393537
 
 !MCSCF STATE 1.1 Triplet Dipole moment          0.00000000     0.00000000     0.00000000
 Dipole moment /Debye                            0.00000000     0.00000000     0.00000000
 
 Results for state 2.1 Triplet
 =============================
 !MCSCF STATE 2.1 Triplet Energy              -461.799242901443
 Nuclear energy                                  0.00000000
 Kinetic energy                                328.95051155
 One electron energy                          -801.80104417
 Two electron energy                           340.00180127
 Virial ratio                                    2.40385628
 
 !MCSCF STATE 2.1 Triplet Dipole moment          0.00000000     0.00000000     0.00000000
 Dipole moment /Debye                            0.00000000     0.00000000     0.00000000
 
 Results for state 3.1 Triplet
 =============================
 !MCSCF STATE 3.1 Triplet Energy              -461.799242901442
 Nuclear energy                                  0.00000000
 Kinetic energy                                328.95051155
 One electron energy                          -801.80104417
 Two electron energy                           340.00180127
 Virial ratio                                    2.40385628
 
 !MCSCF STATE 3.1 Triplet Dipole moment          0.00000000     0.00000000     0.00000000
 Dipole moment /Debye                            0.00000000     0.00000000     0.00000000
 
 Results for state 4.1 Triplet
 =============================
 !MCSCF STATE 4.1 Triplet Energy              -461.799242901442
 Nuclear energy                                  0.00000000
 Kinetic energy                                328.95051155
 One electron energy                          -801.80104417
 Two electron energy                           340.00180127
 Virial ratio                                    2.40385628
 
 !MCSCF STATE 4.1 Triplet Dipole moment          0.00000000     0.00000000     0.00000000
 Dipole moment /Debye                            0.00000000     0.00000000     0.00000000
 
 Results for state 5.1 Triplet
 =============================
 !MCSCF STATE 5.1 Triplet Energy              -461.799242901442
 Nuclear energy                                  0.00000000
 Kinetic energy                                328.95051155
 One electron energy                          -801.80104417
 Two electron energy                           340.00180127
 Virial ratio                                    2.40385628
 
 !MCSCF STATE 5.1 Triplet Dipole moment          0.00000000     0.00000000     0.00000000
 Dipole moment /Debye                            0.00000000     0.00000000     0.00000000
 
 Results for state 6.1 Triplet
 =============================
 !MCSCF STATE 6.1 Triplet Energy              -461.799242901442
 Nuclear energy                                  0.00000000
 Kinetic energy                                328.95051155
 One electron energy                          -801.80104417
 Two electron energy                           340.00180127
 Virial ratio                                    2.40385628
 
 !MCSCF STATE 6.1 Triplet Dipole moment          0.00000000     0.00000000     0.00000000
 Dipole moment /Debye                            0.00000000     0.00000000     0.00000000
 
 Results for state 7.1 Triplet
 =============================
 !MCSCF STATE 7.1 Triplet Energy              -461.793543279911
 Nuclear energy                                  0.00000000
 Kinetic energy                                328.95597785
 One electron energy                          -801.81806312
 Two electron energy                           340.02451984
 Virial ratio                                    2.40381563
 
 !MCSCF STATE 7.1 Triplet Dipole moment          0.00000000     0.00000000     0.00000000
 Dipole moment /Debye                            0.00000000     0.00000000     0.00000000
 
 Results for state 8.1 Triplet
 =============================
 !MCSCF STATE 8.1 Triplet Energy              -461.793543279911
 Nuclear energy                                  0.00000000
 Kinetic energy                                328.95597785
 One electron energy                          -801.81806312
 Two electron energy                           340.02451984
 Virial ratio                                    2.40381563
 
 !MCSCF STATE 8.1 Triplet Dipole moment          0.00000000     0.00000000     0.00000000
 Dipole moment /Debye                            0.00000000     0.00000000     0.00000000
 
 Results for state 9.1 Triplet
 =============================
 !MCSCF STATE 9.1 Triplet Energy              -461.793543279911
 Nuclear energy                                  0.00000000
 Kinetic energy                                328.95597785
 One electron energy                          -801.81806312
 Two electron energy                           340.02451984
 Virial ratio                                    2.40381563
 
 !MCSCF STATE 9.1 Triplet Dipole moment          0.00000000     0.00000000     0.00000000
 Dipole moment /Debye                            0.00000000     0.00000000     0.00000000
 
 State-averaged charge density matrix saved on record 2140.2 (density set 1)
 
 No non-zero expectation values
 
 Expectation values for two-electron operators:
 
 ? Warning
 ? Transition properties are only calculated between states of the same symmetry
 ? The problem occurs in mu_properties_expec2

 !MCSCF expec      <1.1 Singlet|LXLX|1.1 Singlet>    -0.000000000000
 !MCSCF expec      <2.1 Singlet|LXLX|2.1 Singlet>     0.996391682938
 !MCSCF expec      <3.1 Singlet|LXLX|3.1 Singlet>     3.003568053139
 !MCSCF expec      <4.1 Singlet|LXLX|4.1 Singlet>     1.010296019132
 !MCSCF expec      <5.1 Singlet|LXLX|5.1 Singlet>     1.006904719609
 !MCSCF expec      <6.1 Singlet|LXLX|6.1 Singlet>     3.982839525183
 !MCSCF expec      <7.1 Singlet|LXLX|7.1 Singlet>     0.998607986178
 !MCSCF expec      <8.1 Singlet|LXLX|8.1 Singlet>     0.993680521460
 !MCSCF expec      <9.1 Singlet|LXLX|9.1 Singlet>     0.007711492362
 !MCSCF expec    <10.1 Singlet|LXLX|10.1 Singlet>    -0.000000000000
 !MCSCF expec      <1.1 Triplet|LXLX|1.1 Triplet>    -0.000000000000
 !MCSCF expec      <2.1 Triplet|LXLX|2.1 Triplet>     1.001823718757
 !MCSCF expec      <3.1 Triplet|LXLX|3.1 Triplet>     1.687557744646
 !MCSCF expec      <4.1 Triplet|LXLX|4.1 Triplet>     2.262090412098
 !MCSCF expec      <5.1 Triplet|LXLX|5.1 Triplet>     2.045800364485
 !MCSCF expec      <6.1 Triplet|LXLX|6.1 Triplet>     3.002727760014
 !MCSCF expec      <7.1 Triplet|LXLX|7.1 Triplet>     0.993219962082
 !MCSCF expec      <8.1 Triplet|LXLX|8.1 Triplet>     0.648524199144
 !MCSCF expec      <9.1 Triplet|LXLX|9.1 Triplet>     0.358255838774
 
 !MCSCF expec      <1.1 Singlet|LYLY|1.1 Singlet>    -0.000000000000
 !MCSCF expec      <2.1 Singlet|LYLY|2.1 Singlet>     1.003659962619
 !MCSCF expec      <3.1 Singlet|LYLY|3.1 Singlet>     2.995995038744
 !MCSCF expec      <4.1 Singlet|LYLY|4.1 Singlet>     1.000252109045
 !MCSCF expec      <5.1 Singlet|LYLY|5.1 Singlet>     3.993066691679
 !MCSCF expec      <6.1 Singlet|LYLY|6.1 Singlet>     1.007026197913
 !MCSCF expec      <7.1 Singlet|LYLY|7.1 Singlet>     0.999997117739
 !MCSCF expec      <8.1 Singlet|LYLY|8.1 Singlet>     0.006341208341
 !MCSCF expec      <9.1 Singlet|LYLY|9.1 Singlet>     0.993661673920
 !MCSCF expec    <10.1 Singlet|LYLY|10.1 Singlet>    -0.000000000000
 !MCSCF expec      <1.1 Triplet|LYLY|1.1 Triplet>    -0.000000000000
 !MCSCF expec      <2.1 Triplet|LYLY|2.1 Triplet>     1.006999636977
 !MCSCF expec      <3.1 Triplet|LYLY|3.1 Triplet>     3.298667196025
 !MCSCF expec      <4.1 Triplet|LYLY|4.1 Triplet>     1.312291739347
 !MCSCF expec      <5.1 Triplet|LYLY|5.1 Triplet>     1.384817320920
 !MCSCF expec      <6.1 Triplet|LYLY|6.1 Triplet>     2.997224106730
 !MCSCF expec      <7.1 Triplet|LYLY|7.1 Triplet>     0.999295248053
 !MCSCF expec      <8.1 Triplet|LYLY|8.1 Triplet>     0.356428716673
 !MCSCF expec      <9.1 Triplet|LYLY|9.1 Triplet>     0.644276035274
 
 !MCSCF expec      <1.1 Singlet|LZLZ|1.1 Singlet>    -0.000000000000
 !MCSCF expec      <2.1 Singlet|LZLZ|2.1 Singlet>     3.999948354443
 !MCSCF expec      <3.1 Singlet|LZLZ|3.1 Singlet>     0.000436908118
 !MCSCF expec      <4.1 Singlet|LZLZ|4.1 Singlet>     3.989451871823
 !MCSCF expec      <5.1 Singlet|LZLZ|5.1 Singlet>     1.000028588712
 !MCSCF expec      <6.1 Singlet|LZLZ|6.1 Singlet>     1.010134276904
 !MCSCF expec      <7.1 Singlet|LZLZ|7.1 Singlet>     0.001394896083
 !MCSCF expec      <8.1 Singlet|LZLZ|8.1 Singlet>     0.999978270199
 !MCSCF expec      <9.1 Singlet|LZLZ|9.1 Singlet>     0.998626833718
 !MCSCF expec    <10.1 Singlet|LZLZ|10.1 Singlet>    -0.000000000000
 !MCSCF expec      <1.1 Triplet|LZLZ|1.1 Triplet>    -0.000000000000
 !MCSCF expec      <2.1 Triplet|LZLZ|2.1 Triplet>     3.991176644266
 !MCSCF expec      <3.1 Triplet|LZLZ|3.1 Triplet>     1.013775059328
 !MCSCF expec      <4.1 Triplet|LZLZ|4.1 Triplet>     2.425617848555
 !MCSCF expec      <5.1 Triplet|LZLZ|5.1 Triplet>     2.569382314594
 !MCSCF expec      <6.1 Triplet|LZLZ|6.1 Triplet>     0.000048133256
 !MCSCF expec      <7.1 Triplet|LZLZ|7.1 Triplet>     0.007484789865
 !MCSCF expec      <8.1 Triplet|LZLZ|8.1 Triplet>     0.995047084183
 !MCSCF expec      <9.1 Triplet|LZLZ|9.1 Triplet>     0.997468125952
 
 !MCSCF expec      <1.1 Singlet|L**2|1.1 Singlet>    -0.000000000000
 !MCSCF expec      <2.1 Singlet|L**2|2.1 Singlet>     6.000000000000
 !MCSCF expec      <3.1 Singlet|L**2|3.1 Singlet>     6.000000000000
 !MCSCF expec      <4.1 Singlet|L**2|4.1 Singlet>     6.000000000000
 !MCSCF expec      <5.1 Singlet|L**2|5.1 Singlet>     6.000000000000
 !MCSCF expec      <6.1 Singlet|L**2|6.1 Singlet>     6.000000000000
 !MCSCF expec      <7.1 Singlet|L**2|7.1 Singlet>     2.000000000000
 !MCSCF expec      <8.1 Singlet|L**2|8.1 Singlet>     2.000000000000
 !MCSCF expec      <9.1 Singlet|L**2|9.1 Singlet>     2.000000000000
 !MCSCF expec    <10.1 Singlet|L**2|10.1 Singlet>    -0.000000000000
 !MCSCF expec      <1.1 Triplet|L**2|1.1 Triplet>    -0.000000000000
 !MCSCF expec      <2.1 Triplet|L**2|2.1 Triplet>     6.000000000000
 !MCSCF expec      <3.1 Triplet|L**2|3.1 Triplet>     6.000000000000
 !MCSCF expec      <4.1 Triplet|L**2|4.1 Triplet>     6.000000000000
 !MCSCF expec      <5.1 Triplet|L**2|5.1 Triplet>     6.000000000000
 !MCSCF expec      <6.1 Triplet|L**2|6.1 Triplet>     6.000000000000
 !MCSCF expec      <7.1 Triplet|L**2|7.1 Triplet>     2.000000000000
 !MCSCF expec      <8.1 Triplet|L**2|8.1 Triplet>     2.000000000000
 !MCSCF expec      <9.1 Triplet|L**2|9.1 Triplet>     2.000000000000
 
 EXTRA SYMMETRY OF MOS IN SYMMETRY 1:   1 6 4 3 5 2 1 1 1 3   5 6 4 2 3 5 2 6 4 1  1310 711 9 8121415 2   3 5 6 4 7 911151413
                                       10 812 3 5 6 4 2 1 7   9111514 8121013 2 5   3 6 4 1 7 911 81214  151310 2 5 3 4 62326
                                       24191721182025272822  16 812 7 91113101415   1 2 3 5 6 4 1 3 5 4   6 2 9111310 812 714
                                       15 1 5 3 6 4 2 1 1
 EXTRA SYMMETRY OF MOS IN SYMMETRY 2:   3 1 2 3 2 1 2 1 3 3   1 2 810 4 5 9 7 6 3   1 2 810 6 9 7 4 5 3   1 2 810 6 9 7 4 520
                                       18211312111914161517   6 810 9 7 5 4 3 1 2  20181911122113141615  17 610 8 9 7 5 4 2 1
                                        3121119201814161521  131710 8 6 5 4 7 9 2   1 310 8 4 5 7 9 619  21131814162015171112
                                        2 1 3 810 6 4 5 7 9   2 1 3 2 1 3
 
  NATURAL ORBITALS (STATE AVERAGED)
  =================================

  Orbital  Occupation    Energy    Cen Mu Typ  Coefficients
    1.1     2.00000   -11.03597     1  1  s    0.97344
    2.1     2.00000    -4.01113     1  1  d1-  1.00037
    3.1     2.00000    -4.01113     1  1  d1+  1.00037
    4.1     2.00000    -4.01113     1  1  d2-  1.00037
    5.1     2.00000    -4.01113     1  1  d2+  1.00037
    6.1     2.00000    -4.01113     1  1  d0   1.00037
    7.1     1.99899    -1.42246     1  1  s   -0.51220    1  5  s    0.58281    1  6  s    0.60835
    8.1     0.00141     0.88710     1  1  s    0.62734    1  3  s    0.79472    1  4  s   -0.90881    1  5  s   -2.01819
                                    1  6  s    1.54651    1  7  s    0.40484
    1.2     2.00000    -8.74272     1  1  pz   0.99910
    2.2     2.00000    -8.74272     1  1  px   0.99910
    3.2     2.00000    -8.74272     1  1  py   0.99910
    4.2     1.68392    -0.66539     1  1  pz  -0.32284    1  4  pz   0.33797    1  5  pz   0.49139    1  6  pz   0.28561
    5.2     1.68392    -0.66539     1  1  py  -0.32284    1  4  py   0.33797    1  5  py   0.49139    1  6  py   0.28561
    6.2     1.68392    -0.66539     1  1  px  -0.32284    1  4  px   0.33797    1  5  px   0.49139    1  6  px   0.28561
    7.2     0.31594     0.02927     1  7  py  -0.36433    1 12  py   1.24919
    8.2     0.31594     0.02927     1  7  px  -0.36433    1 12  px   1.24919
    9.2     0.31594     0.02927     1  7  pz  -0.36433    1 12  pz   1.24919
 
 Natural orbital dump (state averaged) at molpro section 2140.2 (Orbital set 2)
 
 Transform the CI vectors
 
 CI Coefficients of symmetry 1 (Singlet)
 =======================================

 State:              1               2               3               4               5               6               7
 20 222000      0.98463210     -0.00000000      0.00000000     -0.00000000     -0.00000000      0.00000000      0.00000000
 20 b2200a     -0.06709396      0.00060509     -0.57700543      0.00589334      0.00021167     -0.00353471      0.00000000
 20 a2200b      0.06709396     -0.00060509      0.57700543     -0.00589334     -0.00021167      0.00353471     -0.00000000
 20 22a0b0      0.06709396      0.50003533     -0.28796619      0.00336070      0.00162062     -0.00302143     -0.00000000
 20 22b0a0     -0.06709396     -0.50003533      0.28796619     -0.00336070     -0.00162062      0.00302143      0.00000000
 20 22ab00      0.00000000     -0.00034470      0.00491668      0.49886632     -0.00031067      0.02907208      0.49943679
 20 2b20a0     -0.00000000      0.00034470     -0.00491668     -0.49886632      0.00031067     -0.02907208      0.49943679
 20 2a20b0      0.00000000     -0.00034470      0.00491668      0.49886632     -0.00031067      0.02907208     -0.49943679
 20 22ba00     -0.00000000      0.00034470     -0.00491668     -0.49886632      0.00031067     -0.02907208     -0.49943679
 20 2a2b00      0.06709396     -0.49943023     -0.28903924      0.00253264     -0.00140895     -0.00051328      0.00000000
 20 2b2a00     -0.06709396      0.49943023      0.28903924     -0.00253264      0.00140895      0.00051328     -0.00000000
 20 a220b0      0.00000000     -0.00145204      0.00002369     -0.00108686      0.49915896      0.02396291     -0.00084850
 20 b220a0     -0.00000000      0.00145204     -0.00002369      0.00108686     -0.49915896     -0.02396291      0.00084850
 20 22a00b      0.00000000     -0.00145204      0.00002369     -0.00108686      0.49915896      0.02396291      0.00084850
 20 22b00a     -0.00000000      0.00145204     -0.00002369      0.00108686     -0.49915896     -0.02396291     -0.00084850
 20 a22b00     -0.00000000      0.00135082     -0.00335637     -0.02902023     -0.02398096      0.49830395      0.01864685
 20 b22a00      0.00000000     -0.00135082      0.00335637      0.02902023      0.02398096     -0.49830395     -0.01864685
 20 2a200b     -0.00000000      0.00135082     -0.00335637     -0.02902023     -0.02398096      0.49830395     -0.01864685
 20 2b200a      0.00000000     -0.00135082      0.00335637      0.02902023      0.02398096     -0.49830395      0.01864685
 
 Energy:     -462.18415359   -461.79708067   -461.79708067   -461.79708067   -461.79708067   -461.79708067   -461.79333854

 State:              8               9              10
 20 222000      0.00000000     -0.00000000     -0.16329182
 20 b2200a      0.00000000      0.00000000     -0.40228005
 20 a2200b     -0.00000000     -0.00000000      0.40228005
 20 22a0b0      0.00000000     -0.00000000      0.40228005
 20 22b0a0     -0.00000000      0.00000000     -0.40228005
 20 22ab00     -0.00232976      0.01852018      0.00000000
 20 2b20a0     -0.00232976      0.01852018      0.00000000
 20 2a20b0      0.00232976     -0.01852018     -0.00000000
 20 22ba00      0.00232976     -0.01852018     -0.00000000
 20 2a2b00     -0.00000000      0.00000000      0.40228005
 20 2b2a00      0.00000000     -0.00000000     -0.40228005
 20 a220b0     -0.49819834     -0.03978972     -0.00000000
 20 b220a0      0.49819834      0.03978972      0.00000000
 20 22a00b      0.49819834      0.03978972      0.00000000
 20 22b00a     -0.49819834     -0.03978972     -0.00000000
 20 a22b00      0.03973052     -0.49785471      0.00000000
 20 b22a00     -0.03973052      0.49785471     -0.00000000
 20 2a200b     -0.03973052      0.49785471     -0.00000000
 20 2b200a      0.03973052     -0.49785471      0.00000000
 
 Energy:     -461.79333854   -461.79333854   -461.77399351
 
 
 CI Coefficients of symmetry 1 (Triplet)
 =======================================

 State:              1               2               3               4               5               6               7
 20 a2200a      0.57702854      0.00260415      0.00147267     -0.00005479     -0.00076412      0.81615887     -0.00000000
 20 22aa00      0.00000000      0.70551692      0.03740182     -0.01469464      0.01481101     -0.00230572      0.70411897
 20 2a20a0      0.00000000      0.70551692      0.03740182     -0.01469464      0.01481101     -0.00230572     -0.70411897
 20 a220a0     -0.00000000     -0.03334743      0.61867170      0.22810744      0.25237537     -0.00075833     -0.01876271
 20 22a00a     -0.00000000     -0.03334743      0.61867170      0.22810744      0.25237537     -0.00075833      0.01876271
 20 22a0a0      0.57702854     -0.02058528     -0.03066330     -0.48699820      0.51139274     -0.40751817     -0.00000000
 20 2a2a00      0.57702854      0.01798113      0.02919063      0.48705299     -0.51062862     -0.40864070      0.00000000
 20 2a200a      0.00000000      0.01872249     -0.33844174      0.45842203      0.41779012      0.00097287     -0.05819605
 20 a22a00     -0.00000000      0.01872249     -0.33844174      0.45842203      0.41779012      0.00097287      0.05819605
 
 Energy:     -461.80850805   -461.79924290   -461.79924290   -461.79924290   -461.79924290   -461.79924290   -461.79354328

 State:              8               9
 20 a2200a     -0.00000000      0.00000000
 20 22aa00      0.04974025     -0.03556301
 20 2a20a0     -0.04974025      0.03556301
 20 a220a0      0.56699051      0.42153537
 20 22a00a     -0.56699051     -0.42153537
 20 22a0a0     -0.00000000     -0.00000000
 20 2a2a00      0.00000000     -0.00000000
 20 2a200a      0.41901076     -0.56618508
 20 a22a00     -0.41901076      0.56618508
 
 Energy:     -461.79354328   -461.79354328
 


 **********************************************************************************************************************************
 DATASETS  * FILE   NREC   LENGTH (MB)   RECORD NAMES
              1      21       93.78       500      610      700      900      950      970     1000      129      960     1100   
                                          VAR    BASINP    GEOM    SYMINP    ZMAT    AOBASIS   BASIS     P2S    ABASIS      S 
                                         1400     1410     1420     1200     1210     1080     1700     1600     1650     1380   
                                           T        V       ECP      H0       H01     AOSYM    OPER      SMH    MOLCAS    JKOP   
                                         1700(1)
                                         OPER   

              2       5        2.42       700     1000      520     2100     2140   
                                         GEOM     BASIS   MCVARS     RHF     MCSCF   

 PROGRAMS   *        TOTAL     MULTI   RHF-SCF       INT
 CPU TIMES  *        21.36     13.14      0.72      7.28
 REAL TIME  *        46.61 SEC
 DISK USED  *        96.32 MB (local),        2.39 GB (total)
 SF USED    *       170.16 MB
 GA USED    *         0.00 MB       (max)       0.00 MB       (current)
 **********************************************************************************************************************************

 Energies and &lt;L**2&gt; values

         ENERGY     LL
    -462.1841536  -0.0
    -461.7970807   6.0
    -461.7970807   6.0
    -461.7970807   6.0
    -461.7970807   6.0
    -461.7970807   6.0
    -461.7933385   2.0
    -461.7933385   2.0
    -461.7933385   2.0
    -461.7739935  -0.0
    -461.8085081  -0.0
    -461.7992429   6.0
    -461.7992429   6.0
    -461.7992429   6.0
    -461.7992429   6.0
    -461.7992429   6.0
    -461.7935433   2.0
    -461.7935433   2.0
    -461.7935433   2.0
                                                  


 PROGRAM * CI (Multireference internally contracted CI)     Authors: H.-J. Werner, P.J. Knowles, 1987


 Convergence thresholds:  THRVAR = 1.00D-08  THRDEN = 1.00D-06

 Number of optimized states: 10  Roots:   1   2   3   4   5   6   7   8   9  10
 Number of reference states: 10  Roots:   1   2   3   4   5   6   7   8   9  10

 Reference symmetry:                   1   Singlet 
 Number of electrons:                 26
 Maximum number of shells:             7
 Maximum number of spin couplings:   132

 Reference space:      603 conf      924 CSFs
 N elec internal:    45531 conf   130284 CSFs
 N-1 el internal:    56699 conf   278292 CSFs
 N-2 el internal:    37063 conf   282516 CSFs

 Number of electrons in valence space:                     26
 Maximum number of open shell orbitals in reference space:  8
 Maximum number of open shell orbitals in internal spaces: 12


 Number of closed-shell orbitals:   9 (   6   3 )
 Number of active  orbitals:        8 (   2   6 )
 Number of external orbitals:     248 ( 121 127 )

 Molecular orbitals read from record     2140.2  Type=MCSCF/NATURAL (state averaged)

 Valence orbitals related to previous ones by unitary transformation. Operators transformed.


 Number of p-space configurations:  10

 Reference wavefunction optimized for reference space (refopt=1)

 State     Reference Energy 
     1      -462.18415359
     2      -461.79708067
     3      -461.79708067
     4      -461.79708067
     5      -461.79708067
     6      -461.79708067
     7      -461.79333854
     8      -461.79333854
     9      -461.79333854
    10      -461.77399351

 ?WARNING: SMALL EIGENVALUE OF PAIR OVERLAP MATRIX:  0.1684D-06

 ?WARNING: SMALL EIGENVALUE OF PAIR OVERLAP MATRIX:  0.1756D-06

 Number of blocks in overlap matrix:   904   Smallest eigenvalue:  0.17D-06
 Number of N-2 electron functions:    2844
 Number of N-1 electron functions:  278292

 Number of internal configurations:                65352
 Number of singly external configurations:      34509132
 Number of doubly external configurations:      43745884
 Total number of contracted configurations:     78320368
 Total number of uncontracted configurations: 4374227368

 Diagonal Coupling coefficients finished.               Storage:  74710394 words, CPU-Time:    583.40 seconds.
 Energy denominators for pairs finished in 1 passes.    Storage:   4894545 words, CPU-time:      7.16 seconds.

  ITER. STATE  ROOT     SQ.NORM     CORR.ENERGY   TOTAL ENERGY   ENERGY CHANGE       DEN1      VAR(S)    VAR(P)      TIME
    1     1     1     1.00000000     0.00000000  -462.18415359    -0.00000000    -1.23144662  0.36D-01  0.58D-01   625.93
    1     2     2     1.00000000     0.00000000  -461.79708067    -0.00000000    -1.22088262  0.21D-01  0.65D-01   625.93
    1     3     3     1.00000000     0.00000000  -461.79708067     0.00000000    -1.21966256  0.21D-01  0.64D-01   625.93
    1     4     4     1.00000000     0.00000000  -461.79708067    -0.00000000    -1.21180962  0.21D-01  0.60D-01   625.93
    1     5     5     1.00000000     0.00000000  -461.79708067     0.00000000    -1.21229614  0.21D-01  0.60D-01   625.93
    1     6     6     1.00000000     0.00000000  -461.79708067     0.00000000    -1.21183545  0.21D-01  0.60D-01   625.93
    1     7     7     1.00000000     0.00000000  -461.79333854     0.00000000    -1.21452134  0.21D-01  0.61D-01   625.93
    1     8     8     1.00000000     0.00000000  -461.79333854     0.00000000    -1.21469238  0.21D-01  0.61D-01   625.93
    1     9     9     1.00000000     0.00000000  -461.79333854     0.00000000    -1.21454591  0.21D-01  0.61D-01   625.93
    1    10    10     1.00000000     0.00000000  -461.77399351    -0.00000000    -1.23579085  0.45D-01  0.64D-01   625.93
    2     1     1     1.07321682    -1.08701646  -463.27117005    -1.08701646    -0.03251820  0.67D-02  0.14D-02  6299.61
    2     2     2     1.06310170    -1.07005745  -462.86713812    -1.07005745    -0.02006649  0.17D-02  0.94D-03  6299.61
    2     3     3     1.06312065    -1.07004444  -462.86712511    -1.07004444    -0.02007810  0.17D-02  0.94D-03  6299.61
    2     4     4     1.06319145    -1.06998235  -462.86706302    -1.06998235    -0.02014148  0.17D-02  0.94D-03  6299.61
    2     5     5     1.06582832    -1.06891060  -462.86599127    -1.06891060    -0.02126093  0.17D-02  0.12D-02  6299.61
    2     6     6     1.06555525    -1.06882060  -462.86590127    -1.06882060    -0.02130919  0.17D-02  0.12D-02  6299.61
    2     7     7     1.06387473    -1.07039961  -462.86373815    -1.07039961    -0.02013927  0.16D-02  0.10D-02  6299.61
    2     8     8     1.06389166    -1.07038859  -462.86372713    -1.07038859    -0.02014850  0.16D-02  0.10D-02  6299.61
    2     9     9     1.06391712    -1.07032357  -462.86366211    -1.07032357    -0.02019399  0.16D-02  0.10D-02  6299.61
    2    10    10     1.07984757    -1.06209238  -462.83608588    -1.06209238    -0.03451363  0.97D-02  0.12D-02  6299.61
    3     1     1     1.06366359    -1.11965310  -463.30380668    -0.03263664    -0.00149560  0.63D-04  0.15D-03 11971.09
    3     2     2     1.05939135    -1.08891074  -462.88599141    -0.01885329    -0.00063898  0.27D-04  0.68D-04 11971.09
    3     3     3     1.05939234    -1.08891035  -462.88599102    -0.01886591    -0.00063930  0.27D-04  0.68D-04 11971.09
    3     4     4     1.05939477    -1.08890531  -462.88598598    -0.01892296    -0.00064178  0.27D-04  0.69D-04 11971.09
    3     5     5     1.05974529    -1.08890159  -462.88598226    -0.01999099    -0.00064487  0.26D-04  0.75D-04 11971.09
    3     6     6     1.05965139    -1.08887784  -462.88595851    -0.02005724    -0.00065798  0.26D-04  0.76D-04 11971.09
    3     7     7     1.05972086    -1.08934642  -462.88268495    -0.01894681    -0.00063674  0.27D-04  0.69D-04 11971.09
    3     8     8     1.05972182    -1.08934608  -462.88268462    -0.01895749    -0.00063699  0.27D-04  0.69D-04 11971.09
    3     9     9     1.05970689    -1.08933414  -462.88267267    -0.01901057    -0.00064363  0.27D-04  0.70D-04 11971.09
    3    10    10     1.06157476    -1.09454762  -462.86854112    -0.03245524    -0.00119882  0.12D-03  0.10D-03 11971.09
    4     1     1     1.06689127    -1.12142933  -463.30558292    -0.00177624    -0.00011813  0.43D-05  0.10D-04 17642.34
    4     2     2     1.06088337    -1.08968804  -462.88676871    -0.00077730    -0.00006318  0.21D-05  0.65D-05 17642.34
    4     3     3     1.06088285    -1.08968801  -462.88676868    -0.00077765    -0.00006319  0.21D-05  0.65D-05 17642.34
    4     4     4     1.06087824    -1.08968684  -462.88676751    -0.00078153    -0.00006390  0.21D-05  0.66D-05 17642.34
    4     5     5     1.06081392    -1.08968329  -462.88676396    -0.00078171    -0.00006675  0.21D-05  0.74D-05 17642.34
    4     6     6     1.06081192    -1.08968105  -462.88676172    -0.00080321    -0.00006847  0.22D-05  0.74D-05 17642.34
    4     7     7     1.06108998    -1.09012413  -462.88346267    -0.00077771    -0.00006424  0.22D-05  0.66D-05 17642.34
    4     8     8     1.06108940    -1.09012406  -462.88346260    -0.00077798    -0.00006426  0.22D-05  0.66D-05 17642.34
    4     9     9     1.06108171    -1.09012223  -462.88346077    -0.00078810    -0.00006553  0.22D-05  0.67D-05 17642.34
    4    10    10     1.06214494    -1.09588946  -462.86988296    -0.00134184    -0.00010330  0.33D-05  0.12D-04 17642.34
    5     1     1     1.06786025    -1.12156700  -463.30572059    -0.00013767    -0.00000864  0.14D-06  0.86D-06 23324.78
    5     2     2     1.06150446    -1.08976813  -462.88684880    -0.00008009    -0.00000551  0.17D-06  0.56D-06 23324.78
    5     3     3     1.06151865    -1.08976782  -462.88684849    -0.00007982    -0.00000555  0.18D-06  0.57D-06 23324.78
    5     4     4     1.06151861    -1.08976781  -462.88684848    -0.00008097    -0.00000555  0.18D-06  0.57D-06 23324.78
    5     5     5     1.06150556    -1.08976772  -462.88684839    -0.00008443    -0.00000573  0.18D-06  0.60D-06 23324.78
    5     6     6     1.06151906    -1.08976766  -462.88684833    -0.00008661    -0.00000564  0.18D-06  0.58D-06 23324.78
    5     7     7     1.06173295    -1.09020479  -462.88354333    -0.00008066    -0.00000538  0.16D-06  0.55D-06 23324.78
    5     8     8     1.06173298    -1.09020477  -462.88354331    -0.00008071    -0.00000539  0.16D-06  0.55D-06 23324.78
    5     9     9     1.06173306    -1.09020460  -462.88354314    -0.00008236    -0.00000551  0.16D-06  0.56D-06 23324.78
    5    10    10     1.06284611    -1.09602065  -462.87001416    -0.00013119    -0.00001102  0.40D-06  0.12D-05 23324.78
    6     1     1     1.06789704    -1.12157757  -463.30573116    -0.00001056    -0.00000082  0.27D-07  0.75D-07 29006.38
    6     2     2     1.06151889    -1.08977501  -462.88685568    -0.00000688    -0.00000065  0.29D-07  0.69D-07 29006.38
    6     3     3     1.06152000    -1.08977494  -462.88685561    -0.00000712    -0.00000070  0.29D-07  0.71D-07 29006.38
    6     4     4     1.06151999    -1.08977494  -462.88685561    -0.00000713    -0.00000070  0.29D-07  0.71D-07 29006.38
    6     5     5     1.06151977    -1.08977492  -462.88685559    -0.00000719    -0.00000072  0.30D-07  0.73D-07 29006.38
    6     6     6     1.06151771    -1.08977491  -462.88685558    -0.00000724    -0.00000069  0.30D-07  0.74D-07 29006.38
    6     7     7     1.06173852    -1.09021159  -462.88355013    -0.00000679    -0.00000063  0.29D-07  0.64D-07 29006.38
    6     8     8     1.06173852    -1.09021159  -462.88355012    -0.00000681    -0.00000064  0.29D-07  0.64D-07 29006.38
    6     9     9     1.06173809    -1.09021157  -462.88355010    -0.00000697    -0.00000065  0.30D-07  0.66D-07 29006.38
    6    10    10     1.06288542    -1.09603455  -462.87002806    -0.00001390    -0.00000151  0.85D-07  0.15D-06 29006.38
    7     1     1     1.06791743    -1.12157855  -463.30573214    -0.00000098    -0.00000010  0.39D-08  0.85D-08 34683.43
    7     2     2     1.06152308    -1.08977582  -462.88685649    -0.00000081    -0.00000010  0.56D-08  0.10D-07 34683.43
    7     3     3     1.06152166    -1.08977582  -462.88685649    -0.00000087    -0.00000011  0.55D-08  0.10D-07 34683.43
    7     4     4     1.06152168    -1.08977582  -462.88685649    -0.00000087    -0.00000011  0.56D-08  0.10D-07 34683.43
    7     5     5     1.06152154    -1.08977581  -462.88685648    -0.00000089    -0.00000011  0.57D-08  0.11D-07 34683.43
    7     6     6     1.06152270    -1.08977577  -462.88685644    -0.00000086    -0.00000011  0.59D-08  0.11D-07 34683.43
    7     7     7     1.06174238    -1.09021238  -462.88355092    -0.00000079    -0.00000010  0.50D-08  0.95D-08 34683.43
    7     8     8     1.06174254    -1.09021238  -462.88355091    -0.00000079    -0.00000010  0.49D-08  0.93D-08 34683.43
    7     9     9     1.06174249    -1.09021238  -462.88355091    -0.00000081    -0.00000010  0.49D-08  0.93D-08 34683.43
    7    10    10     1.06289822    -1.09603642  -462.87002993    -0.00000187    -0.00000026  0.14D-07  0.26D-07 34683.43
    8     1     1     1.06792290    -1.12157866  -463.30573225    -0.00000011    -0.00000001  0.43D-09  0.12D-08 40362.99
    8     2     2     1.06152630    -1.08977595  -462.88685662    -0.00000013    -0.00000002  0.78D-09  0.15D-08 40362.99
    8     3     3     1.06152631    -1.08977595  -462.88685662    -0.00000014    -0.00000002  0.77D-09  0.15D-08 40362.99
    8     4     4     1.06152625    -1.08977595  -462.88685662    -0.00000013    -0.00000002  0.79D-09  0.16D-08 40362.99
    8     5     5     1.06152683    -1.08977595  -462.88685662    -0.00000014    -0.00000002  0.69D-09  0.14D-08 40362.99
    8     6     6     1.06152668    -1.08977591  -462.88685658    -0.00000014    -0.00000002  0.74D-09  0.15D-08 40362.99
    8     7     7     1.06174708    -1.09021250  -462.88355104    -0.00000012    -0.00000002  0.67D-09  0.14D-08 40362.99
    8     8     8     1.06174716    -1.09021250  -462.88355103    -0.00000012    -0.00000002  0.65D-09  0.14D-08 40362.99
    8     9     9     1.06174716    -1.09021250  -462.88355103    -0.00000012    -0.00000002  0.65D-09  0.14D-08 40362.99
    8    10    10     1.06289863    -1.09603674  -462.87003025    -0.00000032    -0.00000005  0.28D-08  0.42D-08 40362.99


 =====================================
 Analysis of CPU times by interactions
 =====================================

       I      S      P

 I   0.2%
 S   0.2%  32.3%
 P   0.2%  36.0%  22.9%

 Initialization:   1.5%
 Other:            6.7%

 Total CPU:    40363.0 seconds
 =====================================



 Wavefunction saved on  5201.2

 Reference coefficients greater than 0.0500000
 =============================================
 22222220222222000           0.9587988  -0.0000000  -0.0000000   0.0000000  -0.0000000  -0.0000000   0.0000000   0.0000000
                            -0.0000000  -0.1170198
 2222222022222/0\0           0.0693691  -0.0000673   0.0568293  -0.0054891   0.7898663  -0.0101197   0.0000000   0.0000003
                             0.0000000   0.5552858
 22222220222/2200\           0.0693691   0.0005856  -0.0219730   0.0024692  -0.3866118   0.6908638  -0.0000000  -0.0000004
                             0.0000000   0.5552862
 22222220222/220\0          -0.0000000   0.0000735   0.6840818   0.0029455  -0.0492727  -0.0058262   0.0024997   0.6858889
                            -0.0001644  -0.0000000
 2222222022222/00\           0.0000000   0.0000734   0.6840818   0.0029455  -0.0492722  -0.0058267  -0.0024997  -0.6858889
                             0.0001644  -0.0000000
 222222202222/2\00           0.0693691  -0.0005183  -0.0348562   0.0030199  -0.4032541  -0.6807440  -0.0000000   0.0000001
                            -0.0000000   0.5552862
 222222202222/20\0           0.0000000   0.6346352   0.0009152  -0.2601381  -0.0018273  -0.0006016   0.1053800  -0.0005465
                            -0.6777497   0.0000000
 2222222022222/\00           0.0000000   0.6346351   0.0009152  -0.2601385  -0.0018273  -0.0006016  -0.1053797   0.0005465
                             0.6777497  -0.0000000
 222222202222/200\           0.0000000   0.2601465  -0.0024285   0.6346140   0.0046072   0.0000123  -0.6777454   0.0024448
                            -0.1053809  -0.0000000
 22222220222/22\00           0.0000000   0.2601463  -0.0024285   0.6346141   0.0046072   0.0000123   0.6777453  -0.0024448
                             0.1053814   0.0000000

 Coefficients of fixed reference functions:
 ==========================================

 State      Coefficients
 1           0.966835    0.000000    0.000000    0.000000    0.000000    0.000000   -0.000000    0.000000   -0.000000   -0.039172
 2          -0.000000   -0.000083   -0.000781    0.897995    0.368101    0.000104   -0.000000   -0.000000    0.000000    0.000000
 3           0.000000    0.069637   -0.009129    0.001295   -0.003436    0.967961    0.000000   -0.000000   -0.000000    0.000000
 4           0.000000   -0.006726    0.000391   -0.368090    0.897965    0.004168   -0.000000    0.000000    0.000000   -0.000000
 5          -0.000000    0.967905   -0.011977   -0.002586    0.006519   -0.069719   -0.000000   -0.000000   -0.000000    0.000000
 6           0.000000   -0.012604   -0.970395   -0.000851    0.000017   -0.008244   -0.000000    0.000000    0.000000    0.000000
 7          -0.000000    0.000000    0.000000    0.000000   -0.000000    0.000000   -0.149093    0.958886    0.003537   -0.000000
 8           0.000000    0.000000    0.000000   -0.000000   -0.000000    0.000000    0.000773   -0.003459    0.970407    0.000000
 9           0.000000    0.000000   -0.000000   -0.000000    0.000000   -0.000000    0.958892    0.149095   -0.000233    0.000000
 10          0.042164   -0.000000    0.000000    0.000000   -0.000000   -0.000000   -0.000000    0.000000   -0.000000    0.968951

 Coefficients of rotated reference functions:
 ============================================

 State      Coefficients
 1           0.967628   -0.000000   -0.000000    0.000000   -0.000000    0.000000    0.000000   -0.000000   -0.000000    0.001450
 2          -0.000000    0.970512    0.000000    0.000000    0.000000   -0.000000    0.000000   -0.000000   -0.000000   -0.000000
 3          -0.000000    0.000000    0.970512    0.000000   -0.000000   -0.000000    0.000000    0.000000   -0.000000   -0.000000
 4           0.000000    0.000000    0.000000    0.970512    0.000000    0.000000   -0.000000    0.000000    0.000000    0.000000
 5          -0.000000    0.000000   -0.000000    0.000000    0.970512   -0.000000    0.000000   -0.000000    0.000000   -0.000000
 6           0.000000   -0.000000   -0.000000    0.000000   -0.000000    0.970512   -0.000000   -0.000000    0.000000    0.000000
 7           0.000000    0.000000    0.000000   -0.000000    0.000000   -0.000000    0.970414    0.000000    0.000000    0.000000
 8          -0.000000   -0.000000    0.000000    0.000000   -0.000000   -0.000000    0.000000    0.970414   -0.000000    0.000000
 9          -0.000000   -0.000000   -0.000000    0.000000    0.000000    0.000000    0.000000   -0.000000    0.970414   -0.000000
 10          0.001450   -0.000000   -0.000000    0.000000   -0.000000    0.000000    0.000000    0.000000   -0.000000    0.969867


 RESULTS FOR STATE 1.1
 =====================

 Coefficient of reference function:   C(0) = 0.96683540 (fixed)   0.96766584 (relaxed)   0.96762754 (rotated)

 Energy contributions of configuration classes

 CLASS          SQ.NORM        ECORR1        ECORR2
 +++++++++++++++++++++++++++++++++++++++++++++++++++
 Internals    0.00010053   -0.00034130   -1.05998874
 Singles      0.00890974   -0.05340955   -0.05936672
 Pairs        0.05902000    0.06381819   -0.00222320
 Total        1.06803026    0.01006734   -1.12157866
 +++++++++++++++++++++++++++++++++++++++++++++++++++


 Reference energy                    -462.18343075
 Nuclear energy                         0.00000000
 Kinetic energy                       330.19139515
 One electron energy                 -808.99257866
 Two electron energy                  345.68684642
 Virial quotient                       -1.40314296
 Correlation energy                    -1.12230150
 !MRCI STATE 1.1 Energy              -463.305732246337

 Properties without orbital relaxation:

 !MRCI STATE 1.1 Dipole moment          0.00000000     0.00000000     0.00000000
 Dipole moment /Debye                   0.00000000     0.00000000     0.00000000

 Cluster corrected energies          -463.38208271 (Davidson, fixed reference)
 Cluster corrected energies          -463.38198784 (Davidson, relaxed reference)
 Cluster corrected energies          -463.38208271 (Davidson, rotated reference)

 Cluster corrected energies          -463.38048671 (Pople, fixed reference)
 Cluster corrected energies          -463.38038823 (Pople, relaxed reference)
 Cluster corrected energies          -463.38048671 (Pople, rotated reference)



 RESULTS FOR STATE 2.1
 =====================

 Maximum overlap with reference state  4

 Coefficient of reference function:   C(0) = 0.89799488 (fixed)   0.97056483 (relaxed)   0.97051229 (rotated)

 Energy contributions of configuration classes

 CLASS          SQ.NORM        ECORR1        ECORR2
 +++++++++++++++++++++++++++++++++++++++++++++++++++
 Internals    0.00015465   -0.00053635   -0.96788752
 Singles      0.00988333   -0.06234754   -0.06887033
 Pairs        0.05165248   -0.00000000   -0.05301810
 Total        1.06169047   -0.06288389   -1.08977595
 +++++++++++++++++++++++++++++++++++++++++++++++++++


 Reference energy                    -461.79708067
 Nuclear energy                         0.00000000
 Kinetic energy                       329.65658688
 One electron energy                 -801.09201655
 Two electron energy                  338.20515992
 Virial quotient                       -1.40414867
 Correlation energy                    -1.08977595
 !MRCI STATE 2.1 Energy              -462.886856620777

 Properties without orbital relaxation:

 !MRCI STATE 2.1 Dipole moment          0.00000000     0.00000000     0.00000000
 Dipole moment /Debye                   0.00000000     0.00000000     0.00000000

 Cluster corrected energies          -462.95408541 (Davidson, fixed reference)
 Cluster corrected energies          -462.95396015 (Davidson, relaxed reference)
 Cluster corrected energies          -462.95408541 (Davidson, rotated reference)

 Cluster corrected energies          -462.95231206 (Pople, fixed reference)
 Cluster corrected energies          -462.95218348 (Pople, relaxed reference)
 Cluster corrected energies          -462.95231206 (Pople, rotated reference)



 RESULTS FOR STATE 3.1
 =====================

 Maximum overlap with reference state  6

 Coefficient of reference function:   C(0) = 0.96796072 (fixed)   0.97056483 (relaxed)   0.97051229 (rotated)

 Energy contributions of configuration classes

 CLASS          SQ.NORM        ECORR1        ECORR2
 +++++++++++++++++++++++++++++++++++++++++++++++++++
 Internals    0.00015465   -0.00053635   -0.96788743
 Singles      0.00988333   -0.06234753   -0.06887033
 Pairs        0.05165250   -0.00000009   -0.05301820
 Total        1.06169048   -0.06288397   -1.08977595
 +++++++++++++++++++++++++++++++++++++++++++++++++++


 Reference energy                    -461.79708067
 Nuclear energy                         0.00000000
 Kinetic energy                       329.65658991
 One electron energy                 -801.09201763
 Two electron energy                  338.20516101
 Virial quotient                       -1.40414865
 Correlation energy                    -1.08977595
 !MRCI STATE 3.1 Energy              -462.886856620723

 Properties without orbital relaxation:

 !MRCI STATE 3.1 Dipole moment          0.00000000     0.00000000     0.00000000
 Dipole moment /Debye                   0.00000000     0.00000000     0.00000000

 Cluster corrected energies          -462.95408542 (Davidson, fixed reference)
 Cluster corrected energies          -462.95396016 (Davidson, relaxed reference)
 Cluster corrected energies          -462.95408542 (Davidson, rotated reference)

 Cluster corrected energies          -462.95231207 (Pople, fixed reference)
 Cluster corrected energies          -462.95218349 (Pople, relaxed reference)
 Cluster corrected energies          -462.95231207 (Pople, rotated reference)



 RESULTS FOR STATE 4.1
 =====================

 Maximum overlap with reference state  5

 Coefficient of reference function:   C(0) = 0.89796502 (fixed)   0.97056486 (relaxed)   0.97051232 (rotated)

 Energy contributions of configuration classes

 CLASS          SQ.NORM        ECORR1        ECORR2
 +++++++++++++++++++++++++++++++++++++++++++++++++++
 Internals    0.00015465   -0.00053635   -0.96788758
 Singles      0.00988332   -0.06234752   -0.06887031
 Pairs        0.05165245    0.00000000   -0.05301805
 Total        1.06169042   -0.06288387   -1.08977595
 +++++++++++++++++++++++++++++++++++++++++++++++++++


 Reference energy                    -461.79708067
 Nuclear energy                         0.00000000
 Kinetic energy                       329.65657371
 One electron energy                 -801.09201246
 Two electron energy                  338.20515584
 Virial quotient                       -1.40414872
 Correlation energy                    -1.08977595
 !MRCI STATE 4.1 Energy              -462.886856618561

 Properties without orbital relaxation:

 !MRCI STATE 4.1 Dipole moment          0.00000000     0.00000000     0.00000000
 Dipole moment /Debye                   0.00000000     0.00000000     0.00000000

 Cluster corrected energies          -462.95408535 (Davidson, fixed reference)
 Cluster corrected energies          -462.95396009 (Davidson, relaxed reference)
 Cluster corrected energies          -462.95408535 (Davidson, rotated reference)

 Cluster corrected energies          -462.95231200 (Pople, fixed reference)
 Cluster corrected energies          -462.95218342 (Pople, relaxed reference)
 Cluster corrected energies          -462.95231200 (Pople, rotated reference)



 RESULTS FOR STATE 5.1
 =====================

 Maximum overlap with reference state  2

 Coefficient of reference function:   C(0) = 0.96790506 (fixed)   0.97056459 (relaxed)   0.97051205 (rotated)

 Energy contributions of configuration classes

 CLASS          SQ.NORM        ECORR1        ECORR2
 +++++++++++++++++++++++++++++++++++++++++++++++++++
 Internals    0.00015465   -0.00053635   -0.96788681
 Singles      0.00988333   -0.06234748   -0.06887033
 Pairs        0.05165302   -0.00000029   -0.05301881
 Total        1.06169100   -0.06288412   -1.08977595
 +++++++++++++++++++++++++++++++++++++++++++++++++++


 Reference energy                    -461.79708067
 Nuclear energy                         0.00000000
 Kinetic energy                       329.65671354
 One electron energy                 -801.09204409
 Two electron energy                  338.20518748
 Virial quotient                       -1.40414813
 Correlation energy                    -1.08977595
 !MRCI STATE 5.1 Energy              -462.886856617204

 Properties without orbital relaxation:

 !MRCI STATE 5.1 Dipole moment          0.00000000     0.00000000     0.00000000
 Dipole moment /Debye                   0.00000000     0.00000000     0.00000000

 Cluster corrected energies          -462.95408598 (Davidson, fixed reference)
 Cluster corrected energies          -462.95396073 (Davidson, relaxed reference)
 Cluster corrected energies          -462.95408598 (Davidson, rotated reference)

 Cluster corrected energies          -462.95231264 (Pople, fixed reference)
 Cluster corrected energies          -462.95218407 (Pople, relaxed reference)
 Cluster corrected energies          -462.95231264 (Pople, rotated reference)



 RESULTS FOR STATE 6.1
 =====================

 Maximum overlap with reference state  3

 Coefficient of reference function:   C(0) = 0.97039487 (fixed)   0.97056466 (relaxed)   0.97051212 (rotated)

 Energy contributions of configuration classes

 CLASS          SQ.NORM        ECORR1        ECORR2
 +++++++++++++++++++++++++++++++++++++++++++++++++++
 Internals    0.00015465   -0.00053635   -0.96788731
 Singles      0.00988326   -0.06234730   -0.06887020
 Pairs        0.05165294   -0.00000004   -0.05301840
 Total        1.06169085   -0.06288369   -1.08977591
 +++++++++++++++++++++++++++++++++++++++++++++++++++


 Reference energy                    -461.79708067
 Nuclear energy                         0.00000000
 Kinetic energy                       329.65665866
 One electron energy                 -801.09202762
 Two electron energy                  338.20517105
 Virial quotient                       -1.40414836
 Correlation energy                    -1.08977591
 !MRCI STATE 6.1 Energy              -462.886856576192

 Properties without orbital relaxation:

 !MRCI STATE 6.1 Dipole moment          0.00000000     0.00000000     0.00000000
 Dipole moment /Debye                   0.00000000     0.00000000     0.00000000

 Cluster corrected energies          -462.95408578 (Davidson, fixed reference)
 Cluster corrected energies          -462.95396052 (Davidson, relaxed reference)
 Cluster corrected energies          -462.95408578 (Davidson, rotated reference)

 Cluster corrected energies          -462.95231244 (Pople, fixed reference)
 Cluster corrected energies          -462.95218385 (Pople, relaxed reference)
 Cluster corrected energies          -462.95231244 (Pople, rotated reference)



 RESULTS FOR STATE 7.1
 =====================

 Maximum overlap with reference state  8

 Coefficient of reference function:   C(0) = 0.95888556 (fixed)   0.97046405 (relaxed)   0.97041373 (rotated)

 Energy contributions of configuration classes

 CLASS          SQ.NORM        ECORR1        ECORR2
 +++++++++++++++++++++++++++++++++++++++++++++++++++
 Internals    0.00014982   -0.00053092   -0.96748298
 Singles      0.01014453   -0.06299971   -0.06974272
 Pairs        0.05161180    0.00000000   -0.05298680
 Total        1.06190615   -0.06353062   -1.09021250
 +++++++++++++++++++++++++++++++++++++++++++++++++++


 Reference energy                    -461.79333854
 Nuclear energy                         0.00000000
 Kinetic energy                       329.65520633
 One electron energy                 -801.08361591
 Two electron energy                  338.20006487
 Virial quotient                       -1.40414452
 Correlation energy                    -1.09021250
 !MRCI STATE 7.1 Energy              -462.883551039862

 Properties without orbital relaxation:

 !MRCI STATE 7.1 Dipole moment          0.00000000     0.00000000     0.00000000
 Dipole moment /Debye                   0.00000000     0.00000000     0.00000000

 Cluster corrected energies          -462.95104190 (Davidson, fixed reference)
 Cluster corrected energies          -462.95092184 (Davidson, relaxed reference)
 Cluster corrected energies          -462.95104190 (Davidson, rotated reference)

 Cluster corrected energies          -462.94927415 (Pople, fixed reference)
 Cluster corrected energies          -462.94915085 (Pople, relaxed reference)
 Cluster corrected energies          -462.94927415 (Pople, rotated reference)



 RESULTS FOR STATE 8.1
 =====================

 Maximum overlap with reference state  9

 Coefficient of reference function:   C(0) = 0.97040722 (fixed)   0.97046402 (relaxed)   0.97041369 (rotated)

 Energy contributions of configuration classes

 CLASS          SQ.NORM        ECORR1        ECORR2
 +++++++++++++++++++++++++++++++++++++++++++++++++++
 Internals    0.00014982   -0.00053092   -0.96748289
 Singles      0.01014455   -0.06299972   -0.06974274
 Pairs        0.05161186    0.00000000   -0.05298687
 Total        1.06190623   -0.06353064   -1.09021250
 +++++++++++++++++++++++++++++++++++++++++++++++++++


 Reference energy                    -461.79333854
 Nuclear energy                         0.00000000
 Kinetic energy                       329.65522873
 One electron energy                 -801.08362400
 Two electron energy                  338.20007297
 Virial quotient                       -1.40414442
 Correlation energy                    -1.09021250
 !MRCI STATE 8.1 Energy              -462.883551034549

 Properties without orbital relaxation:

 !MRCI STATE 8.1 Dipole moment          0.00000000     0.00000000     0.00000000
 Dipole moment /Debye                   0.00000000     0.00000000     0.00000000

 Cluster corrected energies          -462.95104197 (Davidson, fixed reference)
 Cluster corrected energies          -462.95092191 (Davidson, relaxed reference)
 Cluster corrected energies          -462.95104197 (Davidson, rotated reference)

 Cluster corrected energies          -462.94927422 (Pople, fixed reference)
 Cluster corrected energies          -462.94915093 (Pople, relaxed reference)
 Cluster corrected energies          -462.94927422 (Pople, rotated reference)



 RESULTS FOR STATE 9.1
 =====================

 Maximum overlap with reference state  7

 Coefficient of reference function:   C(0) = 0.95889173 (fixed)   0.97046401 (relaxed)   0.97041369 (rotated)

 Energy contributions of configuration classes

 CLASS          SQ.NORM        ECORR1        ECORR2
 +++++++++++++++++++++++++++++++++++++++++++++++++++
 Internals    0.00014982   -0.00053092   -0.96748287
 Singles      0.01014455   -0.06299973   -0.06974274
 Pairs        0.05161186   -0.00000000   -0.05298688
 Total        1.06190623   -0.06353066   -1.09021250
 +++++++++++++++++++++++++++++++++++++++++++++++++++


 Reference energy                    -461.79333854
 Nuclear energy                         0.00000000
 Kinetic energy                       329.65523108
 One electron energy                 -801.08362495
 Two electron energy                  338.20007392
 Virial quotient                       -1.40414441
 Correlation energy                    -1.09021250
 !MRCI STATE 9.1 Energy              -462.883551034411

 Properties without orbital relaxation:

 !MRCI STATE 9.1 Dipole moment          0.00000000     0.00000000     0.00000000
 Dipole moment /Debye                   0.00000000     0.00000000     0.00000000

 Cluster corrected energies          -462.95104198 (Davidson, fixed reference)
 Cluster corrected energies          -462.95092192 (Davidson, relaxed reference)
 Cluster corrected energies          -462.95104198 (Davidson, rotated reference)

 Cluster corrected energies          -462.94927423 (Pople, fixed reference)
 Cluster corrected energies          -462.94915093 (Pople, relaxed reference)
 Cluster corrected energies          -462.94927423 (Pople, rotated reference)



 RESULTS FOR STATE 10.1
 ======================

 Coefficient of reference function:   C(0) = 0.96895127 (fixed)   0.96993914 (relaxed)   0.96986714 (rotated)

 Energy contributions of configuration classes

 CLASS          SQ.NORM        ECORR1        ECORR2
 +++++++++++++++++++++++++++++++++++++++++++++++++++
 Internals    0.00019266   -0.00054479   -0.00143360
 Singles      0.01072894   -0.06374529   -0.07102456
 Pairs        0.05218181   -1.03097855   -1.02357859
 Total        1.06310341   -1.09526864   -1.09603674
 +++++++++++++++++++++++++++++++++++++++++++++++++++


 Reference energy                    -461.77471634
 Nuclear energy                         0.00000000
 Kinetic energy                       329.74918702
 One electron energy                 -801.54591424
 Two electron energy                  338.67588399
 Virial quotient                       -1.40370333
 Correlation energy                    -1.09531390
 !MRCI STATE 10.1 Energy             -462.870030248651

 Properties without orbital relaxation:

 !MRCI STATE 10.1 Dipole moment         0.00000000     0.00000000     0.00000000
 Dipole moment /Debye                   0.00000000     0.00000000     0.00000000

 Cluster corrected energies          -462.93914829 (Davidson, fixed reference)
 Cluster corrected energies          -462.93897541 (Davidson, relaxed reference)
 Cluster corrected energies          -462.93914829 (Davidson, rotated reference)

 Cluster corrected energies          -462.93740911 (Pople, fixed reference)
 Cluster corrected energies          -462.93723120 (Pople, relaxed reference)
 Cluster corrected energies          -462.93740911 (Pople, rotated reference)



 **********************************************************************************************************************************
 DATASETS  * FILE   NREC   LENGTH (MB)   RECORD NAMES
              1      21       93.78       500      610      700      900      950      970     1000      129      960     1100   
                                          VAR    BASINP    GEOM    SYMINP    ZMAT    AOBASIS   BASIS     P2S    ABASIS      S 
                                         1400     1410     1420     1200     1210     1080     1700     1600     1650     1380   
                                           T        V       ECP      H0       H01     AOSYM    OPER      SMH    MOLCAS    JKOP   
                                         1700(1)
                                         OPER   

              2       6     6004.64       700     1000      520     2100     2140     5201   
                                         GEOM     BASIS   MCVARS     RHF     MCSCF    MRCI   

 PROGRAMS   *        TOTAL        CI     MULTI   RHF-SCF       INT
 CPU TIMES  *     44598.56  44577.19     13.14      0.72      7.28
 REAL TIME  *     45178.74 SEC
 DISK USED  *         5.96 GB (local),       84.45 GB (total)
 SF USED    *        59.94 GB
 GA USED    *         0.00 MB       (max)       0.00 MB       (current)
 **********************************************************************************************************************************
 SETTING HLSDIAG(1)     =      -463.38208271  AU                              
 SETTING HLSDIAG(2)     =      -462.95408541  AU                              
 SETTING HLSDIAG(3)     =      -462.95408542  AU                              
 SETTING HLSDIAG(4)     =      -462.95408535  AU                              
 SETTING HLSDIAG(5)     =      -462.95408598  AU                              
 SETTING HLSDIAG(6)     =      -462.95408578  AU                              
 SETTING HLSDIAG(7)     =      -462.95104190  AU                              
 SETTING HLSDIAG(8)     =      -462.95104197  AU                              
 SETTING HLSDIAG(9)     =      -462.95104198  AU                              
 SETTING HLSDIAG(10)    =      -462.93914829  AU                              


 PROGRAM * CI (Multireference internally contracted CI)     Authors: H.-J. Werner, P.J. Knowles, 1987


 Convergence thresholds:  THRVAR = 1.00D-08  THRDEN = 1.00D-06

[...]
  5  1     5    1  |0 0>          0.00%    0.01%    0.06%    0.00%    1.65%    2.83%    2.54%    0.37%
  6  1     6    1  |0 0>          0.00%    0.03%    0.03%    0.00%    0.77%    0.13%    0.09%    1.74%
  7  1     7    1  |0 0>          0.00%    0.45%    0.39%    2.83%    1.33%    0.17%    0.02%    0.00%
  8  1     8    1  |0 0>          0.00%    0.21%    3.04%    0.16%    1.18%    0.52%    0.02%    0.01%
  9  1     9    1  |0 0>          0.00%    1.25%    0.12%    1.77%    1.49%    0.90%    0.10%    0.00%
 10  1    10    1  |0 0>          0.00%    0.00%    0.01%    0.00%    0.01%    0.08%    0.00%    0.00%
 11  1     1    1  |1 1>+         0.00%    8.04%   69.83%    2.87%    2.25%    0.50%    0.01%    0.00%
 12  1     2    1  |1 1>+         0.00%    0.03%    0.00%    0.00%    0.90%    0.26%   22.00%    0.57%
 13  1     3    1  |1 1>+         0.00%    0.05%    0.02%    0.00%    1.10%    1.61%    1.06%   29.83%
 14  1     4    1  |1 1>+         0.00%    0.37%    0.01%    0.01%    6.10%    1.45%    9.65%    3.68%
 15  1     5    1  |1 1>+         0.00%    0.47%    0.49%    0.03%   10.82%   15.44%    4.77%    0.36%
 16  1     6    1  |1 1>+         0.00%    0.01%    0.00%    0.04%    0.19%    4.07%    5.02%    2.05%
 17  1     7    1  |1 1>+         0.01%    0.14%    0.17%    0.03%    0.71%    0.83%    0.19%    0.90%
 18  1     8    1  |1 1>+         0.00%    3.92%    0.45%    2.22%    0.17%    1.33%    0.70%    0.02%
 19  1     9    1  |1 1>+         0.00%    1.54%    0.76%    3.54%    0.37%    0.19%    0.04%    0.00%
 20  1     1    1  |1 0>          0.00%   42.33%    2.41%   33.13%    4.06%    0.72%    0.08%    0.00%
 21  1     2    1  |1 0>          0.00%    0.27%    0.02%    0.01%    4.63%    0.16%    6.13%    3.82%
 22  1     3    1  |1 0>          0.00%    0.04%    0.00%    0.00%    1.59%    1.61%    0.96%    2.04%
 23  1     4    1  |1 0>          0.00%    0.01%    0.00%    0.00%    0.80%    3.20%   14.16%    2.94%
 24  1     5    1  |1 0>          0.00%    2.03%    0.06%    0.36%   13.46%   24.13%    3.21%    0.02%
 25  1     6    1  |1 0>          0.00%    0.03%    0.01%    0.01%    0.82%    7.22%    0.73%    3.35%
 26  1     7    1  |1 0>          0.00%    5.22%    0.75%    2.14%    2.27%    0.15%    0.04%    0.00%
 27  1     8    1  |1 0>          0.00%    1.88%    6.18%    0.13%    4.27%    2.53%    0.40%    0.06%
 28  1     9    1  |1 0>          0.01%    0.05%    0.00%    0.00%    0.58%    0.35%    0.08%    0.13%
 29  1     1    1  |1 1>-         0.00%   23.70%   10.02%   48.26%    1.42%    0.07%    0.01%    0.00%
 30  1     2    1  |1 1>-         0.00%    0.34%    0.00%    0.11%    6.62%    2.99%    6.65%    0.02%
 31  1     3    1  |1 1>-         0.00%    0.01%    0.00%    0.02%    0.12%    1.80%    2.21%    1.58%
 32  1     4    1  |1 1>-         0.00%    0.01%    0.09%    0.00%    0.29%   15.58%    0.71%    1.35%
 33  1     5    1  |1 1>-         0.00%    0.76%    0.21%    0.14%   19.92%    0.28%    8.64%    0.37%
 34  1     6    1  |1 1>-         0.00%    0.04%    0.03%    0.00%    1.40%    1.57%    3.79%   43.06%
 35  1     7    1  |1 1>-         0.00%    5.72%    0.08%    1.87%    1.02%    0.22%    0.32%    0.04%
 36  1     8    1  |1 1>-         0.01%    0.49%    0.00%    0.03%    3.37%    0.69%    0.95%    0.11%
 37  1     9    1  |1 1>-         0.00%    0.38%    4.74%    0.25%    1.69%    0.95%    0.18%    0.04%

   Total
 Nr Sym  State Sym Spin / Nr.      9       10       11       12       13       14       15       16

  1  1     1    1  |0 0>          0.00%    0.00%    0.00%    0.00%    0.00%    0.00%    0.00%    0.00%
  2  1     2    1  |0 0>          0.88%    0.55%    5.35%    1.86%   18.69%    4.40%    7.48%    2.07%
  3  1     3    1  |0 0>          0.43%    6.65%    0.29%    4.87%    2.11%    3.26%    4.22%   21.51%
  4  1     4    1  |0 0>          0.15%    2.85%    8.19%    1.75%    8.94%    3.88%   11.78%    1.71%
  5  1     5    1  |0 0>          0.01%    1.96%    3.07%   10.48%    1.77%    6.13%    3.36%    8.77%
  6  1     6    1  |0 0>          0.09%    2.07%    0.68%   14.86%    1.38%   15.05%    4.73%    4.81%
  7  1     7    1  |0 0>          0.01%    0.01%    0.01%    0.00%    0.00%    0.00%    0.03%    0.23%
  8  1     8    1  |0 0>          0.02%    0.02%    0.00%    0.00%    0.03%    0.00%    0.02%    0.53%
  9  1     9    1  |0 0>          0.10%    0.11%    0.08%    0.04%    0.00%    0.20%    0.06%    0.25%
 10  1    10    1  |0 0>          0.00%    0.00%    0.00%    0.00%    0.00%    0.01%    0.00%    0.01%
 11  1     1    1  |1 1>+         0.01%    0.01%    0.00%    0.00%    0.01%    0.00%    0.01%    0.21%
 12  1     2    1  |1 1>+         2.03%    4.08%   12.65%    1.75%    0.01%    2.80%   12.35%    6.00%
 13  1     3    1  |1 1>+         3.78%    6.45%    1.84%    9.34%    2.87%    1.28%    0.04%    2.00%
 14  1     4    1  |1 1>+         5.17%   13.49%    6.81%    2.60%    5.53%    1.12%    2.49%    2.12%
 15  1     5    1  |1 1>+         1.28%    8.09%    0.92%    0.75%    0.43%    1.36%   14.22%    2.81%
 16  1     6    1  |1 1>+        32.47%    4.78%    4.73%    0.07%    1.49%    2.10%    1.84%    0.59%
 17  1     7    1  |1 1>+         0.02%    0.08%    0.00%    0.94%    0.06%    0.06%    0.08%    0.01%
 18  1     8    1  |1 1>+         0.18%    0.04%    0.07%    0.01%    0.66%    0.14%    0.18%    0.20%
 19  1     9    1  |1 1>+         0.01%    0.09%    0.32%    0.01%    0.08%    0.22%    0.37%    0.02%
 20  1     1    1  |1 0>          0.06%    0.06%    0.04%    0.02%    0.00%    0.08%    0.03%    0.11%
 21  1     2    1  |1 0>          4.99%   15.51%    3.55%    2.24%    8.84%    1.63%    5.30%    1.02%
 22  1     3    1  |1 0>          2.84%    3.54%   10.23%    7.23%   31.00%    2.10%    0.66%    2.72%
 23  1     4    1  |1 0>          4.27%    2.01%   14.42%    2.60%    4.01%    2.28%    3.66%    7.34%
 24  1     5    1  |1 0>          0.31%    0.47%    0.30%    0.96%    0.26%    4.95%    2.01%    5.10%
 25  1     6    1  |1 0>          1.22%    1.25%    4.57%   31.54%    1.78%    6.54%    0.77%    6.93%
 26  1     7    1  |1 0>          0.00%    0.08%    0.21%    0.03%    0.07%    0.30%    0.51%    0.42%
 27  1     8    1  |1 0>          0.06%    0.09%    0.05%    0.12%    0.23%    0.11%    0.08%    0.46%
 28  1     9    1  |1 0>          0.01%    0.34%    0.07%    0.20%    0.01%    0.37%    0.35%    0.17%
 29  1     1    1  |1 1>-         0.00%    0.00%    0.00%    0.00%    0.00%    0.00%    0.01%    0.05%
 30  1     2    1  |1 1>-         0.40%    6.99%   16.12%    0.33%    1.87%    1.36%    7.89%    8.70%
 31  1     3    1  |1 1>-        35.98%    6.41%    0.01%    0.41%    4.21%    2.65%    4.43%    0.22%
 32  1     4    1  |1 1>-         2.06%    1.08%    3.99%    3.42%    1.55%   33.73%    1.25%    1.71%
 33  1     5    1  |1 1>-         0.04%    6.20%    0.93%    0.10%    0.95%    0.25%    9.17%    7.32%
 34  1     6    1  |1 1>-         0.70%    4.11%    0.37%    1.11%    0.33%    1.41%    0.18%    3.48%
 35  1     7    1  |1 1>-         0.40%    0.02%    0.03%    0.08%    0.69%    0.00%    0.05%    0.01%
 36  1     8    1  |1 1>-         0.00%    0.33%    0.06%    0.15%    0.05%    0.11%    0.29%    0.35%
 37  1     9    1  |1 1>-         0.02%    0.16%    0.03%    0.14%    0.10%    0.11%    0.07%    0.04%

   Total
 Nr Sym  State Sym Spin / Nr.     17       18       19       20       21       22       23       24

  1  1     1    1  |0 0>          0.00%    0.00%    0.00%    0.00%    0.00%    0.00%    0.00%    0.00%
  2  1     2    1  |0 0>          1.33%    6.30%    0.90%    1.10%    1.11%    6.64%    3.81%    0.91%
  3  1     3    1  |0 0>          0.45%    3.37%    4.53%    0.89%    0.40%    1.33%    2.96%    4.53%
  4  1     4    1  |0 0>          0.93%    1.11%    0.31%    0.13%    9.78%    0.66%    4.14%    2.93%
  5  1     5    1  |0 0>          3.68%    5.54%    0.57%    4.22%    2.39%    0.77%    4.14%    2.25%
  6  1     6    1  |0 0>          0.44%    1.36%    0.73%    0.85%    0.90%   10.81%    3.17%    2.06%
  7  1     7    1  |0 0>         20.08%    3.29%    2.85%    6.08%    9.92%    0.42%    4.49%    2.53%
  8  1     8    1  |0 0>          1.57%   12.84%   27.05%    5.73%    0.06%    0.17%    0.65%    2.14%
  9  1     9    1  |0 0>         10.39%    1.94%    5.34%   23.99%    1.59%    0.64%    4.13%    1.65%
 10  1    10    1  |0 0>          0.03%    0.06%    0.01%    0.02%    0.00%    0.00%    0.32%    0.00%
 11  1     1    1  |1 1>+         0.04%    0.18%    0.02%    0.00%    0.00%    0.00%    0.01%    0.20%
 12  1     2    1  |1 1>+         0.11%    0.12%    2.95%    0.49%    0.04%    0.23%    0.52%    0.66%
 13  1     3    1  |1 1>+         0.34%    2.62%    2.78%    0.53%    0.01%    0.14%    0.45%    1.72%
 14  1     4    1  |1 1>+         0.14%    0.47%    1.08%    3.90%    0.30%    0.49%    0.31%    2.60%
 15  1     5    1  |1 1>+         0.29%    2.91%    0.25%    0.43%    0.41%    0.26%    0.56%    3.23%
 16  1     6    1  |1 1>+         6.39%    1.54%    0.37%    0.60%    0.10%    0.30%    0.55%    0.53%
 17  1     7    1  |1 1>+         1.15%   10.82%    2.57%    0.48%    0.93%   23.64%    0.64%    7.49%
 18  1     8    1  |1 1>+         2.53%    8.61%    0.48%    6.99%    0.50%   13.16%   10.60%    3.87%
 19  1     9    1  |1 1>+         0.38%    0.29%    1.78%    4.54%   37.77%    0.49%    1.72%    2.12%
 20  1     1    1  |1 0>          0.63%    0.07%    0.01%    0.00%    0.00%    0.00%    0.10%    0.45%
 21  1     2    1  |1 0>          0.38%    1.46%    0.70%    5.72%    0.25%    0.17%    0.63%    2.64%
 22  1     3    1  |1 0>          0.45%    1.00%    0.19%    0.11%    0.10%    1.32%    0.96%    0.18%
 23  1     4    1  |1 0>          0.39%    1.46%    5.28%    0.83%    0.06%    0.00%    0.10%    0.04%
 24  1     5    1  |1 0>          0.44%    0.01%    0.52%    1.57%    6.21%    0.12%    1.71%    0.93%
 25  1     6    1  |1 0>          0.16%    1.04%    0.14%    0.30%    0.18%    0.94%    0.35%    1.01%
 26  1     7    1  |1 0>         15.93%    1.11%    0.18%    0.14%    9.61%    0.55%    9.89%    6.74%
 27  1     8    1  |1 0>          0.36%   16.32%    0.38%    0.27%    1.01%    0.89%    7.24%   12.85%
 28  1     9    1  |1 0>          1.19%    1.73%    0.75%    6.06%    4.70%   15.98%   17.84%    1.86%
 29  1     1    1  |1 1>-         0.38%    0.04%    0.00%    0.01%    0.00%    0.00%    0.02%    0.09%
 30  1     2    1  |1 1>-         4.70%    0.44%    0.21%    0.46%    1.94%    0.07%    0.98%    1.03%
 31  1     3    1  |1 1>-         7.08%    0.61%    0.27%    0.48%    0.07%    0.01%    0.58%    0.72%
 32  1     4    1  |1 1>-         0.02%    0.03%    0.05%    0.08%    0.12%    1.73%    1.33%    0.59%
 33  1     5    1  |1 1>-         7.01%    1.49%    0.87%    2.22%    0.03%    0.34%    1.38%    1.01%
 34  1     6    1  |1 1>-         0.04%    1.91%    2.53%    0.85%    0.05%    0.16%    0.71%    2.04%
 35  1     7    1  |1 1>-         4.89%    6.05%    5.32%    4.90%    2.14%   14.23%    3.00%    5.53%
 36  1     8    1  |1 1>-         5.54%    1.56%    0.44%   11.01%    6.47%    1.77%    4.37%   13.31%
 37  1     9    1  |1 1>-         0.16%    0.32%   27.57%    4.01%    0.83%    1.55%    5.65%    7.56%

   Total
 Nr Sym  State Sym Spin / Nr.     25       26       27       28       29       30       31       32

  1  1     1    1  |0 0>          0.01%    0.00%    0.00%    0.00%    0.00%    0.00%    0.00%    0.00%
  2  1     2    1  |0 0>          0.04%    1.22%    0.40%    0.35%    2.22%    0.41%    9.95%   14.61%
  3  1     3    1  |0 0>          0.19%    0.77%    0.32%    0.36%    0.28%    3.77%    6.63%    4.92%
  4  1     4    1  |0 0>          0.64%    4.74%    0.22%    0.20%    5.25%    3.70%    0.93%    1.57%
  5  1     5    1  |0 0>          0.01%    0.31%    1.32%    0.06%    0.40%    5.21%   11.28%    4.64%
  6  1     6    1  |0 0>          0.03%    0.32%    1.27%    0.37%    0.38%   10.59%    3.37%    2.36%
  7  1     7    1  |0 0>          0.81%   13.65%    9.16%    2.19%    2.20%    0.44%    0.12%    0.28%
  8  1     8    1  |0 0>          0.15%    0.11%    4.26%   21.93%    0.93%    5.26%    0.16%    1.91%
  9  1     9    1  |0 0>          0.04%    0.41%    7.18%    5.56%   20.05%    4.05%    0.36%    0.66%
 10  1    10    1  |0 0>         40.22%    0.22%    0.44%    0.07%    0.07%    0.34%    0.00%    0.00%
 11  1     1    1  |1 1>+         0.08%    0.73%    0.26%    1.68%    0.10%    3.02%    0.20%    1.29%
 12  1     2    1  |1 1>+         0.03%    0.06%    1.07%    5.84%    0.68%    2.28%    6.04%    3.53%
 13  1     3    1  |1 1>+         0.17%    2.84%    8.81%   10.97%    0.18%    0.83%    0.97%    0.60%
 14  1     4    1  |1 1>+         0.01%    7.50%    4.42%    3.72%    4.44%    0.79%    1.91%    4.20%
 15  1     5    1  |1 1>+         0.00%    0.12%    1.51%    0.04%    0.17%    9.84%    2.84%    1.99%
 16  1     6    1  |1 1>+         0.00%    0.53%    7.99%    3.91%   12.41%    3.46%    0.01%    0.24%
 17  1     7    1  |1 1>+        18.58%    0.11%    0.01%    0.10%    0.21%    0.97%    4.93%    1.89%
 18  1     8    1  |1 1>+         0.13%    9.95%    0.21%    0.00%    5.18%    0.03%    4.99%    3.16%
 19  1     9    1  |1 1>+         0.00%    0.05%    0.70%    0.27%    0.26%    0.48%    0.39%    1.77%
 20  1     1    1  |1 0>          0.01%    2.32%    0.68%    0.44%    5.04%    0.51%    0.29%    0.56%
 21  1     2    1  |1 0>          0.01%   11.32%    4.43%    4.81%    4.77%    2.02%    0.05%    0.01%
 22  1     3    1  |1 0>          0.00%    0.19%    0.44%    0.12%    0.44%    0.47%    9.30%   13.96%
 23  1     4    1  |1 0>          0.01%    0.77%    5.70%   14.33%    0.86%    0.75%    2.60%    1.47%
 24  1     5    1  |1 0>          0.22%    5.30%    9.18%    2.11%    1.94%    0.12%    0.15%    0.67%
 25  1     6    1  |1 0>          0.01%    0.44%    0.18%    0.19%    0.51%    0.35%   11.60%    5.26%
 26  1     7    1  |1 0>          0.10%    3.66%    0.30%    1.17%    9.35%    2.32%    0.03%    0.63%
 27  1     8    1  |1 0>          0.15%    2.50%    2.54%    0.26%    0.41%    9.53%    1.01%    0.26%
 28  1     9    1  |1 0>         18.29%    0.09%    0.70%    0.08%    0.09%    6.11%    0.01%    0.50%
 29  1     1    1  |1 1>-         0.08%    2.51%    0.24%    0.03%    0.51%    0.00%    0.07%    0.40%
 30  1     2    1  |1 1>-         0.44%    8.71%    4.03%    0.27%    0.52%    0.72%    0.16%    0.48%
 31  1     3    1  |1 1>-         0.01%    0.42%    7.81%    3.89%   12.72%    3.55%    0.00%    0.13%
 32  1     4    1  |1 1>-         0.02%    0.23%    1.14%    0.33%    0.30%    9.23%    3.03%    2.06%
 33  1     5    1  |1 1>-         0.00%    7.61%    2.15%    3.65%    3.53%    3.17%    2.69%    2.99%
 34  1     6    1  |1 1>-         0.17%    2.73%    8.67%   10.60%    0.19%    0.93%    0.94%    0.65%
 35  1     7    1  |1 1>-         0.11%    5.69%    0.21%    0.06%    3.36%    0.46%    2.58%   10.81%
 36  1     8    1  |1 1>-        18.97%    0.05%    0.53%    0.02%    0.02%    2.75%    4.96%    1.61%
 37  1     9    1  |1 1>-         0.28%    1.83%    1.54%    0.02%    0.02%    1.57%    5.47%    7.95%

   Total
 Nr Sym  State Sym Spin / Nr.     33       34       35       36       37

  1  1     1    1  |0 0>          0.00%    0.00%    0.00%    0.00%    0.01%
  2  1     2    1  |0 0>          2.27%    0.66%    0.71%    0.81%    0.02%
  3  1     3    1  |0 0>         13.35%    0.52%    1.94%    0.48%    0.03%
  4  1     4    1  |0 0>          2.22%    8.12%    3.01%    3.20%    0.20%
  5  1     5    1  |0 0>          5.16%    0.33%    4.60%    0.10%    0.01%
  6  1     6    1  |0 0>          4.46%    1.89%    7.58%    0.60%    0.01%
  7  1     7    1  |0 0>          1.40%    9.30%    1.09%    4.09%    0.15%
  8  1     8    1  |0 0>          2.34%    1.34%    4.50%    1.10%    0.03%
  9  1     9    1  |0 0>          0.11%    1.51%    0.96%    2.95%    0.02%
 10  1    10    1  |0 0>          0.01%    0.00%    1.81%    0.68%   55.56%
 11  1     1    1  |1 1>+         1.53%    1.13%    4.31%    1.41%    0.04%
 12  1     2    1  |1 1>+         8.71%    0.52%    0.63%    0.06%    0.01%
 13  1     3    1  |1 1>+         2.08%    0.03%    1.87%    0.75%    0.04%
 14  1     4    1  |1 1>+         0.75%    0.43%    0.64%    1.31%    0.00%
 15  1     5    1  |1 1>+         1.10%    0.31%   11.21%    0.25%    0.04%
 16  1     6    1  |1 1>+         0.29%    0.34%    0.22%    0.74%    0.01%
 17  1     7    1  |1 1>+         4.29%    0.91%    0.94%    1.14%   13.96%
 18  1     8    1  |1 1>+         0.35%    0.19%    2.35%   16.33%    0.12%
 19  1     9    1  |1 1>+         5.09%   33.28%    0.49%    0.57%    0.01%
 20  1     1    1  |1 0>          0.12%    0.45%    0.34%    4.82%    0.02%
 21  1     2    1  |1 0>          0.01%    0.05%    0.11%    2.35%    0.01%
 22  1     3    1  |1 0>          2.25%    0.90%    0.95%    0.09%    0.01%
 23  1     4    1  |1 0>          3.14%    0.36%    0.06%    0.09%    0.00%
 24  1     5    1  |1 0>          0.76%    4.47%    2.04%    3.28%    0.59%
 25  1     6    1  |1 0>          8.80%    1.02%    0.38%    0.38%    0.00%
 26  1     7    1  |1 0>          0.48%    6.06%    3.40%   15.42%    0.74%
 27  1     8    1  |1 0>          0.14%    1.44%   17.37%    8.03%    0.42%
 28  1     9    1  |1 0>          0.25%    0.49%    7.75%    0.01%   12.82%
 29  1     1    1  |1 1>-         1.04%    8.35%    0.37%    2.26%    0.05%
 30  1     2    1  |1 1>-         1.49%    7.22%    2.61%    2.89%    0.25%
 31  1     3    1  |1 1>-         0.27%    0.36%    0.23%    0.70%    0.01%
 32  1     4    1  |1 1>-         4.11%    1.67%    6.50%    0.63%    0.01%
 33  1     5    1  |1 1>-         0.36%    0.08%    0.05%    4.07%    0.04%
 34  1     6    1  |1 1>-         2.41%    0.04%    1.94%    0.80%    0.07%
 35  1     7    1  |1 1>-         1.99%    2.33%    0.09%   15.62%    0.06%
 36  1     8    1  |1 1>-         2.88%    0.30%    1.64%    0.18%   14.58%
 37  1     9    1  |1 1>-        14.00%    3.62%    5.30%    1.80%    0.04%



 **********************************************************************************************************************************
 DATASETS  * FILE   NREC   LENGTH (MB)   RECORD NAMES
              1      21       93.78       500      610      700      900      950      970     1000      129      960     1100   
                                          VAR    BASINP    GEOM    SYMINP    ZMAT    AOBASIS   BASIS     P2S    ABASIS      S 
                                         1400     1410     1420     1200     1210     1080     1700     1600     1650     1380   
                                           T        V       ECP      H0       H01     AOSYM    OPER      SMH    MOLCAS    JKOP   
                                         1700(1)
                                         OPER   

              2       7    13037.55       700     1000      520     2100     2140     5201     5202   
                                         GEOM     BASIS   MCVARS     RHF     MCSCF    MRCI     MRCI   

 PROGRAMS   *        TOTAL        CI        CI        CI     MULTI   RHF-SCF       INT
 CPU TIMES  *   2125089.912029978.91  50512.42  44577.19     13.14      0.72      7.28
 REAL TIME  *   2140328.42 SEC
 DISK USED  *        12.82 GB (local),      180.60 GB (total)
 SF USED    *        72.14 GB
 GA USED    *         0.00 MB       (max)       0.00 MB       (current)
 **********************************************************************************************************************************

 CI/aug-cc-pWCV5Z-PP energy=   -462.930153215028

              CI              CI           MULTI         RHF-SCF
   -462.88345973   -462.87003025   -461.79354328   -462.20021392
 **********************************************************************************************************************************
 Molpro calculation terminated with 1 warning(s)
