
 Working directory              : /wrk/irikura/molpro.lQK7Hl3cWH/
 Global scratch directory       : /wrk/irikura/molpro.lQK7Hl3cWH/
 Wavefunction directory         : /home/irikura/wfu/
 Main file repository           : /wrk/irikura/molpro.lQK7Hl3cWH/

 id        : nistki

 Nodes            nprocs
 pn125343.nist.gov   12
 GA implementation: MPI file
 GA implementation (serial work in mppx): MPI file

 Using customized tuning parameters: mindgm=1; mindgv=20; mindgc=4; mindgr=1; noblas=0; minvec=7
 default implementation of scratch files=sf  


 Variables initialized (1042), CPU time= 0.00 sec
 ***,Kr SO-CI
                                                                                 ! active space (8/8)
 memory,4000,M;
 
 gprint,orbitals,civector;
                                                                                 !gthresh,energy=1.d-10,coeff=1.d-8;
 
 symmetry,xyz
 geometry={Kr};
 
 basis=aug-cc-pwCVTZ-X2C
 
 set,dkho=101
 
                                                                                 ! cation orbitals
 {rhf;wf,nelec=35,sym=1,spin=1}
 
 {multi,wmk
     occ,10,12
     wf,nelec=36,sym=1,spin=0;state,10;
     wf,nelec=36,sym=1,spin=2;state,9;
     expec2,lxx,lyy,lzz;
 }
 table, energy, ll
 title, Energies and &lt;L**2&gt; values
 
 core,2,3
 
 {ci;wf,sym=1,spin=0;state,10; save,5201.2}
 hlsdiag = energd4
 {ci;wf,sym=1,spin=2;state,9; save,5202.2}
 hlsdiag(11) = energd
 
 table,hlsdiag
 
 lsint                                                                           ! fails without this line
 {ci;hlsmat,ls,5201.2,5202.2;print,vls=0,hls=0}                                  !compute and diagonalize SO matrix
 Commands initialized (847), CPU time= 0.01 sec, 718 directives.
 Default parameters read. Elapsed time= 0.09 sec

 Checking input...
 Passed
1


                                         ***  PROGRAM SYSTEM MOLPRO  ***
                                       Copyright, TTI GmbH Stuttgart, 2015
                                    Version 2024.1 linked Wed Jan 31 05:42:09 2024


 **********************************************************************************************************************************
 LABEL *   Kr SO-CI                                                                                                                                                      
  (64 PROC) 64 bit mpp version                                                           DATE: 15-May-24          TIME: 08:47:08  
 **********************************************************************************************************************************

 SHA1:             675817fde4514a4a933b69e420913a90cee4ef91
 **********************************************************************************************************************************

 Memory per process:      4000 MW
 Total memory per node:  48000 MW

 GA preallocation disabled
 GA check disabled

 Variable memory set to 4000.0 MW


 ZSYMEL=XYZ

 SETTING BASIS          =    AUG-CC-PWCVTZ-X2C
 SETTING DKHO           =       101.00000000                                  


 Recomputing integrals since basis changed


 Using spherical harmonics

 Library entry KR     S aug-cc-pwCVTZ-X      selected for orbital group  1
 Library entry KR     P aug-cc-pwCVTZ-X      selected for orbital group  1
 Library entry KR     D aug-cc-pwCVTZ-X      selected for orbital group  1
 Library entry KR     F aug-cc-pwCVTZ-X      selected for orbital group  1
 Library entry KR     G aug-cc-pwCVTZ-X      selected for orbital group  1


 PROGRAM * SEWARD (Integral evaluation for generally contracted gaussian basis sets)     Author: Roland Lindh, 1990

 Geometry written to block  1 of record 700

 Orientation using atomic masses  
 Molecule type: Atom
 User-specified symmetry elements: XYZ
 Symmetry elements: XYZ
 Rotational constants:       0.0000000      0.0000000      0.0000000 GHz  (calculated with average atomic masses)

 Point group  Ci  



 ATOMIC COORDINATES

 NR  ATOM    CHARGE       X              Y              Z

   1  KR     36.00    0.000000000    0.000000000    0.000000000

 NUCLEAR CHARGE:                   36
 NUMBER OF PRIMITIVE AOS:         198
 NUMBER OF SYMMETRY AOS:          168
 NUMBER OF CONTRACTIONS:          100   (   48Ag  +   52Au  )
 NUMBER OF INNER CORE ORBITALS:     5   (    2Ag  +    3Au  )
 NUMBER OF OUTER CORE ORBITALS:     9   (    6Ag  +    3Au  )
 NUMBER OF VALENCE ORBITALS:        4   (    1Ag  +    3Au  )


 NUCLEAR REPULSION ENERGY    0.00000000

 One-electron integrals computed with SEWARD

 eXact-2-Component (X2C) method activated

 Computing Douglas-Kroll / X2C integrals

 AO integral compression algorithm  1   Integral accuracy      1.0D-11

     16.515 MB (compressed) written to integral file ( 15.8%)

     Node minimum: 0.524 MB, node maximum: 2.097 MB


 NUMBER OF SORTED TWO-ELECTRON INTEGRALS:     539064.     BUFFER LENGTH:  32768
 NUMBER OF SEGMENTS:   1  SEGMENT LENGTH:     539064      RECORD LENGTH: 524288

 Memory used in sort:       1.10 MW

 SORT1 READ    12736444. AND WROTE      107443. INTEGRALS IN      1 RECORDS. CPU TIME:     0.07 SEC, REAL TIME:     0.07 SEC
 SORT2 READ     1292800. AND WROTE     6503791. INTEGRALS IN     72 RECORDS. CPU TIME:     0.01 SEC, REAL TIME:     0.01 SEC

 Node minimum:      538852.  Node maximum:      543546. integrals

 OPERATOR DM      FOR CENTER  0  COORDINATES:    0.000000    0.000000    0.000000

 EXTRA SYMMETRY OF AOS IN SYMMETRY 1:   1 1 1 1 1 1 1 1 1 2   3 4 5 6 2 3 4 5 6 2   3 4 5 6 2 3 4 5 6 2   3 4 5 6 2 3 4 5 6 7
                                        8 9101112131415
 EXTRA SYMMETRY OF AOS IN SYMMETRY 2:   1 2 3 1 2 3 1 2 3 1   2 3 1 2 3 1 2 3 1 2   3 1 2 3 4 5 6 7 8 9  10 4 5 6 7 8 910 4 5
                                        6 7 8 910 4 5 6 7 8   910

 Eigenvalues of metric

         1 0.929E-04 0.237E-02 0.161E-01 0.383E-01 0.383E-01 0.383E-01 0.383E-01 0.383E-01
         2 0.294E-02 0.294E-02 0.294E-02 0.124E-01 0.124E-01 0.124E-01 0.713E-01 0.713E-01


 **********************************************************************************************************************************
 DATASETS  * FILE   NREC   LENGTH (MB)   RECORD NAMES
              1      22       29.08       500      610      700      900      950      970     1000      129      960     1700   
                                          VAR    BASINP    GEOM    SYMINP    ZMAT    AOBASIS   BASIS     P2S    ABASIS    OPER   
                                         1101     1401     1411     1412     1650     1100     1400     1410     1200     1210   
                                          SR      EKINR    POTR     PVPR    MOLCAS      S      EKIN      POT      H0       H01  
                                         1080     1600   
                                         AOSYM     SMH  

 PROGRAMS   *        TOTAL       INT
 CPU TIMES  *         1.21      1.02
 REAL TIME  *         2.70 SEC
 DISK USED  *        29.42 MB (local),      409.17 MB (total)
 GA USED    *         0.00 MB       (max)       0.00 MB       (current)
 **********************************************************************************************************************************


 Program * Restricted Hartree-Fock

 Orbital guess generated from atomic densities.

 Initial alpha occupancy:   9   9
 Initial beta  occupancy:   8   9

 NELEC=   35   SYM=1   MS2= 1   THRE=1.0D-08   THRD=3.2D-06   THRG=3.2D-06  HFMA2=F  DIIS_START=2   DIIS_MAX=10   DIIS_INCORE=F

 Level shifts:    0.00 (CLOSED)    0.00 (OPEN)    0.30 (GAP_MIN)

 ITER           ETOT              DE          GRAD        DDIFF     DIIS  NEXP   TIME(IT)  TIME(TOT)  DIAG
   1    -2787.10627766   -2787.10627766     0.00D+00     0.17D+00     0     0       0.00      0.01    start
   2    -2787.14740453      -0.04112687     0.13D-01     0.12D-01     1     0       0.01      0.02    diag2
   3    -2787.14831045      -0.00090592     0.35D-02     0.26D-02     2     0       0.00      0.02    diag2
   4    -2787.14838654      -0.00007608     0.52D-03     0.11D-02     3     0       0.01      0.03    diag2
   5    -2787.14839322      -0.00000668     0.21D-03     0.20D-03     4     0       0.00      0.03    diag2
   6    -2787.14839329      -0.00000008     0.10D-04     0.19D-04     5     0       0.01      0.04    diag2
   7    -2787.14839330      -0.00000000     0.12D-05     0.31D-05     6     0       0.00      0.04    diag2
   8    -2787.14839330      -0.00000000     0.63D-07     0.20D-06     0     0       0.01      0.05    fixocc

 Final alpha occupancy:   9   9
 Final beta  occupancy:   8   9

 !RHF STATE 1.1 Energy              -2787.148393296769
  RHF One-electron energy           -3858.448109383316
  RHF Two-electron energy            1071.299716086547
  RHF Kinetic energy                 2992.657684350588
  RHF Nuclear energy                    0.000000000000
  RHF Virial quotient                  -0.931328834524

 !RHF STATE 1.1 Dipole moment           0.00000000     0.00000000     0.00000000
 Dipole moment /Debye                   0.00000000     0.00000000     0.00000000

 ELECTRON ORBITALS
 =================

  Orbital  Occupation    Energy    Cen Mu Typ  Coefficients
    1.1     2.00000  -529.89690     1  1  s    0.99998
    2.1     2.00000   -72.56316     1  2  s    0.99979
    3.1     2.00000   -11.72373     1  3  s    0.99756
    4.1     2.00000    -4.26020     1  1  d0   1.00120
    5.1     2.00000    -4.26020     1  1  d1-  1.00117
    6.1     2.00000    -4.26020     1  1  d1+  1.00118
    7.1     2.00000    -4.26020     1  1  d2-  1.00115
    8.1     2.00000    -4.26020     1  1  d2+  1.00113
    9.1     1.00000    -1.67243     1  4  s    1.08585
    1.2     2.00000   -64.03313     1  1  pz   0.99993
    2.2     2.00000   -64.03313     1  1  py   0.99993
    3.2     2.00000   -64.03313     1  1  px   0.99993
    4.2     2.00000    -8.92472     1  2  py   1.00048
    5.2     2.00000    -8.92472     1  2  px   1.00048
    6.2     2.00000    -8.92472     1  2  pz   1.00048
    7.2     2.00000    -0.90992     1  3  py   1.08549
    8.2     2.00000    -0.90992     1  3  px   1.08549
    9.2     2.00000    -0.90992     1  3  pz   1.08549


 HOMO      9.2    -0.909916 =     -24.7601eV
 LUMO     10.1    -0.122150 =      -3.3239eV
 LUMO-HOMO         0.787766 =      21.4362eV

 Orbitals saved in record  2100.2


 **********************************************************************************************************************************
 DATASETS  * FILE   NREC   LENGTH (MB)   RECORD NAMES
              1      22       29.08       500      610      700      900      950      970     1000      129      960     1700   
                                          VAR    BASINP    GEOM    SYMINP    ZMAT    AOBASIS   BASIS     P2S    ABASIS    OPER   
                                         1101     1401     1411     1412     1650     1100     1400     1410     1200     1210   
                                          SR      EKINR    POTR     PVPR    MOLCAS      S      EKIN      POT      H0       H01  
                                         1080     1600   
                                         AOSYM     SMH  

              2       4        0.54       700     1000      520     2100   
                                         GEOM     BASIS   MCVARS     RHF  

 PROGRAMS   *        TOTAL   RHF-SCF       INT
 CPU TIMES  *         1.26      0.05      1.02
 REAL TIME  *         2.76 SEC
 DISK USED  *        30.30 MB (local),      419.62 MB (total)
 GA USED    *         0.00 MB       (max)       0.00 MB       (current)
 **********************************************************************************************************************************

 PROGRAM * MULTI (Direct Multiconfiguration SCF)       Authors: P.J. Knowles, H.-J. Werner (1984)
                                                                D.A. Kreplin, P.J. Knowles, H.-J. Werner (2019)

 Number of closed-shell orbitals:  14 (    8    6)
 Number of active  orbitals:        8 (    2    6)
 Number of external orbitals:      78 (   38   40)

 State symmetry 1

 Number of active electrons:   8    Spin symmetry=Singlet   Space symmetry=1
 Number of states:            10
 Number of CSFs:             924   (2500 determinants, 4900 intermediate states)

 State symmetry 2

 Number of active electrons:   8    Spin symmetry=Triplet   Space symmetry=1
 Number of states:             9
 Number of CSFs:            1176   (1576 determinants, 3136 intermediate states)

 Molecular orbitals read from record     2100.2  Type=RHF/CANONICAL  
 *** IN SYMMETRY 1 ORBITAL  4 SYMMETRY CONTAMINATION OF 0.797D-02 HAS BEEN REMOVED
 *** IN SYMMETRY 1 ORBITAL  5 SYMMETRY CONTAMINATION OF 0.138D-01 HAS BEEN REMOVED
 *** IN SYMMETRY 1 ORBITAL  6 SYMMETRY CONTAMINATION OF 0.110D-01 HAS BEEN REMOVED
 *** IN SYMMETRY 1 ORBITAL  7 SYMMETRY CONTAMINATION OF 0.159D-01 HAS BEEN REMOVED
 *** IN SYMMETRY 1 ORBITAL  8 SYMMETRY CONTAMINATION OF 0.189D-01 HAS BEEN REMOVED

 EXTRA SYMMETRY OF MOS IN SYMMETRY 1:   1 1 1 2 6 4 3 5 1 1   2 4 6 3 5 1 4 6 3 5   2 4 6 3 5 2 1 6 4 3   5 2 7 812 911101314
                                       15 1 2 6 4 5 3 1
 *** IN SYMMETRY 2 ORBITAL  1 SYMMETRY CONTAMINATION OF 0.558D-02 HAS BEEN REMOVED
 *** IN SYMMETRY 2 ORBITAL  2 SYMMETRY CONTAMINATION OF 0.492D-02 HAS BEEN REMOVED
 *** IN SYMMETRY 2 ORBITAL  3 SYMMETRY CONTAMINATION OF 0.410D-02 HAS BEEN REMOVED
 *** IN SYMMETRY 2 ORBITAL  4 SYMMETRY CONTAMINATION OF 0.766D-03 HAS BEEN REMOVED
 *** IN SYMMETRY 2 ORBITAL  6 SYMMETRY CONTAMINATION OF 0.766D-03 HAS BEEN REMOVED
 *** IN SYMMETRY 2 ORBITAL  7 SYMMETRY CONTAMINATION OF 0.117D-02 HAS BEEN REMOVED
 *** IN SYMMETRY 2 ORBITAL  8 SYMMETRY CONTAMINATION OF 0.430D-04 HAS BEEN REMOVED
 *** IN SYMMETRY 2 ORBITAL  9 SYMMETRY CONTAMINATION OF 0.117D-02 HAS BEEN REMOVED
 *** IN SYMMETRY 2 ORBITAL 10 SYMMETRY CONTAMINATION OF 0.728D-02 HAS BEEN REMOVED
 *** IN SYMMETRY 2 ORBITAL 11 SYMMETRY CONTAMINATION OF 0.404D-02 HAS BEEN REMOVED
 *** IN SYMMETRY 2 ORBITAL 12 SYMMETRY CONTAMINATION OF 0.595D-02 HAS BEEN REMOVED
 EXTRA SYMMETRY OF MOS IN SYMMETRY 2:   3 2 1 2 1 3 2 1 3 3   2 1 2 1 3 4 5 6 9 7   810 2 1 3 4 5 9 7 6  10 8 6 810 4 5 7 9 2
                                        1 3 5 4 6 7 910 8 2   1 3

 Wavefunction dump at record             2140.2

 Convergence thresholds  0.10E-04 (gradient)  0.10E-05 (energy)

 Weight factors for state symmetry  1:    0.05263   0.05263   0.05263   0.05263   0.05263   0.05263   0.05263   0.05263
                                          0.05263   0.05263
 Weight factors for state symmetry  2:    0.05263   0.05263   0.05263   0.05263   0.05263   0.05263   0.05263   0.05263
                                          0.05263
 
 Number of orbital rotations:  912  ( 52 closed/active, 544 closed/virtual, 0 active/active, 316 active/virtual )
 Total number of variables:    40096
 
 Second-order MCSCF: L-BFGS accelerated
 
 ITER  MIC  NCI  NEG     ENERGY(VAR)    ENERGY(PROJ) ENERGY CHANGE       GRAD(0)  GRAD(ORB)   GRAD(CI)      STEP      TIME
   1    6   30    0  -2787.89056013   -2787.89417619   -0.00361606    0.10955966 0.00022719 0.00069570  0.84E+00      3.97
   2   11   45    0  -2787.89419676   -2787.89420108   -0.00000432    0.00111652 0.00000011 0.00000038  0.35E-01     11.53
   3    3   12    0  -2787.89420108   -2787.89420108   -0.00000000    0.00000048 0.00000001 0.00000003  0.34E-05     13.19

 CONVERGENCE REACHED!  Final gradient:    0.00000010 ( 0.98E-07)
                       Final energy:  -2787.89420108
 
 Results for state 1.1 Singlet
 =============================
 !MCSCF STATE 1.1 Singlet Energy             -2788.276476312793
 Nuclear energy                                  0.00000000
 Kinetic energy                               2995.13628575
 One electron energy                         -3879.21251167
 Two electron energy                          1090.93603536
 Virial ratio                                    1.93093476
 
 !MCSCF STATE 1.1 Singlet Dipole moment          0.00000000     0.00000000     0.00000000
 Dipole moment /Debye                            0.00000000     0.00000000     0.00000000
 
 Results for state 2.1 Singlet
 =============================
 !MCSCF STATE 2.1 Singlet Energy             -2787.874567223978
 Nuclear energy                                  0.00000000
 Kinetic energy                               2993.58958115
 One electron energy                         -3867.59738672
 Two electron energy                          1079.72281950
 Virial ratio                                    1.93128149
 
 !MCSCF STATE 2.1 Singlet Dipole moment          0.00000000     0.00000000     0.00000000
 Dipole moment /Debye                            0.00000000     0.00000000     0.00000000
 
 Results for state 3.1 Singlet
 =============================
 !MCSCF STATE 3.1 Singlet Energy             -2787.874567223978
 Nuclear energy                                  0.00000000
 Kinetic energy                               2993.58958115
 One electron energy                         -3867.59738672
 Two electron energy                          1079.72281950
 Virial ratio                                    1.93128149
 
 !MCSCF STATE 3.1 Singlet Dipole moment          0.00000000     0.00000000     0.00000000
 Dipole moment /Debye                            0.00000000     0.00000000     0.00000000
 
 Results for state 4.1 Singlet
 =============================
 !MCSCF STATE 4.1 Singlet Energy             -2787.874567223969
 Nuclear energy                                  0.00000000
 Kinetic energy                               2993.58958115
 One electron energy                         -3867.59738672
 Two electron energy                          1079.72281950
 Virial ratio                                    1.93128149
 
 !MCSCF STATE 4.1 Singlet Dipole moment          0.00000000     0.00000000     0.00000000
 Dipole moment /Debye                            0.00000000     0.00000000     0.00000000
 
 Results for state 5.1 Singlet
 =============================
 !MCSCF STATE 5.1 Singlet Energy             -2787.874567223928
 Nuclear energy                                  0.00000000
 Kinetic energy                               2993.58958115
 One electron energy                         -3867.59738672
 Two electron energy                          1079.72281950
 Virial ratio                                    1.93128149
 
 !MCSCF STATE 5.1 Singlet Dipole moment          0.00000000     0.00000000     0.00000000
 Dipole moment /Debye                            0.00000000     0.00000000     0.00000000
 
 Results for state 6.1 Singlet
 =============================
 !MCSCF STATE 6.1 Singlet Energy             -2787.874567223917
 Nuclear energy                                  0.00000000
 Kinetic energy                               2993.58958115
 One electron energy                         -3867.59738672
 Two electron energy                          1079.72281950
 Virial ratio                                    1.93128149
 
 !MCSCF STATE 6.1 Singlet Dipole moment          0.00000000     0.00000000     0.00000000
 Dipole moment /Debye                            0.00000000     0.00000000     0.00000000
 
 Results for state 7.1 Singlet
 =============================
 !MCSCF STATE 7.1 Singlet Energy             -2787.869934665801
 Nuclear energy                                  0.00000000
 Kinetic energy                               2993.57641356
 One electron energy                         -3867.56064684
 Two electron energy                          1079.69071218
 Virial ratio                                    1.93128404
 
 !MCSCF STATE 7.1 Singlet Dipole moment          0.00000000     0.00000000     0.00000000
 Dipole moment /Debye                            0.00000000     0.00000000     0.00000000
 
 Results for state 8.1 Singlet
 =============================
 !MCSCF STATE 8.1 Singlet Energy             -2787.869934665801
 Nuclear energy                                  0.00000000
 Kinetic energy                               2993.57641356
 One electron energy                         -3867.56064684
 Two electron energy                          1079.69071218
 Virial ratio                                    1.93128404
 
 !MCSCF STATE 8.1 Singlet Dipole moment          0.00000000     0.00000000     0.00000000
 Dipole moment /Debye                            0.00000000     0.00000000     0.00000000
 
 Results for state 9.1 Singlet
 =============================
 !MCSCF STATE 9.1 Singlet Energy             -2787.869934665794
 Nuclear energy                                  0.00000000
 Kinetic energy                               2993.57641356
 One electron energy                         -3867.56064684
 Two electron energy                          1079.69071218
 Virial ratio                                    1.93128404
 
 !MCSCF STATE 9.1 Singlet Dipole moment          0.00000000     0.00000000     0.00000000
 Dipole moment /Debye                            0.00000000     0.00000000     0.00000000
 
 Results for state 10.1 Singlet
 ==============================
 !MCSCF STATE 10.1 Singlet Energy            -2787.841856080731
 Nuclear energy                                  0.00000000
 Kinetic energy                               2994.17607659
 One electron energy                         -3869.63086790
 Two electron energy                          1081.78901182
 Virial ratio                                    1.93108815
 
 !MCSCF STATE 10.1 Singlet Dipole moment         0.00000000     0.00000000     0.00000000
 Dipole moment /Debye                            0.00000000     0.00000000     0.00000000
 
 Results for state 1.1 Triplet
 =============================
 !MCSCF STATE 1.1 Triplet Energy             -2787.889903828362
 Nuclear energy                                  0.00000000
 Kinetic energy                               2993.52570844
 One electron energy                         -3867.41042442
 Two electron energy                          1079.52052059
 Virial ratio                                    1.93130648
 
 !MCSCF STATE 1.1 Triplet Dipole moment          0.00000000     0.00000000     0.00000000
 Dipole moment /Debye                            0.00000000     0.00000000     0.00000000
 
 Results for state 2.1 Triplet
 =============================
 !MCSCF STATE 2.1 Triplet Energy             -2787.877656805474
 Nuclear energy                                  0.00000000
 Kinetic energy                               2993.55795153
 One electron energy                         -3867.50544128
 Two electron energy                          1079.62778447
 Virial ratio                                    1.93129236
 
 !MCSCF STATE 2.1 Triplet Dipole moment          0.00000000     0.00000000     0.00000000
 Dipole moment /Debye                            0.00000000     0.00000000     0.00000000
 
 Results for state 3.1 Triplet
 =============================
 !MCSCF STATE 3.1 Triplet Energy             -2787.877656805461
 Nuclear energy                                  0.00000000
 Kinetic energy                               2993.55795153
 One electron energy                         -3867.50544128
 Two electron energy                          1079.62778447
 Virial ratio                                    1.93129236
 
 !MCSCF STATE 3.1 Triplet Dipole moment          0.00000000     0.00000000     0.00000000
 Dipole moment /Debye                            0.00000000     0.00000000     0.00000000
 
 Results for state 4.1 Triplet
 =============================
 !MCSCF STATE 4.1 Triplet Energy             -2787.877656805423
 Nuclear energy                                  0.00000000
 Kinetic energy                               2993.55795153
 One electron energy                         -3867.50544128
 Two electron energy                          1079.62778447
 Virial ratio                                    1.93129236
 
 !MCSCF STATE 4.1 Triplet Dipole moment          0.00000000     0.00000000     0.00000000
 Dipole moment /Debye                            0.00000000     0.00000000     0.00000000
 
 Results for state 5.1 Triplet
 =============================
 !MCSCF STATE 5.1 Triplet Energy             -2787.877656805423
 Nuclear energy                                  0.00000000
 Kinetic energy                               2993.55795153
 One electron energy                         -3867.50544128
 Two electron energy                          1079.62778447
 Virial ratio                                    1.93129236
 
 !MCSCF STATE 5.1 Triplet Dipole moment          0.00000000     0.00000000     0.00000000
 Dipole moment /Debye                            0.00000000     0.00000000     0.00000000
 
 Results for state 6.1 Triplet
 =============================
 !MCSCF STATE 6.1 Triplet Energy             -2787.877656805414
 Nuclear energy                                  0.00000000
 Kinetic energy                               2993.55795153
 One electron energy                         -3867.50544127
 Two electron energy                          1079.62778447
 Virial ratio                                    1.93129236
 
 !MCSCF STATE 6.1 Triplet Dipole moment          0.00000000     0.00000000     0.00000000
 Dipole moment /Debye                            0.00000000     0.00000000     0.00000000
 
 Results for state 7.1 Triplet
 =============================
 !MCSCF STATE 7.1 Triplet Energy             -2787.870220059234
 Nuclear energy                                  0.00000000
 Kinetic energy                               2993.57241337
 One electron energy                         -3867.54665589
 Two electron energy                          1079.67643584
 Virial ratio                                    1.93128538
 
 !MCSCF STATE 7.1 Triplet Dipole moment          0.00000000     0.00000000     0.00000000
 Dipole moment /Debye                            0.00000000     0.00000000     0.00000000
 
 Results for state 8.1 Triplet
 =============================
 !MCSCF STATE 8.1 Triplet Energy             -2787.870220059234
 Nuclear energy                                  0.00000000
 Kinetic energy                               2993.57241337
 One electron energy                         -3867.54665589
 Two electron energy                          1079.67643584
 Virial ratio                                    1.93128538
 
 !MCSCF STATE 8.1 Triplet Dipole moment          0.00000000     0.00000000     0.00000000
 Dipole moment /Debye                            0.00000000     0.00000000     0.00000000
 
 Results for state 9.1 Triplet
 =============================
 !MCSCF STATE 9.1 Triplet Energy             -2787.870220059227
 Nuclear energy                                  0.00000000
 Kinetic energy                               2993.57241337
 One electron energy                         -3867.54665589
 Two electron energy                          1079.67643584
 Virial ratio                                    1.93128538
 
 !MCSCF STATE 9.1 Triplet Dipole moment          0.00000000     0.00000000     0.00000000
 Dipole moment /Debye                            0.00000000     0.00000000     0.00000000
 
 State-averaged charge density matrix saved on record 2140.2 (density set 1)
 
 No non-zero expectation values
 
 Expectation values for two-electron operators:
 
 ? Warning
 ? Transition properties are only calculated between states of the same symmetry
 ? The problem occurs in mu_properties_expec2

 !MCSCF expec      <1.1 Singlet|LXLX|1.1 Singlet>    -0.000000000000
 !MCSCF expec      <2.1 Singlet|LXLX|2.1 Singlet>     1.967128874460
 !MCSCF expec      <3.1 Singlet|LXLX|3.1 Singlet>     3.032868663616
 !MCSCF expec      <4.1 Singlet|LXLX|4.1 Singlet>     1.000002776253
 !MCSCF expec      <5.1 Singlet|LXLX|5.1 Singlet>     2.989246630868
 !MCSCF expec      <6.1 Singlet|LXLX|6.1 Singlet>     1.010753054802
 !MCSCF expec      <7.1 Singlet|LXLX|7.1 Singlet>     0.783578408073
 !MCSCF expec      <8.1 Singlet|LXLX|8.1 Singlet>     0.216427575789
 !MCSCF expec      <9.1 Singlet|LXLX|9.1 Singlet>     0.999994016137
 !MCSCF expec    <10.1 Singlet|LXLX|10.1 Singlet>    -0.000000000000
 !MCSCF expec      <1.1 Triplet|LXLX|1.1 Triplet>    -0.000000000000
 !MCSCF expec      <2.1 Triplet|LXLX|2.1 Triplet>     2.989420640346
 !MCSCF expec      <3.1 Triplet|LXLX|3.1 Triplet>     1.010579171957
 !MCSCF expec      <4.1 Triplet|LXLX|4.1 Triplet>     1.518301181690
 !MCSCF expec      <5.1 Triplet|LXLX|5.1 Triplet>     3.481693465599
 !MCSCF expec      <6.1 Triplet|LXLX|6.1 Triplet>     1.000005540408
 !MCSCF expec      <7.1 Triplet|LXLX|7.1 Triplet>     0.983897857758
 !MCSCF expec      <8.1 Triplet|LXLX|8.1 Triplet>     0.016102904764
 !MCSCF expec      <9.1 Triplet|LXLX|9.1 Triplet>     0.999999237477
 
 !MCSCF expec      <1.1 Singlet|LYLY|1.1 Singlet>    -0.000000000000
 !MCSCF expec      <2.1 Singlet|LYLY|2.1 Singlet>     3.032868986224
 !MCSCF expec      <3.1 Singlet|LYLY|3.1 Singlet>     1.967130609109
 !MCSCF expec      <4.1 Singlet|LYLY|4.1 Singlet>     1.000000764406
 !MCSCF expec      <5.1 Singlet|LYLY|5.1 Singlet>     3.010714251615
 !MCSCF expec      <6.1 Singlet|LYLY|6.1 Singlet>     0.989285388645
 !MCSCF expec      <7.1 Singlet|LYLY|7.1 Singlet>     0.216421744789
 !MCSCF expec      <8.1 Singlet|LYLY|8.1 Singlet>     0.783578967382
 !MCSCF expec      <9.1 Singlet|LYLY|9.1 Singlet>     0.999999287829
 !MCSCF expec    <10.1 Singlet|LYLY|10.1 Singlet>    -0.000000000000
 !MCSCF expec      <1.1 Triplet|LYLY|1.1 Triplet>    -0.000000000000
 !MCSCF expec      <2.1 Triplet|LYLY|2.1 Triplet>     3.010541964861
 !MCSCF expec      <3.1 Triplet|LYLY|3.1 Triplet>     0.989458198232
 !MCSCF expec      <4.1 Triplet|LYLY|4.1 Triplet>     3.481694934624
 !MCSCF expec      <5.1 Triplet|LYLY|5.1 Triplet>     1.518303730542
 !MCSCF expec      <6.1 Triplet|LYLY|6.1 Triplet>     1.000001171741
 !MCSCF expec      <7.1 Triplet|LYLY|7.1 Triplet>     0.016103317760
 !MCSCF expec      <8.1 Triplet|LYLY|8.1 Triplet>     0.983897645265
 !MCSCF expec      <9.1 Triplet|LYLY|9.1 Triplet>     0.999999036974
 
 !MCSCF expec      <1.1 Singlet|LZLZ|1.1 Singlet>    -0.000000000000
 !MCSCF expec      <2.1 Singlet|LZLZ|2.1 Singlet>     1.000002139315
 !MCSCF expec      <3.1 Singlet|LZLZ|3.1 Singlet>     1.000000727274
 !MCSCF expec      <4.1 Singlet|LZLZ|4.1 Singlet>     3.999996459342
 !MCSCF expec      <5.1 Singlet|LZLZ|5.1 Singlet>     0.000039117516
 !MCSCF expec      <6.1 Singlet|LZLZ|6.1 Singlet>     3.999961556553
 !MCSCF expec      <7.1 Singlet|LZLZ|7.1 Singlet>     0.999999847137
 !MCSCF expec      <8.1 Singlet|LZLZ|8.1 Singlet>     0.999993456829
 !MCSCF expec      <9.1 Singlet|LZLZ|9.1 Singlet>     0.000006696034
 !MCSCF expec    <10.1 Singlet|LZLZ|10.1 Singlet>    -0.000000000000
 !MCSCF expec      <1.1 Triplet|LZLZ|1.1 Triplet>    -0.000000000000
 !MCSCF expec      <2.1 Triplet|LZLZ|2.1 Triplet>     0.000037394793
 !MCSCF expec      <3.1 Triplet|LZLZ|3.1 Triplet>     3.999962629811
 !MCSCF expec      <4.1 Triplet|LZLZ|4.1 Triplet>     1.000003883686
 !MCSCF expec      <5.1 Triplet|LZLZ|5.1 Triplet>     1.000002803859
 !MCSCF expec      <6.1 Triplet|LZLZ|6.1 Triplet>     3.999993287851
 !MCSCF expec      <7.1 Triplet|LZLZ|7.1 Triplet>     0.999998824481
 !MCSCF expec      <8.1 Triplet|LZLZ|8.1 Triplet>     0.999999449970
 !MCSCF expec      <9.1 Triplet|LZLZ|9.1 Triplet>     0.000001725548
 
 !MCSCF expec      <1.1 Singlet|L**2|1.1 Singlet>    -0.000000000000
 !MCSCF expec      <2.1 Singlet|L**2|2.1 Singlet>     6.000000000000
 !MCSCF expec      <3.1 Singlet|L**2|3.1 Singlet>     6.000000000000
 !MCSCF expec      <4.1 Singlet|L**2|4.1 Singlet>     6.000000000000
 !MCSCF expec      <5.1 Singlet|L**2|5.1 Singlet>     6.000000000000
 !MCSCF expec      <6.1 Singlet|L**2|6.1 Singlet>     6.000000000000
 !MCSCF expec      <7.1 Singlet|L**2|7.1 Singlet>     2.000000000000
 !MCSCF expec      <8.1 Singlet|L**2|8.1 Singlet>     2.000000000000
 !MCSCF expec      <9.1 Singlet|L**2|9.1 Singlet>     2.000000000000
 !MCSCF expec    <10.1 Singlet|L**2|10.1 Singlet>    -0.000000000000
 !MCSCF expec      <1.1 Triplet|L**2|1.1 Triplet>    -0.000000000000
 !MCSCF expec      <2.1 Triplet|L**2|2.1 Triplet>     6.000000000000
 !MCSCF expec      <3.1 Triplet|L**2|3.1 Triplet>     6.000000000000
 !MCSCF expec      <4.1 Triplet|L**2|4.1 Triplet>     6.000000000000
 !MCSCF expec      <5.1 Triplet|L**2|5.1 Triplet>     6.000000000000
 !MCSCF expec      <6.1 Triplet|L**2|6.1 Triplet>     6.000000000000
 !MCSCF expec      <7.1 Triplet|L**2|7.1 Triplet>     2.000000000000
 !MCSCF expec      <8.1 Triplet|L**2|8.1 Triplet>     2.000000000000
 !MCSCF expec      <9.1 Triplet|L**2|9.1 Triplet>     2.000000000000
 
 EXTRA SYMMETRY OF MOS IN SYMMETRY 1:   1 1 1 2 6 4 3 5 1 1   1 2 4 6 5 3 4 6 3 5   2 6 4 3 5 2 1 6 4 3   5 21013 812 71415 9
                                       11 1 2 6 4 5 3 1
 EXTRA SYMMETRY OF MOS IN SYMMETRY 2:   2 3 1 2 1 3 1 3 2 2   1 3 2 1 3 4 5 6 9 7  10 8 2 1 3 4 5 9 7 6   810 6 7 9 810 4 5 2
                                        1 3 6 5 4 7 9 810 2   1 3
 
  NATURAL ORBITALS (STATE AVERAGED)
  =================================

  Orbital  Occupation    Energy    Cen Mu Typ  Coefficients
    1.1     2.00000  -529.62053     1  1  s    0.99997
    2.1     2.00000   -72.29267     1  2  s    0.99990
    3.1     2.00000   -11.43837     1  3  s    0.99891
    4.1     2.00000    -3.98699     1  1  d0   1.00040
    5.1     2.00000    -3.98699     1  1  d1-  1.00040
    6.1     2.00000    -3.98699     1  1  d1+  1.00040
    7.1     2.00000    -3.98699     1  1  d2-  1.00040
    8.1     2.00000    -3.98699     1  1  d2+  1.00040
    9.1     1.99888    -1.39692     1  4  s    1.05839
   10.1     0.00149     0.86881     1  3  s    0.84429    1  4  s    0.70084    1  5  s   -2.37486    1  6  s    0.95412
                                    1  7  s    0.85959
    1.2     2.00000   -63.75735     1  1  py   0.99997
    2.2     2.00000   -63.75735     1  1  pz   0.99997
    3.2     2.00000   -63.75735     1  1  px   0.99997
    4.2     2.00000    -8.65029     1  2  py   0.99964
    5.2     2.00000    -8.65029     1  2  px   0.99964
    6.2     2.00000    -8.65029     1  2  pz   0.99964
    7.2     1.68383    -0.64780     1  3  px   1.08528
    8.2     1.68383    -0.64780     1  3  pz   1.08528
    9.2     1.68383    -0.64780     1  3  py   1.08528
   10.2     0.31605     0.05378     1  5  py  -0.30474    1  8  py   1.21552
   11.2     0.31605     0.05378     1  5  px  -0.30474    1  8  px   1.21552
   12.2     0.31605     0.05378     1  5  pz  -0.30474    1  8  pz   1.21552
 
 Natural orbital dump (state averaged) at molpro section 2140.2 (Orbital set 2)
 
 Transform the CI vectors
 
 CI Coefficients of symmetry 1 (Singlet)
 =======================================

 State:              1               2               3               4               5               6               7
 20 222000      0.98144074     -0.00000000     -0.00000000      0.00000000     -0.00000000      0.00000000      0.00000000
 20 2a200b      0.07418541      0.00001577     -0.00012126      0.00023563      0.57695937     -0.00178778     -0.00000000
 20 2b200a     -0.07418541     -0.00001577      0.00012126     -0.00023563     -0.57695937      0.00178778      0.00000000
 20 22ba00     -0.07418541      0.00003008     -0.00000869      0.00014591      0.28693142     -0.50055541     -0.00000000
 20 22ab00      0.07418541     -0.00003008      0.00000869     -0.00014591     -0.28693142      0.50055541      0.00000000
 20 22a0b0     -0.00000000      0.00042143     -0.00024800      0.49966364     -0.00020404      0.00002872      0.00019539
 20 22b0a0      0.00000000     -0.00042143      0.00024800     -0.49966364      0.00020404     -0.00002872     -0.00019539
 20 a22b00      0.00000000      0.00042143     -0.00024800      0.49966364     -0.00020404      0.00002872     -0.00019539
 20 b22a00     -0.00000000     -0.00042143      0.00024800     -0.49966364      0.00020404     -0.00002872      0.00019539
 20 b220a0     -0.07418541     -0.00001431     -0.00011257      0.00008972      0.29002795      0.49876763     -0.00000000
 20 a220b0      0.07418541      0.00001431      0.00011257     -0.00008972     -0.29002795     -0.49876763      0.00000000
 20 a2200b      0.00000000      0.41131265      0.28370036     -0.00020609      0.00004862      0.00004760     -0.44236872
 20 b2200a     -0.00000000     -0.41131265     -0.28370036      0.00020609     -0.00004862     -0.00004760      0.44236872
 20 2b20a0     -0.00000000     -0.41131265     -0.28370037      0.00020609     -0.00004862     -0.00004760     -0.44236872
 20 2a20b0      0.00000000      0.41131265      0.28370037     -0.00020609      0.00004862      0.00004760      0.44236872
 20 22b00a     -0.00000000      0.28370013     -0.41131261     -0.00044347     -0.00009411     -0.00002989     -0.23248424
 20 22a00b      0.00000000     -0.28370013      0.41131261      0.00044347      0.00009411      0.00002989      0.23248424
 20 2b2a00     -0.00000000      0.28370013     -0.41131261     -0.00044347     -0.00009411     -0.00002989      0.23248424
 20 2a2b00      0.00000000     -0.28370013      0.41131261      0.00044347      0.00009411      0.00002989     -0.23248424
 
 Energy:    -2788.27647631  -2787.87456722  -2787.87456722  -2787.87456722  -2787.87456722  -2787.87456722  -2787.86993467

 State:              8               9              10
 20 222000      0.00000000      0.00000000     -0.18042568
 20 2a200b     -0.00000000     -0.00000000      0.40083577
 20 2b200a      0.00000000      0.00000000     -0.40083577
 20 22ba00     -0.00000000     -0.00000000     -0.40083577
 20 22ab00      0.00000000      0.00000000      0.40083577
 20 22a0b0      0.00127831      0.49973731      0.00000000
 20 22b0a0     -0.00127831     -0.49973731     -0.00000000
 20 a22b00     -0.00127831     -0.49973731      0.00000000
 20 b22a00      0.00127831      0.49973731     -0.00000000
 20 b220a0     -0.00000000      0.00000000     -0.40083577
 20 a220b0      0.00000000     -0.00000000      0.40083577
 20 a2200b      0.23248394     -0.00042173     -0.00000000
 20 b2200a     -0.23248394      0.00042173      0.00000000
 20 2b20a0      0.23248394     -0.00042173      0.00000000
 20 2a20b0     -0.23248394      0.00042173     -0.00000000
 20 22b00a     -0.44236708      0.00122246     -0.00000000
 20 22a00b      0.44236708     -0.00122246      0.00000000
 20 2b2a00      0.44236708     -0.00122246     -0.00000000
 20 2a2b00     -0.44236708      0.00122246      0.00000000
 
 Energy:    -2787.86993467  -2787.86993467  -2787.84185608
 
 
 CI Coefficients of symmetry 1 (Triplet)
 =======================================

 State:              1               2               3               4               5               6               7
 20 2a200a      0.57692714      0.81610063     -0.00248797     -0.00005896      0.00003926     -0.00018755      0.00000000
 20 22aa00      0.57692714     -0.40589565      0.70800786      0.00020803      0.00000254      0.00013170     -0.00000000
 20 a22a00     -0.00000000      0.00016239     -0.00003860      0.00078463     -0.00068319      0.70676640      0.00076621
 20 22a0a0     -0.00000000      0.00016239     -0.00003860      0.00078463     -0.00068319      0.70676640     -0.00076621
 20 a220a0      0.57692714     -0.41020498     -0.70551989     -0.00014908     -0.00004180      0.00005585     -0.00000000
 20 22a00a     -0.00000000     -0.00005176      0.00005416     -0.29376958      0.64282065      0.00094753     -0.08967537
 20 2a2a00     -0.00000000     -0.00005176      0.00005416     -0.29376958      0.64282065      0.00094753      0.08967537
 20 a2200a      0.00000000      0.00003168     -0.00017169      0.64282085      0.29377032     -0.00042968     -0.70098075
 20 2a20a0      0.00000000      0.00003168     -0.00017169      0.64282085      0.29377032     -0.00042968      0.70098075
 
 Energy:    -2787.88990383  -2787.87765681  -2787.87765681  -2787.87765681  -2787.87765681  -2787.87765681  -2787.87022006

 State:              8               9
 20 2a200a      0.00000000     -0.00000000
 20 22aa00     -0.00000000     -0.00000000
 20 a22a00      0.00052411      0.70669329
 20 22a0a0     -0.00052411     -0.70669329
 20 a220a0      0.00000000      0.00000000
 20 22a00a     -0.70098090      0.00061710
 20 2a2a00      0.70098090     -0.00061710
 20 a2200a      0.08967596      0.00069351
 20 2a20a0     -0.08967596     -0.00069351
 
 Energy:    -2787.87022006  -2787.87022006
 


 **********************************************************************************************************************************
 DATASETS  * FILE   NREC   LENGTH (MB)   RECORD NAMES
              1      24       43.81       500      610      700      900      950      970     1000      129      960     1700   
                                          VAR    BASINP    GEOM    SYMINP    ZMAT    AOBASIS   BASIS     P2S    ABASIS    OPER   
                                         1101     1401     1411     1412     1650     1100     1400     1410     1200     1210   
                                          SR      EKINR    POTR     PVPR    MOLCAS      S      EKIN      POT      H0       H01  
                                         1080     1600     1380     1700(1)
                                         AOSYM     SMH     JKOP     OPER   

              2       5        0.82       700     1000      520     2100     2140   
                                         GEOM     BASIS   MCVARS     RHF     MCSCF   

 PROGRAMS   *        TOTAL     MULTI   RHF-SCF       INT
 CPU TIMES  *         5.63      4.37      0.05      1.02
 REAL TIME  *        17.44 SEC
 DISK USED  *        44.71 MB (local),      592.63 MB (total)
 SF USED    *        37.93 MB
 GA USED    *         0.00 MB       (max)       0.00 MB       (current)
 **********************************************************************************************************************************

 Energies and &lt;L**2&gt; values

          ENERGY    LL
    -2788.276476  -0.0
    -2787.874567   6.0
    -2787.874567   6.0
    -2787.874567   6.0
    -2787.874567   6.0
    -2787.874567   6.0
    -2787.869935   2.0
    -2787.869935   2.0
    -2787.869935   2.0
    -2787.841856  -0.0
    -2787.889904  -0.0
    -2787.877657   6.0
    -2787.877657   6.0
    -2787.877657   6.0
    -2787.877657   6.0
    -2787.877657   6.0
    -2787.870220   2.0
    -2787.870220   2.0
    -2787.870220   2.0
                                                  


 PROGRAM * CI (Multireference internally contracted CI)     Authors: H.-J. Werner, P.J. Knowles, 1987


 Convergence thresholds:  THRVAR = 1.00D-08  THRDEN = 1.00D-06

 Number of optimized states: 10  Roots:   1   2   3   4   5   6   7   8   9  10
 Number of reference states: 10  Roots:   1   2   3   4   5   6   7   8   9  10

 Reference symmetry:                   1   Singlet 
 Number of electrons:                 36
 Maximum number of shells:             7
 Maximum number of spin couplings:   132

 Reference space:      603 conf      924 CSFs
 N elec internal:    45531 conf   130284 CSFs
 N-1 el internal:    56699 conf   278292 CSFs
 N-2 el internal:    37063 conf   282516 CSFs

 Number of electrons in valence space:                     26
 Maximum number of open shell orbitals in reference space:  8
 Maximum number of open shell orbitals in internal spaces: 12


 Number of core orbitals:           5 (   2   3 )
 Number of closed-shell orbitals:   9 (   6   3 )
 Number of active  orbitals:        8 (   2   6 )
 Number of external orbitals:      78 (  38  40 )

 Molecular orbitals read from record     2140.2  Type=MCSCF/NATURAL (state averaged)

 Integral transformation finished. Total CPU:   0.07 sec, npass=  1  Memory used:   0.99 MW


 Number of p-space configurations:  10

 Reference wavefunction optimized for reference space (refopt=1)

 State     Reference Energy 
     1     -2788.27647631
     2     -2787.87456722
     3     -2787.87456722
     4     -2787.87456722
     5     -2787.87456722
     6     -2787.87456722
     7     -2787.86993467
     8     -2787.86993467
     9     -2787.86993467
    10     -2787.84185608

 ?WARNING: SMALL EIGENVALUE OF PAIR OVERLAP MATRIX:  0.9934D-07

 ?WARNING: SMALL EIGENVALUE OF PAIR OVERLAP MATRIX:  0.2550D-06

 Number of blocks in overlap matrix:   940   Smallest eigenvalue:  0.99D-07
 Number of N-2 electron functions:    2850
 Number of N-1 electron functions:  278292

 Number of internal configurations:                65352
 Number of singly external configurations:      10853696
 Number of doubly external configurations:       4340358
 Total number of contracted configurations:     15259406
 Total number of uncontracted configurations:  439235116

 Diagonal Coupling coefficients finished.               Storage:  74672342 words, CPU-Time:    444.55 seconds.
 Energy denominators for pairs finished in 1 passes.    Storage:   2097143 words, CPU-time:      0.32 seconds.

  ITER. STATE  ROOT     SQ.NORM     CORR.ENERGY   TOTAL ENERGY   ENERGY CHANGE       DEN1      VAR(S)    VAR(P)      TIME
    1     1     1     1.00000000     0.00000000 -2788.27647631    -0.00000000    -0.97627718  0.31D-01  0.54D-01   472.13
    1     2     2     1.00000000     0.00000000 -2787.87456722     0.00000000    -0.96863477  0.22D-01  0.57D-01   472.13
    1     3     3     1.00000000     0.00000000 -2787.87456722     0.00000000    -0.96862430  0.22D-01  0.57D-01   472.13
    1     4     4     1.00000000     0.00000000 -2787.87456722    -0.00000000    -0.96883694  0.22D-01  0.57D-01   472.13
    1     5     5     1.00000000     0.00000000 -2787.87456722    -0.00000000    -0.97663567  0.22D-01  0.61D-01   472.13
    1     6     6     1.00000000     0.00000000 -2787.87456722    -0.00000000    -0.97574610  0.22D-01  0.61D-01   472.13
    1     7     7     1.00000000     0.00000000 -2787.86993467     0.00000000    -0.97154661  0.22D-01  0.58D-01   472.13
    1     8     8     1.00000000     0.00000000 -2787.86993467     0.00000000    -0.97153261  0.22D-01  0.58D-01   472.13
    1     9     9     1.00000000     0.00000000 -2787.86993467    -0.00000000    -0.97158454  0.22D-01  0.58D-01   472.13
    1    10    10     1.00000000     0.00000000 -2787.84185608     0.00000000    -0.99460441  0.47D-01  0.60D-01   472.13
    2     1     1     1.06353799    -0.84386684 -2789.12034315    -0.84386684    -0.02434801  0.36D-02  0.17D-02  1908.19
    2     2     2     1.05752014    -0.82922589 -2788.70379312    -0.82922589    -0.01669452  0.13D-02  0.11D-02  1908.19
    2     3     3     1.05751717    -0.82922132 -2788.70378854    -0.82922132    -0.01669866  0.13D-02  0.11D-02  1908.19
    2     4     4     1.05752367    -0.82919295 -2788.70376017    -0.82919295    -0.01671912  0.13D-02  0.11D-02  1908.19
    2     5     5     1.05988858    -0.82884591 -2788.70341314    -0.82884591    -0.01706346  0.12D-02  0.12D-02  1908.19
    2     6     6     1.05967479    -0.82873491 -2788.70330213    -0.82873491    -0.01715972  0.12D-02  0.12D-02  1908.19
    2     7     7     1.05844457    -0.82995434 -2788.69988900    -0.82995434    -0.01663551  0.12D-02  0.11D-02  1908.19
    2     8     8     1.05843824    -0.82995388 -2788.69988854    -0.82995388    -0.01663505  0.12D-02  0.11D-02  1908.19
    2     9     9     1.05843625    -0.82991772 -2788.69985238    -0.82991772    -0.01665559  0.12D-02  0.11D-02  1908.19
    2    10    10     1.07337936    -0.82864415 -2788.67050023    -0.82864415    -0.02598413  0.67D-02  0.13D-02  1908.19
    3     1     1     1.06199557    -0.86896232 -2789.14543863    -0.02509548    -0.00154685  0.49D-04  0.17D-03  3345.35
    3     2     2     1.05817314    -0.84525848 -2788.71982570    -0.01603258    -0.00076752  0.27D-04  0.96D-04  3345.35
    3     3     3     1.05817148    -0.84525801 -2788.71982524    -0.01603669    -0.00076803  0.27D-04  0.96D-04  3345.35
    3     4     4     1.05816142    -0.84524981 -2788.71981704    -0.01605687    -0.00077191  0.27D-04  0.97D-04  3345.35
    3     5     5     1.05843755    -0.84522022 -2788.71978745    -0.01637431    -0.00077937  0.27D-04  0.10D-03  3345.35
    3     6     6     1.05837247    -0.84520724 -2788.71977447    -0.01647234    -0.00078722  0.27D-04  0.10D-03  3345.35
    3     7     7     1.05867406    -0.84595658 -2788.71589125    -0.01600224    -0.00076915  0.27D-04  0.98D-04  3345.35
    3     8     8     1.05867292    -0.84595611 -2788.71589077    -0.01600223    -0.00076943  0.27D-04  0.98D-04  3345.35
    3     9     9     1.05865812    -0.84594592 -2788.71588059    -0.01602821    -0.00077486  0.27D-04  0.99D-04  3345.35
    3    10    10     1.06153533    -0.85305500 -2788.69491108    -0.02441085    -0.00117735  0.90D-04  0.13D-03  3345.35
    4     1     1     1.06643778    -0.87083469 -2789.14731100    -0.00187237    -0.00012421  0.47D-05  0.12D-04  4786.11
    4     2     2     1.06077310    -0.84621761 -2788.72078484    -0.00095914    -0.00008035  0.28D-05  0.89D-05  4786.11
    4     3     3     1.06077283    -0.84621754 -2788.72078476    -0.00095953    -0.00008034  0.28D-05  0.89D-05  4786.11
    4     4     4     1.06076991    -0.84621595 -2788.72078317    -0.00096613    -0.00008135  0.29D-05  0.90D-05  4786.11
    4     5     5     1.06066988    -0.84621011 -2788.72077734    -0.00098989    -0.00008790  0.30D-05  0.99D-05  4786.11
    4     6     6     1.06068478    -0.84620949 -2788.72077672    -0.00100225    -0.00008811  0.31D-05  0.98D-05  4786.11
    4     7     7     1.06114634    -0.84692436 -2788.71685903    -0.00096778    -0.00008152  0.31D-05  0.87D-05  4786.11
    4     8     8     1.06114645    -0.84692428 -2788.71685894    -0.00096817    -0.00008158  0.31D-05  0.87D-05  4786.11
    4     9     9     1.06114291    -0.84692274 -2788.71685740    -0.00097681    -0.00008261  0.31D-05  0.88D-05  4786.11
    4    10    10     1.06308345    -0.85442222 -2788.69627830    -0.00136722    -0.00012060  0.45D-05  0.14D-04  4786.11
    5     1     1     1.06727479    -0.87098058 -2789.14745689    -0.00014589    -0.00001083  0.18D-06  0.12D-05  6223.70
    5     2     2     1.06135869    -0.84632040 -2788.72088763    -0.00010279    -0.00000837  0.30D-06  0.95D-06  6223.70
    5     3     3     1.06135888    -0.84632002 -2788.72088724    -0.00010248    -0.00000861  0.30D-06  0.99D-06  6223.70
    5     4     4     1.06136831    -0.84631972 -2788.72088694    -0.00010377    -0.00000861  0.30D-06  0.98D-06  6223.70
    5     5     5     1.06136842    -0.84631968 -2788.72088691    -0.00010957    -0.00000862  0.30D-06  0.98D-06  6223.70
    5     6     6     1.06136890    -0.84631943 -2788.72088665    -0.00010994    -0.00000875  0.30D-06  0.10D-05  6223.70
    5     7     7     1.06175793    -0.84702637 -2788.71696104    -0.00010201    -0.00000801  0.26D-06  0.92D-06  6223.70
    5     8     8     1.06175799    -0.84702636 -2788.71696102    -0.00010208    -0.00000802  0.26D-06  0.92D-06  6223.70
    5     9     9     1.06175792    -0.84702615 -2788.71696081    -0.00010341    -0.00000814  0.26D-06  0.93D-06  6223.70
    5    10    10     1.06385491    -0.85457666 -2788.69643274    -0.00015444    -0.00001499  0.57D-06  0.17D-05  6223.70
    6     1     1     1.06731343    -0.87099397 -2789.14747028    -0.00001339    -0.00000115  0.26D-07  0.11D-06  7664.01
    6     2     2     1.06132323    -0.84633096 -2788.72089819    -0.00001056    -0.00000118  0.52D-07  0.14D-06  7664.01
    6     3     3     1.06132141    -0.84633091 -2788.72089813    -0.00001089    -0.00000122  0.52D-07  0.14D-06  7664.01
    6     4     4     1.06132391    -0.84633086 -2788.72089809    -0.00001115    -0.00000125  0.51D-07  0.14D-06  7664.01
    6     5     5     1.06132381    -0.84633085 -2788.72089808    -0.00001117    -0.00000126  0.51D-07  0.14D-06  7664.01
    6     6     6     1.06132309    -0.84633078 -2788.72089801    -0.00001135    -0.00000129  0.52D-07  0.14D-06  7664.01
    6     7     7     1.06171918    -0.84703654 -2788.71697120    -0.00001016    -0.00000109  0.51D-07  0.12D-06  7664.01
    6     8     8     1.06171916    -0.84703654 -2788.71697120    -0.00001018    -0.00000109  0.51D-07  0.12D-06  7664.01
    6     9     9     1.06171848    -0.84703649 -2788.71697115    -0.00001034    -0.00000111  0.51D-07  0.12D-06  7664.01
    6    10    10     1.06384684    -0.85459590 -2788.69645198    -0.00001924    -0.00000250  0.14D-06  0.27D-06  7664.01
    7     1     1     1.06734374    -0.87099536 -2789.14747167    -0.00000139    -0.00000014  0.59D-08  0.13D-07  9099.63
    7     2     2     1.06134375    -0.84633249 -2788.72089971    -0.00000153    -0.00000023  0.12D-07  0.24D-07  9099.63
    7     3     3     1.06134368    -0.84633249 -2788.72089971    -0.00000158    -0.00000022  0.11D-07  0.23D-07  9099.63
    7     4     4     1.06134267    -0.84633245 -2788.72089967    -0.00000159    -0.00000023  0.11D-07  0.24D-07  9099.63
    7     5     5     1.06134268    -0.84633245 -2788.72089967    -0.00000159    -0.00000023  0.11D-07  0.24D-07  9099.63
    7     6     6     1.06134225    -0.84633241 -2788.72089963    -0.00000163    -0.00000024  0.11D-07  0.24D-07  9099.63
    7     7     7     1.06173954    -0.84703794 -2788.71697260    -0.00000140    -0.00000020  0.93D-08  0.21D-07  9099.63
    7     8     8     1.06173957    -0.84703794 -2788.71697260    -0.00000140    -0.00000020  0.92D-08  0.21D-07  9099.63
    7     9     9     1.06173927    -0.84703792 -2788.71697258    -0.00000143    -0.00000021  0.95D-08  0.22D-07  9099.63
    7    10    10     1.06387406    -0.85459909 -2788.69645517    -0.00000319    -0.00000054  0.32D-07  0.56D-07  9099.63
    8     1     1     1.06735034    -0.87099552 -2789.14747183    -0.00000016    -0.00000002  0.70D-09  0.21D-08 10542.15
    8     2     2     1.06135591    -0.84633277 -2788.72089999    -0.00000028    -0.00000004  0.22D-08  0.38D-08 10542.15
    8     3     3     1.06135610    -0.84633276 -2788.72089998    -0.00000027    -0.00000004  0.21D-08  0.35D-08 10542.15
    8     4     4     1.06135529    -0.84633273 -2788.72089995    -0.00000028    -0.00000004  0.23D-08  0.37D-08 10542.15
    8     5     5     1.06135529    -0.84633273 -2788.72089995    -0.00000028    -0.00000004  0.23D-08  0.38D-08 10542.15
    8     6     6     1.06135516    -0.84633270 -2788.72089992    -0.00000029    -0.00000004  0.24D-08  0.39D-08 10542.15
    8     7     7     1.06175185    -0.84703819 -2788.71697285    -0.00000025    -0.00000004  0.19D-08  0.34D-08 10542.15
    8     8     8     1.06175186    -0.84703818 -2788.71697285    -0.00000025    -0.00000004  0.19D-08  0.34D-08 10542.15
    8     9     9     1.06175178    -0.84703817 -2788.71697284    -0.00000026    -0.00000004  0.20D-08  0.35D-08 10542.15
    8    10    10     1.06387801    -0.85459974 -2788.69645582    -0.00000065    -0.00000012  0.73D-08  0.11D-07 10542.15
    9     1     1     1.06735031    -0.87099552 -2789.14747184    -0.00000000    -0.00000002  0.71D-09  0.19D-08 11394.48
    9     2     2     1.06135590    -0.84633277 -2788.72089999    -0.00000000    -0.00000004  0.22D-08  0.38D-08 11394.48
    9     3     3     1.06135610    -0.84633276 -2788.72089998    -0.00000000    -0.00000004  0.21D-08  0.35D-08 11394.48
    9     4     4     1.06135529    -0.84633273 -2788.72089995    -0.00000000    -0.00000004  0.23D-08  0.37D-08 11394.48
    9     5     5     1.06135529    -0.84633273 -2788.72089995    -0.00000000    -0.00000004  0.23D-08  0.38D-08 11394.48
    9     6     6     1.06135516    -0.84633270 -2788.72089992    -0.00000000    -0.00000004  0.24D-08  0.39D-08 11394.48
    9     7     7     1.06175185    -0.84703819 -2788.71697285    -0.00000000    -0.00000004  0.19D-08  0.34D-08 11394.48
    9     8     8     1.06175186    -0.84703818 -2788.71697285    -0.00000000    -0.00000004  0.19D-08  0.34D-08 11394.48
    9     9     9     1.06175178    -0.84703817 -2788.71697284    -0.00000000    -0.00000004  0.20D-08  0.35D-08 11394.48
    9    10    10     1.06388661    -0.85459990 -2788.69645598    -0.00000016    -0.00000001  0.52D-09  0.92D-09 11394.48


 =====================================
 Analysis of CPU times by interactions
 =====================================

       I      S      P

 I   0.7%
 S   0.4%  22.6%
 P   0.4%  51.1%  19.5%

 Initialization:   3.9%
 Other:            1.4%

 Total CPU:    11394.5 seconds
 =====================================



 Wavefunction saved on  5201.2

 Reference coefficients greater than 0.0500000
 =============================================
 22222220222222000           0.9564164   0.0000001  -0.0000006   0.0000000   0.0000000  -0.0000000  -0.0000000  -0.0000000
                            -0.0000000  -0.1342787
 222222202222/200\           0.0799585  -0.0355487   0.7911335  -0.0004458  -0.0029060   0.0001414   0.0000000  -0.0000000
                             0.0000000   0.5534456
 2222222022222/\00           0.0799585   0.7029185  -0.3647756   0.0006980   0.0018125  -0.0000655  -0.0000000  -0.0000000
                             0.0000000   0.5534504
 2222222022222/00\           0.0000000  -0.0004920   0.0003644   0.6858416  -0.0000004  -0.0001225  -0.6858186  -0.0032244
                            -0.0012966   0.0000000
 22222220222/2200\          -0.0000000  -0.0004722   0.0024981  -0.0000013   0.6858373  -0.0003071   0.0032213  -0.6858176
                             0.0016413   0.0000000
 22222220222/22\00           0.0000000  -0.0000000  -0.0001214   0.0001226   0.0003076   0.6858361  -0.0013043   0.0016352
                             0.6858299  -0.0000000
 2222222022222/0\0          -0.0000000  -0.0000000  -0.0001214   0.0001226   0.0003076   0.6858360   0.0013043  -0.0016353
                            -0.6858300   0.0000000
 222222202222/2\00          -0.0000000  -0.0004919   0.0003644   0.6858301  -0.0000004  -0.0001225   0.6858300   0.0032244
                             0.0012966   0.0000000
 222222202222/20\0           0.0000000  -0.0004721   0.0024980  -0.0000013   0.6858253  -0.0003071  -0.0032213   0.6858296
                            -0.0016414  -0.0000000
 22222220222/220\0           0.0799585  -0.6673700  -0.4263512  -0.0002522   0.0010935  -0.0000759  -0.0000000   0.0000000
                             0.0000000   0.5534504

 Coefficients of fixed reference functions:
 ==========================================

 State      Coefficients
 1           0.967155   -0.000000    0.000000    0.000000    0.000000    0.000000    0.000000   -0.000000    0.000000   -0.037766
 2           0.000000   -0.000668   -0.000696   -0.000000   -0.025448    0.970259    0.000000    0.000000    0.000000   -0.000000
 3           0.000000    0.003535    0.000516   -0.000172    0.970252    0.025451   -0.000000   -0.000000    0.000000    0.000004
 4          -0.000000   -0.000002    0.970593    0.000173   -0.000534    0.000682    0.000000   -0.000008   -0.000000   -0.000000
 5          -0.000000    0.970586   -0.000001    0.000435   -0.003551    0.000575   -0.000009   -0.000000    0.000000   -0.000000
 6           0.000000   -0.000435   -0.000173    0.970593    0.000173    0.000004    0.000000   -0.000000    0.000000    0.000000
 7           0.000000   -0.000000    0.000008    0.000000    0.000000   -0.000000   -0.004558    0.970404   -0.001846    0.000000
 8           0.000000    0.000008    0.000000   -0.000000   -0.000000   -0.000000    0.970403    0.004562    0.002314    0.000000
 9           0.000000   -0.000000    0.000000   -0.000000   -0.000000   -0.000000   -0.002322    0.001835    0.970412    0.000000
 10          0.041645   -0.000000    0.000000    0.000000   -0.000004    0.000000   -0.000000   -0.000000   -0.000000    0.968518

 Coefficients of rotated reference functions:
 ============================================

 State      Coefficients
 1           0.967890    0.000000   -0.000000   -0.000000    0.000000    0.000000    0.000000   -0.000000   -0.000000    0.001910
 2           0.000000    0.970593   -0.000000   -0.000000   -0.000000   -0.000000   -0.000000   -0.000000   -0.000000    0.000000
 3          -0.000000   -0.000000    0.970593    0.000000    0.000000   -0.000000    0.000000   -0.000000   -0.000000    0.000000
 4          -0.000000   -0.000000    0.000000    0.970593   -0.000000    0.000000   -0.000000   -0.000000    0.000000    0.000000
 5           0.000000   -0.000000    0.000000   -0.000000    0.970593    0.000000    0.000000   -0.000000    0.000000    0.000000
 6           0.000000   -0.000000   -0.000000    0.000000    0.000000    0.970593    0.000000   -0.000000   -0.000000   -0.000000
 7           0.000000   -0.000000    0.000000   -0.000000    0.000000    0.000000    0.970417    0.000000   -0.000000    0.000000
 8          -0.000000   -0.000000   -0.000000   -0.000000   -0.000000   -0.000000    0.000000    0.970417    0.000000   -0.000000
 9          -0.000000   -0.000000   -0.000000    0.000000    0.000000   -0.000000   -0.000000    0.000000    0.970417   -0.000000
 10          0.001910    0.000000    0.000000    0.000000    0.000000   -0.000000    0.000000   -0.000000   -0.000000    0.969411


 RESULTS FOR STATE 1.1
 =====================

 Coefficient of reference function:   C(0) = 0.96715524 (fixed)   0.96792552 (relaxed)   0.96789042 (rotated)

 Energy contributions of configuration classes

 CLASS          SQ.NORM        ECORR1        ECORR2
 +++++++++++++++++++++++++++++++++++++++++++++++++++
 Internals    0.00009357   -0.00032612   -0.81545293
 Singles      0.01069003   -0.05369681   -0.05902830
 Pairs        0.05666658    0.05307517    0.00348571
 Total        1.06745018   -0.00094777   -0.87099552
 +++++++++++++++++++++++++++++++++++++++++++++++++++


 Reference energy                   -2788.27574607
 Nuclear energy                         0.00000000
 Kinetic energy                      2994.80810552
 One electron energy                -3876.83395715
 Two electron energy                 1087.68648531
 Virial quotient                       -0.93132761
 Correlation energy                    -0.87172577
 !MRCI STATE 1.1 Energy             -2789.147471836211

 Properties without orbital relaxation:

 !MRCI STATE 1.1 Dipole moment          0.00000000     0.00000000     0.00000000
 Dipole moment /Debye                   0.00000000     0.00000000     0.00000000

 Cluster corrected energies         -2789.20626990 (Davidson, fixed reference)
 Cluster corrected energies         -2789.20620241 (Davidson, relaxed reference)
 Cluster corrected energies         -2789.20626990 (Davidson, rotated reference)

 Cluster corrected energies         -2789.20501122 (Pople, fixed reference)
 Cluster corrected energies         -2789.20494124 (Pople, relaxed reference)
 Cluster corrected energies         -2789.20501122 (Pople, rotated reference)



 RESULTS FOR STATE 2.1
 =====================

 Maximum overlap with reference state  6

 Coefficient of reference function:   C(0) = 0.97025853 (fixed)   0.97064264 (relaxed)   0.97059267 (rotated)

 Energy contributions of configuration classes

 CLASS          SQ.NORM        ECORR1        ECORR2
 +++++++++++++++++++++++++++++++++++++++++++++++++++
 Internals    0.00014954   -0.00051340   -0.73859015
 Singles      0.01163206   -0.06243523   -0.06809101
 Pairs        0.04973302    0.00000015   -0.03965160
 Total        1.06151462   -0.06294848   -0.84633277
 +++++++++++++++++++++++++++++++++++++++++++++++++++


 Reference energy                   -2787.87456722
 Nuclear energy                         0.00000000
 Kinetic energy                      2994.04785767
 One electron energy                -3866.75565937
 Two electron energy                 1078.03475937
 Virial quotient                       -0.93142162
 Correlation energy                    -0.84633277
 !MRCI STATE 2.1 Energy             -2788.720899994866

 Properties without orbital relaxation:

 !MRCI STATE 2.1 Dipole moment          0.00000000     0.00000000     0.00000000
 Dipole moment /Debye                   0.00000000     0.00000000     0.00000000

 Cluster corrected energies         -2788.77296184 (Davidson, fixed reference)
 Cluster corrected energies         -2788.77286936 (Davidson, relaxed reference)
 Cluster corrected energies         -2788.77296184 (Davidson, rotated reference)

 Cluster corrected energies         -2788.77158069 (Pople, fixed reference)
 Cluster corrected energies         -2788.77148579 (Pople, relaxed reference)
 Cluster corrected energies         -2788.77158069 (Pople, rotated reference)



 RESULTS FOR STATE 3.1
 =====================

 Maximum overlap with reference state  5

 Coefficient of reference function:   C(0) = 0.97025226 (fixed)   0.97064255 (relaxed)   0.97059259 (rotated)

 Energy contributions of configuration classes

 CLASS          SQ.NORM        ECORR1        ECORR2
 +++++++++++++++++++++++++++++++++++++++++++++++++++
 Internals    0.00014954   -0.00051339   -0.73858652
 Singles      0.01163221   -0.06243553   -0.06809126
 Pairs        0.04973306   -0.00000326   -0.03965497
 Total        1.06151481   -0.06295218   -0.84633276
 +++++++++++++++++++++++++++++++++++++++++++++++++++


 Reference energy                   -2787.87456722
 Nuclear energy                         0.00000000
 Kinetic energy                      2994.04793183
 One electron energy                -3866.75570425
 Two electron energy                 1078.03480427
 Virial quotient                       -0.93142159
 Correlation energy                    -0.84633276
 !MRCI STATE 3.1 Energy             -2788.720899982858

 Properties without orbital relaxation:

 !MRCI STATE 3.1 Dipole moment          0.00000000     0.00000000     0.00000000
 Dipole moment /Debye                   0.00000000     0.00000000     0.00000000

 Cluster corrected energies         -2788.77296198 (Davidson, fixed reference)
 Cluster corrected energies         -2788.77286951 (Davidson, relaxed reference)
 Cluster corrected energies         -2788.77296198 (Davidson, rotated reference)

 Cluster corrected energies         -2788.77158084 (Pople, fixed reference)
 Cluster corrected energies         -2788.77148594 (Pople, relaxed reference)
 Cluster corrected energies         -2788.77158084 (Pople, rotated reference)



 RESULTS FOR STATE 4.1
 =====================

 Maximum overlap with reference state  3

 Coefficient of reference function:   C(0) = 0.97059255 (fixed)   0.97064292 (relaxed)   0.97059295 (rotated)

 Energy contributions of configuration classes

 CLASS          SQ.NORM        ECORR1        ECORR2
 +++++++++++++++++++++++++++++++++++++++++++++++++++
 Internals    0.00014955   -0.00051339   -0.73858983
 Singles      0.01163250   -0.06243585   -0.06809146
 Pairs        0.04973197    0.00000000   -0.03965144
 Total        1.06151401   -0.06294924   -0.84633273
 +++++++++++++++++++++++++++++++++++++++++++++++++++


 Reference energy                   -2787.87456722
 Nuclear energy                         0.00000000
 Kinetic energy                      2994.04779075
 One electron energy                -3866.75564265
 Two electron energy                 1078.03474270
 Virial quotient                       -0.93142164
 Correlation energy                    -0.84633273
 !MRCI STATE 4.1 Energy             -2788.720899953656

 Properties without orbital relaxation:

 !MRCI STATE 4.1 Dipole moment          0.00000000     0.00000000     0.00000000
 Dipole moment /Debye                   0.00000000     0.00000000     0.00000000

 Cluster corrected energies         -2788.77296127 (Davidson, fixed reference)
 Cluster corrected energies         -2788.77286879 (Davidson, relaxed reference)
 Cluster corrected energies         -2788.77296127 (Davidson, rotated reference)

 Cluster corrected energies         -2788.77158012 (Pople, fixed reference)
 Cluster corrected energies         -2788.77148521 (Pople, relaxed reference)
 Cluster corrected energies         -2788.77158012 (Pople, rotated reference)



 RESULTS FOR STATE 5.1
 =====================

 Maximum overlap with reference state  2

 Coefficient of reference function:   C(0) = 0.97058619 (fixed)   0.97064292 (relaxed)   0.97059296 (rotated)

 Energy contributions of configuration classes

 CLASS          SQ.NORM        ECORR1        ECORR2
 +++++++++++++++++++++++++++++++++++++++++++++++++++
 Internals    0.00014955   -0.00051339   -0.73858985
 Singles      0.01163250   -0.06243583   -0.06809146
 Pairs        0.04973196    0.00000001   -0.03965141
 Total        1.06151401   -0.06294922   -0.84633273
 +++++++++++++++++++++++++++++++++++++++++++++++++++


 Reference energy                   -2787.87456722
 Nuclear energy                         0.00000000
 Kinetic energy                      2994.04778844
 One electron energy                -3866.75564152
 Two electron energy                 1078.03474156
 Virial quotient                       -0.93142164
 Correlation energy                    -0.84633273
 !MRCI STATE 5.1 Energy             -2788.720899953583

 Properties without orbital relaxation:

 !MRCI STATE 5.1 Dipole moment          0.00000000     0.00000000     0.00000000
 Dipole moment /Debye                   0.00000000     0.00000000     0.00000000

 Cluster corrected energies         -2788.77296127 (Davidson, fixed reference)
 Cluster corrected energies         -2788.77286879 (Davidson, relaxed reference)
 Cluster corrected energies         -2788.77296127 (Davidson, rotated reference)

 Cluster corrected energies         -2788.77158011 (Pople, fixed reference)
 Cluster corrected energies         -2788.77148521 (Pople, relaxed reference)
 Cluster corrected energies         -2788.77158011 (Pople, rotated reference)



 RESULTS FOR STATE 6.1
 =====================

 Maximum overlap with reference state  4

 Coefficient of reference function:   C(0) = 0.97059289 (fixed)   0.97064298 (relaxed)   0.97059301 (rotated)

 Energy contributions of configuration classes

 CLASS          SQ.NORM        ECORR1        ECORR2
 +++++++++++++++++++++++++++++++++++++++++++++++++++
 Internals    0.00014955   -0.00051339   -0.73858993
 Singles      0.01163244   -0.06243580   -0.06809134
 Pairs        0.04973189   -0.00000000   -0.03965143
 Total        1.06151388   -0.06294920   -0.84633270
 +++++++++++++++++++++++++++++++++++++++++++++++++++


 Reference energy                   -2787.87456722
 Nuclear energy                         0.00000000
 Kinetic energy                      2994.04775014
 One electron energy                -3866.75561936
 Two electron energy                 1078.03471944
 Virial quotient                       -0.93142165
 Correlation energy                    -0.84633270
 !MRCI STATE 6.1 Energy             -2788.720899922424

 Properties without orbital relaxation:

 !MRCI STATE 6.1 Dipole moment          0.00000000     0.00000000     0.00000000
 Dipole moment /Debye                   0.00000000     0.00000000     0.00000000

 Cluster corrected energies         -2788.77296113 (Davidson, fixed reference)
 Cluster corrected energies         -2788.77286865 (Davidson, relaxed reference)
 Cluster corrected energies         -2788.77296113 (Davidson, rotated reference)

 Cluster corrected energies         -2788.77157997 (Pople, fixed reference)
 Cluster corrected energies         -2788.77148506 (Pople, relaxed reference)
 Cluster corrected energies         -2788.77157997 (Pople, rotated reference)



 RESULTS FOR STATE 7.1
 =====================

 Maximum overlap with reference state  8

 Coefficient of reference function:   C(0) = 0.97040423 (fixed)   0.97046165 (relaxed)   0.97041669 (rotated)

 Energy contributions of configuration classes

 CLASS          SQ.NORM        ECORR1        ECORR2
 +++++++++++++++++++++++++++++++++++++++++++++++++++
 Internals    0.00013921   -0.00050844   -0.73799317
 Singles      0.01212737   -0.06348141   -0.06945383
 Pairs        0.04963307   -0.00000000   -0.03959119
 Total        1.06189966   -0.06398985   -0.84703819
 +++++++++++++++++++++++++++++++++++++++++++++++++++


 Reference energy                   -2787.86993467
 Nuclear energy                         0.00000000
 Kinetic energy                      2994.04597276
 One electron energy                -3866.73992770
 Two electron energy                 1078.02295485
 Virial quotient                       -0.93142089
 Correlation energy                    -0.84703819
 !MRCI STATE 7.1 Energy             -2788.716972851756

 Properties without orbital relaxation:

 !MRCI STATE 7.1 Dipole moment          0.00000000     0.00000000     0.00000000
 Dipole moment /Debye                   0.00000000     0.00000000     0.00000000

 Cluster corrected energies         -2788.76940423 (Davidson, fixed reference)
 Cluster corrected energies         -2788.76932090 (Davidson, relaxed reference)
 Cluster corrected energies         -2788.76940423 (Davidson, rotated reference)

 Cluster corrected energies         -2788.76803063 (Pople, fixed reference)
 Cluster corrected energies         -2788.76794506 (Pople, relaxed reference)
 Cluster corrected energies         -2788.76803063 (Pople, rotated reference)



 RESULTS FOR STATE 8.1
 =====================

 Maximum overlap with reference state  7

 Coefficient of reference function:   C(0) = 0.97040321 (fixed)   0.97046164 (relaxed)   0.97041669 (rotated)

 Energy contributions of configuration classes

 CLASS          SQ.NORM        ECORR1        ECORR2
 +++++++++++++++++++++++++++++++++++++++++++++++++++
 Internals    0.00013921   -0.00050844   -0.73799316
 Singles      0.01212738   -0.06348140   -0.06945383
 Pairs        0.04963307   -0.00000001   -0.03959119
 Total        1.06189966   -0.06398986   -0.84703818
 +++++++++++++++++++++++++++++++++++++++++++++++++++


 Reference energy                   -2787.86993467
 Nuclear energy                         0.00000000
 Kinetic energy                      2994.04597673
 One electron energy                -3866.73993056
 Two electron energy                 1078.02295771
 Virial quotient                       -0.93142089
 Correlation energy                    -0.84703818
 !MRCI STATE 8.1 Energy             -2788.716972850560

 Properties without orbital relaxation:

 !MRCI STATE 8.1 Dipole moment          0.00000000     0.00000000     0.00000000
 Dipole moment /Debye                   0.00000000     0.00000000     0.00000000

 Cluster corrected energies         -2788.76940423 (Davidson, fixed reference)
 Cluster corrected energies         -2788.76932090 (Davidson, relaxed reference)
 Cluster corrected energies         -2788.76940423 (Davidson, rotated reference)

 Cluster corrected energies         -2788.76803063 (Pople, fixed reference)
 Cluster corrected energies         -2788.76794506 (Pople, relaxed reference)
 Cluster corrected energies         -2788.76803063 (Pople, rotated reference)



 RESULTS FOR STATE 9.1
 =====================

 Coefficient of reference function:   C(0) = 0.97041221 (fixed)   0.97046168 (relaxed)   0.97041673 (rotated)

 Energy contributions of configuration classes

 CLASS          SQ.NORM        ECORR1        ECORR2
 +++++++++++++++++++++++++++++++++++++++++++++++++++
 Internals    0.00013921   -0.00050844   -0.73799322
 Singles      0.01212735   -0.06348139   -0.06945378
 Pairs        0.04963302   -0.00000001   -0.03959117
 Total        1.06189959   -0.06398984   -0.84703817
 +++++++++++++++++++++++++++++++++++++++++++++++++++


 Reference energy                   -2787.86993467
 Nuclear energy                         0.00000000
 Kinetic energy                      2994.04593213
 One electron energy                -3866.73990044
 Two electron energy                 1078.02292760
 Virial quotient                       -0.93142091
 Correlation energy                    -0.84703817
 !MRCI STATE 9.1 Energy             -2788.716972839410

 Properties without orbital relaxation:

 !MRCI STATE 9.1 Dipole moment          0.00000000     0.00000000     0.00000000
 Dipole moment /Debye                   0.00000000     0.00000000     0.00000000

 Cluster corrected energies         -2788.76940416 (Davidson, fixed reference)
 Cluster corrected energies         -2788.76932083 (Davidson, relaxed reference)
 Cluster corrected energies         -2788.76940416 (Davidson, rotated reference)

 Cluster corrected energies         -2788.76803055 (Pople, fixed reference)
 Cluster corrected energies         -2788.76794498 (Pople, relaxed reference)
 Cluster corrected energies         -2788.76803055 (Pople, rotated reference)



 RESULTS FOR STATE 10.1
 ======================

 Coefficient of reference function:   C(0) = 0.96851783 (fixed)   0.96948914 (relaxed)   0.96941086 (rotated)

 Energy contributions of configuration classes

 CLASS          SQ.NORM        ECORR1        ECORR2
 +++++++++++++++++++++++++++++++++++++++++++++++++++
 Internals    0.00020470   -0.00052213   -0.00113675
 Singles      0.01353867   -0.06531092   -0.07224729
 Pairs        0.05036102   -0.78825430   -0.78121586
 Total        1.06410439   -0.85408734   -0.85459990
 +++++++++++++++++++++++++++++++++++++++++++++++++++


 Reference energy                   -2787.84258633
 Nuclear energy                         0.00000000
 Kinetic energy                      2994.24078806
 One electron energy                -3867.58860807
 Two electron energy                 1078.89215209
 Virial quotient                       -0.93135344
 Correlation energy                    -0.85386965
 !MRCI STATE 10.1 Energy            -2788.696455976667

 Properties without orbital relaxation:

 !MRCI STATE 10.1 Dipole moment         0.00000000     0.00000000     0.00000000
 Dipole moment /Debye                   0.00000000     0.00000000     0.00000000

 Cluster corrected energies         -2788.75119277 (Davidson, fixed reference)
 Cluster corrected energies         -2788.75104605 (Davidson, relaxed reference)
 Cluster corrected energies         -2788.75119277 (Davidson, rotated reference)

 Cluster corrected energies         -2788.74986267 (Pople, fixed reference)
 Cluster corrected energies         -2788.74971143 (Pople, relaxed reference)
 Cluster corrected energies         -2788.74986267 (Pople, rotated reference)



 **********************************************************************************************************************************
 DATASETS  * FILE   NREC   LENGTH (MB)   RECORD NAMES
              1      24       43.81       500      610      700      900      950      970     1000      129      960     1700   
                                          VAR    BASINP    GEOM    SYMINP    ZMAT    AOBASIS   BASIS     P2S    ABASIS    OPER   
                                         1101     1401     1411     1412     1650     1100     1400     1410     1200     1210   
                                          SR      EKINR    POTR     PVPR    MOLCAS      S      EKIN      POT      H0       H01  
                                         1080     1600     1380     1700(1)
                                         AOSYM     SMH     JKOP     OPER   

              2       6     1184.61       700     1000      520     2100     2140     5201   
                                         GEOM     BASIS   MCVARS     RHF     MCSCF    MRCI   

 PROGRAMS   *        TOTAL        CI     MULTI   RHF-SCF       INT
 CPU TIMES  *     13681.60  13675.97      4.37      0.05      1.02
 REAL TIME  *     13837.41 SEC
 DISK USED  *         1.20 GB (local),       14.45 GB (total)
 SF USED    *        12.58 GB
 GA USED    *         0.00 MB       (max)       0.00 MB       (current)
 **********************************************************************************************************************************
 SETTING HLSDIAG(1)     =     -2789.20626990  AU                              
 SETTING HLSDIAG(2)     =     -2788.77296184  AU                              
 SETTING HLSDIAG(3)     =     -2788.77296198  AU                              
 SETTING HLSDIAG(4)     =     -2788.77296127  AU                              
[...]
  8  1     8    1  |0 0>          0.00%    0.00%    0.00%    0.00%    0.00%    0.00%    0.00%    0.00%
  9  1     9    1  |0 0>          0.00%    0.00%    0.00%    0.00%    0.00%    0.00%    0.00%    0.00%
 10  1    10    1  |0 0>          0.00%    0.00%    0.00%    0.00%    0.00%    0.00%    0.00%    0.00%
 11  1     1    1  |1 1>+         0.08%    0.31%    1.22%    0.01%    0.66%    2.96%    0.40%    3.53%
 12  1     2    1  |1 1>+         0.01%    0.42%    0.90%    0.12%   20.87%    1.46%   13.71%    0.14%
 13  1     3    1  |1 1>+         0.11%    1.04%    2.59%    0.39%    4.34%    0.29%    2.55%    3.93%
 14  1     4    1  |1 1>+         0.02%    0.22%    1.10%    0.09%    7.99%    1.53%   24.14%    0.72%
 15  1     5    1  |1 1>+         1.03%    3.51%    3.31%    1.96%    0.97%   22.19%    1.14%    7.98%
 16  1     6    1  |1 1>+         6.18%    1.87%    1.26%    4.22%    0.29%    5.41%    1.00%   17.21%
 17  1     7    1  |1 1>+        32.58%    1.34%    0.35%    0.27%    0.26%   10.19%    0.40%    2.83%
 18  1     8    1  |1 1>+         0.19%   14.22%    0.83%    9.79%   12.36%    0.17%    0.40%    1.22%
 19  1     9    1  |1 1>+         0.21%    1.47%    7.34%    0.47%    1.14%    8.67%    0.26%    4.11%
 20  1     1    1  |1 0>          0.12%    0.96%    0.08%    3.82%    0.86%    0.41%    3.37%    0.53%
 21  1     2    1  |1 0>          0.02%    0.59%    0.10%    1.90%    0.38%    0.02%    1.41%    0.72%
 22  1     3    1  |1 0>          0.12%    4.34%    0.62%    2.97%    0.58%    0.13%    1.50%    0.32%
 23  1     4    1  |1 0>          0.05%    0.88%    0.10%    1.46%    1.10%    1.65%    0.23%    0.79%
 24  1     5    1  |1 0>          2.10%   11.24%    3.87%    1.24%    0.04%    0.11%    0.07%    0.79%
 25  1     6    1  |1 0>          7.72%   10.19%    6.52%   20.52%    0.04%    0.71%    0.24%    0.18%
 26  1     7    1  |1 0>         38.91%    2.61%    0.50%    5.11%    0.00%    0.16%    0.01%    0.03%
 27  1     8    1  |1 0>          0.00%   10.69%   36.64%    1.58%    0.11%    0.13%    0.02%    0.07%
 28  1     9    1  |1 0>          0.26%    8.07%    0.75%   10.38%    0.01%    0.05%    0.22%    0.13%
 29  1     1    1  |1 1>-         0.04%    0.22%    1.62%    0.00%    0.66%    2.85%    0.16%   13.05%
 30  1     2    1  |1 1>-         0.02%    0.02%    1.10%    0.40%   15.79%    0.71%   21.68%    0.02%
 31  1     3    1  |1 1>-         0.11%    0.92%    2.60%    0.49%    3.63%    0.18%    4.28%    0.50%
 32  1     4    1  |1 1>-         0.02%    0.34%    1.00%    0.07%   12.09%    1.58%   19.37%    0.58%
 33  1     5    1  |1 1>-         1.30%    0.44%    8.38%    0.04%    1.01%    2.16%    0.89%   22.05%
 34  1     6    1  |1 1>-         6.21%    1.90%    1.20%    3.81%    0.39%   14.21%    0.60%   17.57%
 35  1     7    1  |1 1>-         2.37%    9.48%    7.58%   15.43%    0.20%   12.60%    0.72%    0.51%
 36  1     8    1  |1 1>-         0.22%   10.54%    1.86%   12.67%   12.67%    0.50%    0.17%    0.25%
 37  1     9    1  |1 1>-         0.00%    2.18%    6.58%    0.78%    1.53%    8.97%    1.05%    0.26%

   Total
 Nr Sym  State Sym Spin / Nr.      9       10       11       12       13       14       15       16

  1  1     1    1  |0 0>          0.00%    0.00%    0.00%    0.00%    0.00%   99.99%    0.01%    0.00%
  2  1     2    1  |0 0>          0.00%    0.00%    0.00%    0.00%    0.00%    0.00%    0.01%    3.94%
  3  1     3    1  |0 0>          0.00%    0.00%    0.00%    0.00%    0.00%    0.00%    0.02%    6.14%
  4  1     4    1  |0 0>          0.00%    0.00%    0.00%    0.00%    0.00%    0.00%    0.01%   21.81%
  5  1     5    1  |0 0>          0.00%    0.00%    0.00%    0.00%    0.00%    0.00%    0.00%   60.08%
  6  1     6    1  |0 0>          0.00%    0.00%    0.00%    0.00%    0.00%    0.00%    0.10%    8.03%
  7  1     7    1  |0 0>          0.00%    0.00%    0.00%    0.00%    0.00%    0.00%    0.01%    0.00%
  8  1     8    1  |0 0>          0.00%    0.00%    0.00%    0.00%    0.00%    0.00%    0.03%    0.00%
  9  1     9    1  |0 0>          0.00%    0.00%    0.00%    0.00%    0.00%    0.00%    0.03%    0.00%
 10  1    10    1  |0 0>          0.00%    0.00%    0.00%    0.00%    0.00%    0.00%    0.02%    0.00%
 11  1     1    1  |1 1>+        12.42%   31.05%    0.65%    1.80%    0.90%    0.00%    0.68%    0.00%
 12  1     2    1  |1 1>+         1.20%    0.72%    0.38%    0.29%    2.77%    0.00%    1.46%    0.00%
 13  1     3    1  |1 1>+         0.31%    0.03%    0.07%   11.20%    3.49%    0.00%    4.21%    0.00%
 14  1     4    1  |1 1>+         2.99%    0.41%    9.44%    4.56%    0.48%    0.00%    0.07%    0.00%
 15  1     5    1  |1 1>+         1.09%    3.19%    3.85%    0.07%    0.52%    0.00%    0.45%    0.00%
 16  1     6    1  |1 1>+         4.63%    1.13%    6.52%    1.16%    0.69%    0.00%    0.27%    0.00%
 17  1     7    1  |1 1>+         0.71%    0.26%    0.40%    0.33%    0.09%    0.00%    0.12%    0.00%
 18  1     8    1  |1 1>+         0.62%    1.33%    9.12%    3.51%    0.51%    0.00%    0.56%    0.00%
 19  1     9    1  |1 1>+         2.48%    4.35%    8.48%    0.59%    0.06%    0.00%    6.95%    0.00%
 20  1     1    1  |1 0>          4.33%    4.92%    3.38%    2.16%    9.51%    0.00%   11.25%    0.00%
 21  1     2    1  |1 0>         16.55%    4.61%    2.28%    8.25%    3.05%    0.00%   15.39%    0.00%
 22  1     3    1  |1 0>          0.91%    1.15%    2.74%   15.03%   15.21%    0.00%   19.16%    0.00%
 23  1     4    1  |1 0>         17.59%    0.58%   10.67%    1.33%   11.79%    0.00%   14.42%    0.00%
 24  1     5    1  |1 0>          0.47%    3.53%    4.75%    4.80%   30.82%    0.00%    1.61%    0.00%
 25  1     6    1  |1 0>          0.66%    0.95%    0.93%    0.33%    2.12%    0.00%    0.33%    0.00%
 26  1     7    1  |1 0>          0.00%    0.33%    0.53%    0.33%    2.97%    0.00%    0.09%    0.00%
 27  1     8    1  |1 0>          0.02%    0.12%    0.14%    0.12%    0.33%    0.00%    0.10%    0.00%
 28  1     9    1  |1 0>          0.09%    2.69%    3.25%   15.33%    9.44%    0.00%   15.83%    0.00%
 29  1     1    1  |1 1>-        13.78%    9.23%    2.54%    0.18%    0.92%    0.00%    0.39%    0.00%
 30  1     2    1  |1 1>-         2.24%    2.62%    0.17%    0.91%    0.86%    0.00%    0.47%    0.00%
 31  1     3    1  |1 1>-         3.85%    5.12%    2.16%   16.98%    1.65%    0.00%    0.21%    0.00%
 32  1     4    1  |1 1>-         2.92%    0.57%   11.37%    2.62%    0.23%    0.00%    0.61%    0.00%
 33  1     5    1  |1 1>-         3.37%    9.14%    2.74%    1.48%    0.02%    0.00%    0.12%    0.00%
 34  1     6    1  |1 1>-         0.69%    1.03%    2.34%    0.11%    0.07%    0.00%    0.27%    0.00%
 35  1     7    1  |1 1>-         0.11%    0.20%    0.18%    0.19%    0.14%    0.00%    0.31%    0.00%
 36  1     8    1  |1 1>-         0.46%    0.61%    9.71%    3.69%    0.41%    0.00%    0.33%    0.00%
 37  1     9    1  |1 1>-         5.53%   10.12%    1.21%    2.66%    0.94%    0.00%    4.11%    0.00%

   Total
 Nr Sym  State Sym Spin / Nr.     17       18       19       20       21       22       23       24

  1  1     1    1  |0 0>          0.00%    0.00%    0.00%    0.00%    0.00%    0.00%    0.00%    0.00%
  2  1     2    1  |0 0>          4.85%    8.25%   72.00%   10.94%    0.00%    0.00%    0.01%    0.00%
  3  1     3    1  |0 0>         35.66%   34.27%   12.93%   10.96%    0.00%    0.00%    0.03%    0.00%
  4  1     4    1  |0 0>         39.55%   33.87%    0.82%    3.93%    0.00%    0.00%    0.01%    0.00%
  5  1     5    1  |0 0>         18.60%   18.51%    0.26%    2.55%    0.00%    0.00%    0.00%    0.00%
  6  1     6    1  |0 0>          1.34%    5.10%   13.98%   71.27%    0.00%    0.01%    0.16%    0.00%
  7  1     7    1  |0 0>          0.00%    0.00%    0.00%    0.03%   59.43%   30.02%   10.50%    0.00%
  8  1     8    1  |0 0>          0.00%    0.00%    0.01%    0.11%   13.15%   49.32%   37.37%    0.00%
  9  1     9    1  |0 0>          0.00%    0.00%    0.01%    0.08%   27.41%   20.65%   51.83%    0.00%
 10  1    10    1  |0 0>          0.00%    0.00%    0.00%    0.00%    0.00%    0.00%    0.00%   99.98%
 11  1     1    1  |1 1>+         0.00%    0.00%    0.00%    0.00%    0.00%    0.00%    0.00%    0.00%
 12  1     2    1  |1 1>+         0.00%    0.00%    0.00%    0.00%    0.00%    0.00%    0.00%    0.00%
 13  1     3    1  |1 1>+         0.00%    0.00%    0.00%    0.00%    0.00%    0.00%    0.00%    0.00%
 14  1     4    1  |1 1>+         0.00%    0.00%    0.00%    0.00%    0.00%    0.00%    0.00%    0.00%
 15  1     5    1  |1 1>+         0.00%    0.00%    0.00%    0.00%    0.00%    0.00%    0.00%    0.00%
 16  1     6    1  |1 1>+         0.00%    0.00%    0.00%    0.00%    0.00%    0.00%    0.00%    0.00%
 17  1     7    1  |1 1>+         0.00%    0.00%    0.00%    0.00%    0.00%    0.00%    0.00%    0.00%
 18  1     8    1  |1 1>+         0.00%    0.00%    0.00%    0.00%    0.00%    0.00%    0.00%    0.00%
 19  1     9    1  |1 1>+         0.00%    0.00%    0.00%    0.01%    0.00%    0.00%    0.00%    0.00%
 20  1     1    1  |1 0>          0.00%    0.00%    0.00%    0.01%    0.00%    0.00%    0.01%    0.00%
 21  1     2    1  |1 0>          0.00%    0.00%    0.00%    0.02%    0.00%    0.00%    0.02%    0.00%
 22  1     3    1  |1 0>          0.00%    0.00%    0.00%    0.03%    0.00%    0.00%    0.01%    0.00%
 23  1     4    1  |1 0>          0.00%    0.00%    0.00%    0.02%    0.00%    0.00%    0.01%    0.00%
 24  1     5    1  |1 0>          0.00%    0.00%    0.00%    0.00%    0.00%    0.00%    0.00%    0.00%
 25  1     6    1  |1 0>          0.00%    0.00%    0.00%    0.00%    0.00%    0.00%    0.00%    0.00%
 26  1     7    1  |1 0>          0.00%    0.00%    0.00%    0.00%    0.00%    0.00%    0.00%    0.00%
 27  1     8    1  |1 0>          0.00%    0.00%    0.00%    0.00%    0.00%    0.00%    0.00%    0.00%
 28  1     9    1  |1 0>          0.00%    0.00%    0.00%    0.02%    0.00%    0.00%    0.01%    0.00%
 29  1     1    1  |1 1>-         0.00%    0.00%    0.00%    0.00%    0.00%    0.00%    0.00%    0.00%
 30  1     2    1  |1 1>-         0.00%    0.00%    0.00%    0.00%    0.00%    0.00%    0.00%    0.00%
 31  1     3    1  |1 1>-         0.00%    0.00%    0.00%    0.00%    0.00%    0.00%    0.00%    0.00%
 32  1     4    1  |1 1>-         0.00%    0.00%    0.00%    0.00%    0.00%    0.00%    0.00%    0.00%
 33  1     5    1  |1 1>-         0.00%    0.00%    0.00%    0.00%    0.00%    0.00%    0.00%    0.00%
 34  1     6    1  |1 1>-         0.00%    0.00%    0.00%    0.00%    0.00%    0.00%    0.00%    0.00%
 35  1     7    1  |1 1>-         0.00%    0.00%    0.00%    0.00%    0.00%    0.00%    0.00%    0.00%
 36  1     8    1  |1 1>-         0.00%    0.00%    0.00%    0.00%    0.00%    0.00%    0.00%    0.00%
 37  1     9    1  |1 1>-         0.00%    0.00%    0.00%    0.01%    0.00%    0.00%    0.00%    0.00%

   Total
 Nr Sym  State Sym Spin / Nr.     25       26       27       28       29       30       31       32

  1  1     1    1  |0 0>          0.00%    0.00%    0.00%    0.00%    0.00%    0.00%    0.00%    0.00%
  2  1     2    1  |0 0>          0.00%    0.00%    0.00%    0.00%    0.00%    0.00%    0.00%    0.00%
  3  1     3    1  |0 0>          0.00%    0.00%    0.00%    0.00%    0.00%    0.00%    0.00%    0.00%
  4  1     4    1  |0 0>          0.00%    0.00%    0.00%    0.00%    0.00%    0.00%    0.00%    0.00%
  5  1     5    1  |0 0>          0.00%    0.00%    0.00%    0.00%    0.00%    0.00%    0.00%    0.00%
  6  1     6    1  |0 0>          0.00%    0.00%    0.00%    0.00%    0.00%    0.00%    0.00%    0.00%
  7  1     7    1  |0 0>          0.00%    0.00%    0.00%    0.00%    0.00%    0.00%    0.00%    0.00%
  8  1     8    1  |0 0>          0.00%    0.00%    0.00%    0.00%    0.00%    0.00%    0.00%    0.00%
  9  1     9    1  |0 0>          0.00%    0.00%    0.00%    0.00%    0.00%    0.00%    0.00%    0.00%
 10  1    10    1  |0 0>          0.00%    0.00%    0.00%    0.00%    0.00%    0.00%    0.00%    0.00%
 11  1     1    1  |1 1>+         7.27%    0.13%    1.26%   16.91%    5.17%    8.36%    0.64%    0.47%
 12  1     2    1  |1 1>+         4.71%    1.17%    2.89%    6.82%    2.18%    0.08%   17.22%    0.75%
 13  1     3    1  |1 1>+        21.92%    2.56%   21.49%    3.63%    2.32%    0.43%    5.60%    0.65%
 14  1     4    1  |1 1>+         0.07%    1.53%    2.27%    2.33%    0.52%    0.36%   20.47%    3.87%
 15  1     5    1  |1 1>+         0.14%    0.30%    2.28%    3.08%    2.82%    6.49%    0.85%   20.55%
 16  1     6    1  |1 1>+         0.12%    3.28%    1.53%    0.93%    1.82%   20.01%    1.42%    5.85%
 17  1     7    1  |1 1>+         0.07%    0.10%    0.27%    0.55%    0.19%    3.21%    0.82%    8.91%
 18  1     8    1  |1 1>+         0.36%    0.93%    3.42%    3.40%    0.78%    0.02%    0.03%    0.79%
 19  1     9    1  |1 1>+         3.81%   21.56%    2.35%    1.19%    0.85%    4.37%    1.04%    8.53%
 20  1     1    1  |1 0>          0.64%   12.96%   12.41%   13.41%    8.63%    0.18%    0.38%    0.46%
 21  1     2    1  |1 0>          7.71%    4.35%    5.78%   11.47%    9.62%    1.95%    0.40%    0.60%
 22  1     3    1  |1 0>          4.59%    8.94%    1.64%    3.90%    6.40%    0.40%    0.90%    0.16%
 23  1     4    1  |1 0>          4.04%    1.75%    2.15%    8.78%   14.53%    1.07%    0.36%    1.12%
 24  1     5    1  |1 0>          0.33%    5.21%    4.65%    2.42%    2.04%    0.06%    0.90%    0.06%
 25  1     6    1  |1 0>          0.04%    0.43%    0.51%    0.48%    1.53%    0.40%    0.08%    0.85%
 26  1     7    1  |1 0>          0.04%    0.41%    0.58%    0.15%    0.14%    0.02%    0.05%    0.16%
 27  1     8    1  |1 0>          0.02%    0.08%    0.04%    0.00%    0.07%    0.02%    0.02%    0.06%
 28  1     9    1  |1 0>          6.67%    5.00%    0.07%    0.56%    0.08%    0.28%    1.27%    0.27%
 29  1     1    1  |1 1>-        16.66%    1.18%    2.54%    3.68%   22.20%    3.80%    0.32%    0.56%
 30  1     2    1  |1 1>-         2.19%    2.51%    2.80%    0.74%    5.50%    0.97%   16.02%    2.93%
 31  1     3    1  |1 1>-        11.44%   12.81%    9.71%    2.97%    3.84%    3.97%    2.43%    3.01%
 32  1     4    1  |1 1>-         0.40%    0.62%    3.09%    0.99%    0.70%    0.34%   24.99%    0.67%
 33  1     5    1  |1 1>-         1.04%    1.00%    1.41%    0.39%    4.70%   24.75%    0.58%    1.92%
 34  1     6    1  |1 1>-         0.23%    1.14%    0.55%    0.53%    0.93%   17.12%    0.87%   15.02%
 35  1     7    1  |1 1>-         0.10%    0.18%    0.13%    0.04%    0.24%    0.46%    0.88%   11.42%
 36  1     8    1  |1 1>-         0.57%    1.39%    3.51%    3.22%    0.58%    0.33%    0.09%    0.41%
 37  1     9    1  |1 1>-         4.83%    8.45%   10.69%    7.44%    1.60%    0.54%    1.39%    9.96%

   Total
 Nr Sym  State Sym Spin / Nr.     33       34       35       36       37

  1  1     1    1  |0 0>          0.00%    0.00%    0.00%    0.00%    0.00%
  2  1     2    1  |0 0>          0.00%    0.00%    0.00%    0.00%    0.00%
  3  1     3    1  |0 0>          0.00%    0.00%    0.00%    0.00%    0.00%
  4  1     4    1  |0 0>          0.00%    0.00%    0.00%    0.00%    0.00%
  5  1     5    1  |0 0>          0.00%    0.00%    0.00%    0.00%    0.00%
  6  1     6    1  |0 0>          0.00%    0.00%    0.00%    0.00%    0.00%
  7  1     7    1  |0 0>          0.00%    0.00%    0.00%    0.00%    0.00%
  8  1     8    1  |0 0>          0.00%    0.00%    0.00%    0.00%    0.00%
  9  1     9    1  |0 0>          0.00%    0.00%    0.00%    0.00%    0.00%
 10  1    10    1  |0 0>          0.00%    0.00%    0.00%    0.00%    0.00%
 11  1     1    1  |1 1>+         0.87%    0.36%    1.48%    0.36%    0.06%
 12  1     2    1  |1 1>+        18.19%    0.50%    0.98%    0.03%    0.02%
 13  1     3    1  |1 1>+         2.93%    0.46%    2.53%    0.82%    0.10%
 14  1     4    1  |1 1>+        13.95%    0.19%    0.41%    0.23%    0.04%
 15  1     5    1  |1 1>+         2.17%    3.08%    3.34%    2.36%    1.28%
 16  1     6    1  |1 1>+         0.03%    4.13%    0.78%    1.79%    6.44%
 17  1     7    1  |1 1>+         0.88%    0.11%    0.27%    1.98%   32.49%
 18  1     8    1  |1 1>+        10.04%    9.24%    3.93%   12.02%    0.21%
 19  1     9    1  |1 1>+         0.12%    0.87%    5.42%    3.21%    0.09%
 20  1     1    1  |1 0>          0.25%    3.40%    0.68%    0.72%    0.14%
 21  1     2    1  |1 0>          0.22%    1.77%    0.46%    0.36%    0.02%
 22  1     3    1  |1 0>          0.23%    2.62%    1.55%    3.73%    0.09%
 23  1     4    1  |1 0>          1.09%    1.14%    0.50%    0.76%    0.05%
 24  1     5    1  |1 0>          0.08%    0.58%    7.21%    9.19%    1.84%
 25  1     6    1  |1 0>          0.01%   18.63%    5.87%   12.22%    7.52%
 26  1     7    1  |1 0>          0.03%    5.27%    0.19%    1.71%   39.66%
 27  1     8    1  |1 0>          0.16%    5.48%   31.21%   12.75%    0.02%
 28  1     9    1  |1 0>          0.01%    9.60%    2.25%    7.18%    0.23%
 29  1     1    1  |1 1>-         1.01%    0.14%    1.77%    0.44%    0.05%
 30  1     2    1  |1 1>-        17.89%    0.37%    0.66%    0.40%    0.01%
 31  1     3    1  |1 1>-         3.43%    0.72%    1.79%    1.08%    0.15%
 32  1     4    1  |1 1>-        14.00%    0.00%    0.58%    0.22%    0.03%
 33  1     5    1  |1 1>-         0.68%    0.03%    7.33%    1.94%    1.08%
 34  1     6    1  |1 1>-         0.23%    4.22%    0.70%    1.64%    6.41%
 35  1     7    1  |1 1>-         1.09%   15.31%    6.01%   13.15%    1.00%
 36  1     8    1  |1 1>-        10.31%   10.42%    7.16%    7.66%    0.28%
 37  1     9    1  |1 1>-         0.10%    1.32%    4.96%    2.07%    0.70%


 No matrix element <i|DMX|i> larger than 5E-7
 No matrix element <i|DMX|1> larger than 5E-7

 No matrix element <i|DMY|i> larger than 5E-7
 No matrix element <i|DMY|1> larger than 5E-7

 No matrix element <i|DMZ|i> larger than 5E-7
 No matrix element <i|DMZ|1> larger than 5E-7


 **********************************************************************************************************************************
 DATASETS  * FILE   NREC   LENGTH (MB)   RECORD NAMES
              1      24      163.62       500      610      700      900      950      970     1000      129      960     1700   
                                          VAR    BASINP    GEOM    SYMINP    ZMAT    AOBASIS   BASIS     P2S    ABASIS    OPER   
                                         1101     1401     1411     1412     1650     1100     1400     1410     1200     1210   
                                          SR      EKINR    POTR     PVPR    MOLCAS      S      EKIN      POT      H0       H01  
                                         1080     1600     1380     1700(1)
                                         AOSYM     SMH     JKOP     OPER   

              2       7     2833.88       700     1000      520     2100     2140     5201     5202   
                                         GEOM     BASIS   MCVARS     RHF     MCSCF    MRCI     MRCI   

 PROGRAMS   *        TOTAL        CI     LSINT        CI        CI     MULTI   RHF-SCF       INT
 CPU TIMES  *   1387828.641354150.58      6.09  19990.33  13675.97      4.37      0.05      1.02
 REAL TIME  *   1393668.40 SEC
 DISK USED  *         2.81 GB (local),       34.16 GB (total)
 SF USED    *        17.62 GB
 GA USED    *         0.00 MB       (max)       0.00 MB       (current)
 **********************************************************************************************************************************

 CI/aug-cc-pWCVTZ-X2C energy=  -1970.470265008285

              CI              CI           MULTI         RHF-SCF
  -2788.71684959  -2788.69645598  -2787.87022006  -2787.14839330
 **********************************************************************************************************************************
 Molpro calculation terminated with 1 warning(s)
