
 Working directory              : /wrk/irikura/molpro.SPe6pLdtNs/
 Global scratch directory       : /wrk/irikura/molpro.SPe6pLdtNs/
 Wavefunction directory         : /home/irikura/wfu/
 Main file repository           : /wrk/irikura/molpro.SPe6pLdtNs/

 id        : nistki

 Nodes            nprocs
 pn125343.nist.gov   15
 GA implementation: MPI file
 GA implementation (serial work in mppx): MPI file

 Using customized tuning parameters: mindgm=1; mindgv=20; mindgc=4; mindgr=1; noblas=0; minvec=7
 default implementation of scratch files=sf  


 Variables initialized (1042), CPU time= 0.00 sec
 ***,Kr SO-CI
                                                                                 ! active space (8/8)
 memory,4000,M;
 
 gprint,orbitals,civector;
                                                                                 !gthresh,energy=1.d-10,coeff=1.d-8;
 
 symmetry,xyz
 geometry={Kr};
 
 basis=aug-cc-pwCVQZ-PP
 
 rhf
 
 {multi,wmk
     occ,8,9
     wf,sym=1,spin=0;state,10;
     wf,sym=1,spin=2;state,9;
     expec2,lxx,lyy,lzz;
 }
 table, energy, ll
 title, Energies and &lt;L**2&gt; values
 
 core,0,0
 
 {ci;wf,sym=1,spin=0;state,10; save,5201.2}
 hlsdiag = energd4
 {ci;wf,sym=1,spin=2;state,9; save,5202.2}
 hlsdiag(11) = energd
 
 table,hlsdiag
 
 {ci;hlsmat,ecp,5201.2,5202.2;print,vls=0,hls=0}                                 !compute and diagonalize SO matrix
 Commands initialized (847), CPU time= 0.02 sec, 718 directives.
 Default parameters read. Elapsed time= 0.11 sec

 Checking input...
 Passed
1


                                         ***  PROGRAM SYSTEM MOLPRO  ***
                                       Copyright, TTI GmbH Stuttgart, 2015
                                    Version 2024.1 linked Mon Jun 17 07:53:25 2024


 **********************************************************************************************************************************
 LABEL *   Kr SO-CI                                                                                                                                                      
  (64 PROC) 64 bit mpp version                                                           DATE: 27-Jun-24          TIME: 13:51:16  
 **********************************************************************************************************************************

 SHA1:             0134236b472f03f1f5189f93707d8671e415b05c
 **********************************************************************************************************************************

 Memory per process:      4000 MW
 Total memory per node:  60000 MW

 GA preallocation disabled
 GA check disabled

 Variable memory set to 4000.0 MW


 ZSYMEL=XYZ

 SETTING BASIS          =    AUG-CC-PWCVQZ-PP


 Recomputing integrals since basis changed


 Using spherical harmonics

 Library entry Kr   ECP ECP10MDF                 selected for group  1
 Library entry KR     S aug-cc-pwCVQZ-PP     selected for orbital group  1
 Library entry KR     P aug-cc-pwCVQZ-PP     selected for orbital group  1
 Library entry KR     D aug-cc-pwCVQZ-PP     selected for orbital group  1
 Library entry KR     F aug-cc-pwCVQZ-PP     selected for orbital group  1
 Library entry KR     G aug-cc-pwCVQZ-PP     selected for orbital group  1
 Library entry KR     H aug-cc-pwCVQZ-PP     selected for orbital group  1


 PROGRAM * SEWARD (Integral evaluation for generally contracted gaussian basis sets)     Author: Roland Lindh, 1990

 Geometry written to block  1 of record 700

 Orientation using atomic masses  
 Molecule type: Atom
 User-specified symmetry elements: XYZ
 Symmetry elements: XYZ
 Rotational constants:       0.0000000      0.0000000      0.0000000 GHz  (calculated with average atomic masses)

 Point group  Ci  



 ATOMIC COORDINATES

 NR  ATOM    CHARGE       X              Y              Z

   1  KR     26.00    0.000000000    0.000000000    0.000000000

 NUCLEAR CHARGE:                   26
 NUMBER OF PRIMITIVE AOS:         300
 NUMBER OF SYMMETRY AOS:          232
 NUMBER OF CONTRACTIONS:          166   (   86Ag  +   80Au  )
 NUMBER OF INNER CORE ORBITALS:     0   (    0Ag  +    0Au  )
 NUMBER OF OUTER CORE ORBITALS:     9   (    6Ag  +    3Au  )
 NUMBER OF VALENCE ORBITALS:        4   (    1Ag  +    3Au  )


 LX: Ag           LY: Ag           LZ: Ag 


 NUCLEAR REPULSION ENERGY    0.00000000

 EXTRA SYMMETRY OF AOS IN SYMMETRY 1:   1 1 1 1 1 1 1 1 1 1   2 3 4 5 6 2 3 4 5 6   2 3 4 5 6 2 3 4 5 6   2 3 4 5 6 2 3 4 5 6
                                        2 3 4 5 6 2 3 4 5 6   7 8 9101112131415 7   8 9101112131415 7 8   9101112131415 7 8 9
                                       101112131415
 EXTRA SYMMETRY OF AOS IN SYMMETRY 2:   1 2 3 1 2 3 1 2 3 1   2 3 1 2 3 1 2 3 1 2   3 1 2 3 1 2 3 4 5 6   7 8 910 4 5 6 7 8 9
                                       10 4 5 6 7 8 910 4 5   6 7 8 910 4 5 6 7 8   910 4 5 6 7 8 91011  12131415161718192021


 Eigenvalues of metric

         1 0.128E-03 0.110E-02 0.286E-02 0.915E-02 0.915E-02 0.915E-02 0.915E-02 0.915E-02
         2 0.325E-03 0.325E-03 0.325E-03 0.153E-02 0.153E-02 0.153E-02 0.236E-01 0.236E-01


 Contracted 2-electron integrals neglected if value below      1.0D-11
 AO integral compression algorithm  1   Integral accuracy      1.0D-11

     93.585 MB (compressed) written to integral file ( 13.4%)

     Node minimum: 2.621 MB, node maximum: 9.961 MB


 NUMBER OF SORTED TWO-ELECTRON INTEGRALS:    3242583.     BUFFER LENGTH:  32768
 NUMBER OF SEGMENTS:   1  SEGMENT LENGTH:    3242583      RECORD LENGTH: 524288

 Memory used in sort:       3.80 MW

 SORT1 READ    86907878. AND WROTE      584617. INTEGRALS IN      2 RECORDS. CPU TIME:     0.39 SEC, REAL TIME:     0.41 SEC
 SORT2 READ     8938358. AND WROTE    48612351. INTEGRALS IN    150 RECORDS. CPU TIME:     0.05 SEC, REAL TIME:     0.07 SEC

 Node minimum:     3238863.  Node maximum:     3242583. integrals

 OPERATOR DM      FOR CENTER  0  COORDINATES:    0.000000    0.000000    0.000000


 **********************************************************************************************************************************
 DATASETS  * FILE   NREC   LENGTH (MB)   RECORD NAMES
              1      19       29.35       500      610      700      900      950      970     1000      129      960     1100   
                                          VAR    BASINP    GEOM    SYMINP    ZMAT    AOBASIS   BASIS     P2S    ABASIS      S 
                                         1400     1410     1420     1200     1210     1080     1700     1600     1650   
                                           T        V       ECP      H0       H01     AOSYM    OPER      SMH    MOLCAS    

 PROGRAMS   *        TOTAL       INT
 CPU TIMES  *         2.23      2.03
 REAL TIME  *         4.17 SEC
 DISK USED  *        29.71 MB (local),      621.75 MB (total)
 GA USED    *         0.00 MB       (max)       0.00 MB       (current)
 **********************************************************************************************************************************


 Program * Restricted Hartree-Fock

 Orbital guess generated from atomic densities.

 Initial occupancy:   7   6

 NELEC=   26   SYM=1   MS2= 0   THRE=1.0D-08   THRD=3.2D-06   THRG=3.2D-06  HFMA2=F  DIIS_START=2   DIIS_MAX=10   DIIS_INCORE=F

 Level shifts:    0.00 (CLOSED)    0.00 (OPEN)    0.30 (GAP_MIN)

 ITER           ETOT              DE          GRAD        DDIFF     DIIS  NEXP   TIME(IT)  TIME(TOT)  DIAG
   1     -462.19986458    -462.19986458     0.00D+00     0.86D-01     0     0       0.02      0.04    start
   2     -462.19986748      -0.00000290     0.47D-04     0.21D-03     1     0       0.02      0.06    diag
   3     -462.19986760      -0.00000012     0.60D-05     0.26D-04     2     0       0.02      0.08    diag
   4     -462.19986760      -0.00000000     0.10D-05     0.25D-05     3     0       0.02      0.10    diag
   5     -462.19986760      -0.00000000     0.39D-06     0.46D-06     0     0       0.02      0.12    diag

 Final occupancy:   7   6

 !RHF STATE 1.1 Energy               -462.199867598385
  RHF One-electron energy            -808.823517413757
  RHF Two-electron energy             346.623649815373
  RHF Kinetic energy                  329.240769588185
  RHF Nuclear energy                    0.000000000000
  RHF Virial quotient                  -1.403835461132

 !RHF STATE 1.1 Dipole moment           0.00000000     0.00000000     0.00000000
 Dipole moment /Debye                   0.00000000     0.00000000     0.00000000

 ELECTRON ORBITALS
 =================

  Orbital  Occupation    Energy    Cen Mu Typ  Coefficients
    1.1     2.00000   -10.80717     1  1  s    1.00022
    2.1     2.00000    -3.75339     1  1  d1+  0.39624    1  1  d1-  0.91815
    3.1     2.00000    -3.75339     1  1  d1+  0.91815    1  1  d1- -0.39624
    4.1     2.00000    -3.75339     1  1  d2+  0.99953
    5.1     2.00000    -3.75339     1  1  d2-  0.99953
    6.1     2.00000    -3.75339     1  1  d0   1.00001
    7.1     2.00000    -1.18773     1  1  s   -0.41319    1  4  s    0.53192    1  5  s    0.59813    1  9  s   -0.26616
    1.2     2.00000    -8.48549     1  1  py   1.00004
    2.2     2.00000    -8.48549     1  1  px   1.00004
    3.2     2.00000    -8.48549     1  1  pz   1.00004
    4.2     2.00000    -0.52324     1  2  px   1.00396
    5.2     2.00000    -0.52324     1  2  py   1.00396
    6.2     2.00000    -0.52324     1  2  pz   1.00396


 HOMO      6.2    -0.523240 =     -14.2381eV
 LUMO      8.1     0.079996 =       2.1768eV
 LUMO-HOMO         0.603236 =      16.4149eV

 Orbitals saved in record  2100.2


 **********************************************************************************************************************************
 DATASETS  * FILE   NREC   LENGTH (MB)   RECORD NAMES
              1      19       29.35       500      610      700      900      950      970     1000      129      960     1100   
                                          VAR    BASINP    GEOM    SYMINP    ZMAT    AOBASIS   BASIS     P2S    ABASIS      S 
                                         1400     1410     1420     1200     1210     1080     1700     1600     1650   
                                           T        V       ECP      H0       H01     AOSYM    OPER      SMH    MOLCAS    

              2       4        0.61       700     1000      520     2100   
                                         GEOM     BASIS   MCVARS     RHF  

 PROGRAMS   *        TOTAL   RHF-SCF       INT
 CPU TIMES  *         2.36      0.13      2.03
 REAL TIME  *         4.31 SEC
 DISK USED  *        30.70 MB (local),      636.51 MB (total)
 GA USED    *         0.00 MB       (max)       0.00 MB       (current)
 **********************************************************************************************************************************

 PROGRAM * MULTI (Direct Multiconfiguration SCF)       Authors: P.J. Knowles, H.-J. Werner (1984)
                                                                D.A. Kreplin, P.J. Knowles, H.-J. Werner (2019)

 Number of closed-shell orbitals:   9 (    6    3)
 Number of active  orbitals:        8 (    2    6)
 Number of external orbitals:     149 (   78   71)

 State symmetry 1

 Number of active electrons:   8    Spin symmetry=Singlet   Space symmetry=1
 Number of states:            10
 Number of CSFs:             924   (2500 determinants, 4900 intermediate states)

 State symmetry 2

 Number of active electrons:   8    Spin symmetry=Triplet   Space symmetry=1
 Number of states:             9
 Number of CSFs:            1176   (1576 determinants, 3136 intermediate states)

 Molecular orbitals read from record     2100.2  Type=RHF/CANONICAL  
 *** IN SYMMETRY 1 ORBITAL  2 SYMMETRY CONTAMINATION OF 0.302D+00 HAS BEEN REMOVED
 *** IN SYMMETRY 1 ORBITAL  3 SYMMETRY CONTAMINATION OF 0.302D+00 HAS BEEN REMOVED
 *** IN SYMMETRY 1 ORBITAL  4 SYMMETRY CONTAMINATION OF 0.316D-01 HAS BEEN REMOVED
 *** IN SYMMETRY 1 ORBITAL  5 SYMMETRY CONTAMINATION OF 0.313D-01 HAS BEEN REMOVED
 *** IN SYMMETRY 1 ORBITAL  6 SYMMETRY CONTAMINATION OF 0.173D-04 HAS BEEN REMOVED

 EXTRA SYMMETRY OF MOS IN SYMMETRY 1:   1 6 4 5 3 2 1 1 5 3   4 6 2 1 6 4 3 5 2 2   6 4 3 51415131012 8   7 911 1 5 3 4 6 2 7
                                       1013141512 8 911 1 5   3 2 6 41415 7 91112   81310 1 5 3 2 4 6 1  1415 812 711 91310 5
                                        3 6 4 2 1 1
 *** IN SYMMETRY 2 ORBITAL  1 SYMMETRY CONTAMINATION OF 0.194D-02 HAS BEEN REMOVED
 *** IN SYMMETRY 2 ORBITAL  3 SYMMETRY CONTAMINATION OF 0.194D-02 HAS BEEN REMOVED
 *** IN SYMMETRY 2 ORBITAL  4 SYMMETRY CONTAMINATION OF 0.208D-03 HAS BEEN REMOVED
 *** IN SYMMETRY 2 ORBITAL  5 SYMMETRY CONTAMINATION OF 0.953D-04 HAS BEEN REMOVED
 *** IN SYMMETRY 2 ORBITAL  6 SYMMETRY CONTAMINATION OF 0.244D-03 HAS BEEN REMOVED
 *** IN SYMMETRY 2 ORBITAL  7 SYMMETRY CONTAMINATION OF 0.143D-02 HAS BEEN REMOVED
 *** IN SYMMETRY 2 ORBITAL  9 SYMMETRY CONTAMINATION OF 0.143D-02 HAS BEEN REMOVED
 EXTRA SYMMETRY OF MOS IN SYMMETRY 2:   2 1 3 1 2 3 3 1 2 2   1 3 5 4 9 710 8 6 2   1 3 9 7 6 810 5 4 1   2 3 9 7 5 410 8 6 7
                                        9 4 510 8 6 1 2 315  17121120181416132119  10 8 9 7 5 4 6 1 2 3   9 710 8 6 5 4 1 2 3

 Wavefunction dump at record             2140.2

 Convergence thresholds  0.10E-04 (gradient)  0.10E-05 (energy)

 Weight factors for state symmetry  1:    0.05263   0.05263   0.05263   0.05263   0.05263   0.05263   0.05263   0.05263
                                          0.05263   0.05263
 Weight factors for state symmetry  2:    0.05263   0.05263   0.05263   0.05263   0.05263   0.05263   0.05263   0.05263
                                          0.05263
 
 Number of orbital rotations:  1293  ( 30 closed/active, 681 closed/virtual, 0 active/active, 582 active/virtual )
 Total number of variables:    40477
 
 Second-order MCSCF: L-BFGS accelerated
 
 ITER  MIC  NCI  NEG     ENERGY(VAR)    ENERGY(PROJ) ENERGY CHANGE       GRAD(0)  GRAD(ORB)   GRAD(CI)      STEP      TIME
   1   12   50    0   -461.77855254    -461.82473300   -0.04618046    0.28037480 0.00356389 0.00236236  0.10E+01      8.85
   2    8   35    0   -461.80897222    -461.81335743   -0.00438521    0.23876319 0.00016145 0.00020650  0.11E+00     16.74
   3    9   36    0   -461.81338733    -461.81338802   -0.00000068    0.00181756 0.00000201 0.00000700  0.63E-02     23.53
   4    5   22    0   -461.81338802    -461.81338802   -0.00000000    0.00000045 0.00000000 0.00000006  0.40E-04     28.80

 CONVERGENCE REACHED!  Final gradient:    0.00000002 ( 0.19E-07)
                       Final energy:   -461.81338802
 
 Results for state 1.1 Singlet
 =============================
 !MCSCF STATE 1.1 Singlet Energy              -462.185071104939
 Nuclear energy                                  0.00000000
 Kinetic energy                                330.03360860
 One electron energy                          -810.59931781
 Two electron energy                           348.41424670
 Virial ratio                                    2.40041820
 
 !MCSCF STATE 1.1 Singlet Dipole moment          0.00000000     0.00000000     0.00000000
 Dipole moment /Debye                            0.00000000     0.00000000     0.00000000
 
 Results for state 2.1 Singlet
 =============================
 !MCSCF STATE 2.1 Singlet Energy              -461.794096598235
 Nuclear energy                                  0.00000000
 Kinetic energy                                328.96834202
 One electron energy                          -801.98452294
 Two electron energy                           340.19042635
 Virial ratio                                    2.40376455
 
 !MCSCF STATE 2.1 Singlet Dipole moment          0.00000000     0.00000000     0.00000000
 Dipole moment /Debye                            0.00000000     0.00000000     0.00000000
 
 Results for state 3.1 Singlet
 =============================
 !MCSCF STATE 3.1 Singlet Energy              -461.794096598235
 Nuclear energy                                  0.00000000
 Kinetic energy                                328.96834202
 One electron energy                          -801.98452294
 Two electron energy                           340.19042635
 Virial ratio                                    2.40376455
 
 !MCSCF STATE 3.1 Singlet Dipole moment          0.00000000     0.00000000     0.00000000
 Dipole moment /Debye                            0.00000000     0.00000000     0.00000000
 
 Results for state 4.1 Singlet
 =============================
 !MCSCF STATE 4.1 Singlet Energy              -461.794096598223
 Nuclear energy                                  0.00000000
 Kinetic energy                                328.96834202
 One electron energy                          -801.98452294
 Two electron energy                           340.19042635
 Virial ratio                                    2.40376455
 
 !MCSCF STATE 4.1 Singlet Dipole moment          0.00000000     0.00000000     0.00000000
 Dipole moment /Debye                            0.00000000     0.00000000     0.00000000
 
 Results for state 5.1 Singlet
 =============================
 !MCSCF STATE 5.1 Singlet Energy              -461.794096598199
 Nuclear energy                                  0.00000000
 Kinetic energy                                328.96834202
 One electron energy                          -801.98452294
 Two electron energy                           340.19042635
 Virial ratio                                    2.40376455
 
 !MCSCF STATE 5.1 Singlet Dipole moment          0.00000000     0.00000000     0.00000000
 Dipole moment /Debye                            0.00000000     0.00000000     0.00000000
 
 Results for state 6.1 Singlet
 =============================
 !MCSCF STATE 6.1 Singlet Energy              -461.794096598183
 Nuclear energy                                  0.00000000
 Kinetic energy                                328.96834202
 One electron energy                          -801.98452294
 Two electron energy                           340.19042635
 Virial ratio                                    2.40376455
 
 !MCSCF STATE 6.1 Singlet Dipole moment          0.00000000     0.00000000     0.00000000
 Dipole moment /Debye                            0.00000000     0.00000000     0.00000000
 
 Results for state 7.1 Singlet
 =============================
 !MCSCF STATE 7.1 Singlet Energy              -461.790094147331
 Nuclear energy                                  0.00000000
 Kinetic energy                                328.96264221
 One electron energy                          -801.96715986
 Two electron energy                           340.17706572
 Virial ratio                                    2.40377671
 
 !MCSCF STATE 7.1 Singlet Dipole moment          0.00000000     0.00000000     0.00000000
 Dipole moment /Debye                            0.00000000     0.00000000     0.00000000
 
 Results for state 8.1 Singlet
 =============================
 !MCSCF STATE 8.1 Singlet Energy              -461.790094147331
 Nuclear energy                                  0.00000000
 Kinetic energy                                328.96264221
 One electron energy                          -801.96715986
 Two electron energy                           340.17706572
 Virial ratio                                    2.40377671
 
 !MCSCF STATE 8.1 Singlet Dipole moment          0.00000000     0.00000000     0.00000000
 Dipole moment /Debye                            0.00000000     0.00000000     0.00000000
 
 Results for state 9.1 Singlet
 =============================
 !MCSCF STATE 9.1 Singlet Energy              -461.790094147319
 Nuclear energy                                  0.00000000
 Kinetic energy                                328.96264221
 One electron energy                          -801.96715986
 Two electron energy                           340.17706572
 Virial ratio                                    2.40377671
 
 !MCSCF STATE 9.1 Singlet Dipole moment          0.00000000     0.00000000     0.00000000
 Dipole moment /Debye                            0.00000000     0.00000000     0.00000000
 
 Results for state 10.1 Singlet
 ==============================
 !MCSCF STATE 10.1 Singlet Energy             -461.768497911773
 Nuclear energy                                  0.00000000
 Kinetic energy                                329.26724188
 One electron energy                          -803.12770808
 Two electron energy                           341.35921016
 Virial ratio                                    2.40241251
 
 !MCSCF STATE 10.1 Singlet Dipole moment         0.00000000     0.00000000     0.00000000
 Dipole moment /Debye                            0.00000000     0.00000000     0.00000000
 
 Results for state 1.1 Triplet
 =============================
 !MCSCF STATE 1.1 Triplet Energy              -461.806580271566
 Nuclear energy                                  0.00000000
 Kinetic energy                                328.94097903
 One electron energy                          -801.89426470
 Two electron energy                           340.08768443
 Virial ratio                                    2.40391927
 
 !MCSCF STATE 1.1 Triplet Dipole moment          0.00000000     0.00000000     0.00000000
 Dipole moment /Debye                            0.00000000     0.00000000     0.00000000
 
 Results for state 2.1 Triplet
 =============================
 !MCSCF STATE 2.1 Triplet Energy              -461.796498956361
 Nuclear energy                                  0.00000000
 Kinetic energy                                328.95450496
 One electron energy                          -801.94022996
 Two electron energy                           340.14373101
 Virial ratio                                    2.40383090
 
 !MCSCF STATE 2.1 Triplet Dipole moment          0.00000000     0.00000000     0.00000000
 Dipole moment /Debye                            0.00000000     0.00000000     0.00000000
 
 Results for state 3.1 Triplet
 =============================
 !MCSCF STATE 3.1 Triplet Energy              -461.796498956361
 Nuclear energy                                  0.00000000
 Kinetic energy                                328.95450496
 One electron energy                          -801.94022996
 Two electron energy                           340.14373101
 Virial ratio                                    2.40383090
 
 !MCSCF STATE 3.1 Triplet Dipole moment          0.00000000     0.00000000     0.00000000
 Dipole moment /Debye                            0.00000000     0.00000000     0.00000000
 
 Results for state 4.1 Triplet
 =============================
 !MCSCF STATE 4.1 Triplet Energy              -461.796498956359
 Nuclear energy                                  0.00000000
 Kinetic energy                                328.95450496
 One electron energy                          -801.94022996
 Two electron energy                           340.14373101
 Virial ratio                                    2.40383090
 
 !MCSCF STATE 4.1 Triplet Dipole moment          0.00000000     0.00000000     0.00000000
 Dipole moment /Debye                            0.00000000     0.00000000     0.00000000
 
 Results for state 5.1 Triplet
 =============================
 !MCSCF STATE 5.1 Triplet Energy              -461.796498956349
 Nuclear energy                                  0.00000000
 Kinetic energy                                328.95450496
 One electron energy                          -801.94022996
 Two electron energy                           340.14373101
 Virial ratio                                    2.40383090
 
 !MCSCF STATE 5.1 Triplet Dipole moment          0.00000000     0.00000000     0.00000000
 Dipole moment /Debye                            0.00000000     0.00000000     0.00000000
 
 Results for state 6.1 Triplet
 =============================
 !MCSCF STATE 6.1 Triplet Energy              -461.796498956343
 Nuclear energy                                  0.00000000
 Kinetic energy                                328.95450496
 One electron energy                          -801.94022996
 Two electron energy                           340.14373101
 Virial ratio                                    2.40383090
 
 !MCSCF STATE 6.1 Triplet Dipole moment          0.00000000     0.00000000     0.00000000
 Dipole moment /Debye                            0.00000000     0.00000000     0.00000000
 
 Results for state 7.1 Triplet
 =============================
 !MCSCF STATE 7.1 Triplet Energy              -461.790320929065
 Nuclear energy                                  0.00000000
 Kinetic energy                                328.96073830
 One electron energy                          -801.95966413
 Two electron energy                           340.16934320
 Virial ratio                                    2.40378552
 
 !MCSCF STATE 7.1 Triplet Dipole moment          0.00000000     0.00000000     0.00000000
 Dipole moment /Debye                            0.00000000     0.00000000     0.00000000
 
 Results for state 8.1 Triplet
 =============================
 !MCSCF STATE 8.1 Triplet Energy              -461.790320929065
 Nuclear energy                                  0.00000000
 Kinetic energy                                328.96073830
 One electron energy                          -801.95966413
 Two electron energy                           340.16934320
 Virial ratio                                    2.40378552
 
 !MCSCF STATE 8.1 Triplet Dipole moment          0.00000000     0.00000000     0.00000000
 Dipole moment /Debye                            0.00000000     0.00000000     0.00000000
 
 Results for state 9.1 Triplet
 =============================
 !MCSCF STATE 9.1 Triplet Energy              -461.790320929052
 Nuclear energy                                  0.00000000
 Kinetic energy                                328.96073830
 One electron energy                          -801.95966413
 Two electron energy                           340.16934320
 Virial ratio                                    2.40378552
 
 !MCSCF STATE 9.1 Triplet Dipole moment          0.00000000     0.00000000     0.00000000
 Dipole moment /Debye                            0.00000000     0.00000000     0.00000000
 
 State-averaged charge density matrix saved on record 2140.2 (density set 1)
 
 No non-zero expectation values
 
 Expectation values for two-electron operators:
 
 ? Warning
 ? Transition properties are only calculated between states of the same symmetry
 ? The problem occurs in mu_properties_expec2

 !MCSCF expec      <1.1 Singlet|LXLX|1.1 Singlet>    -0.000000000000
 !MCSCF expec      <2.1 Singlet|LXLX|2.1 Singlet>     3.151871912676
 !MCSCF expec      <3.1 Singlet|LXLX|3.1 Singlet>     1.848126728396
 !MCSCF expec      <4.1 Singlet|LXLX|4.1 Singlet>     1.000001379685
 !MCSCF expec      <5.1 Singlet|LXLX|5.1 Singlet>     2.998122238153
 !MCSCF expec      <6.1 Singlet|LXLX|6.1 Singlet>     1.001877741089
 !MCSCF expec      <7.1 Singlet|LXLX|7.1 Singlet>     0.088637985735
 !MCSCF expec      <8.1 Singlet|LXLX|8.1 Singlet>     0.911363815760
 !MCSCF expec      <9.1 Singlet|LXLX|9.1 Singlet>     0.999998198505
 !MCSCF expec    <10.1 Singlet|LXLX|10.1 Singlet>    -0.000000000000
 !MCSCF expec      <1.1 Triplet|LXLX|1.1 Triplet>    -0.000000000000
 !MCSCF expec      <2.1 Triplet|LXLX|2.1 Triplet>     3.576230750392
 !MCSCF expec      <3.1 Triplet|LXLX|3.1 Triplet>     1.423755095199
 !MCSCF expec      <4.1 Triplet|LXLX|4.1 Triplet>     3.001863176799
 !MCSCF expec      <5.1 Triplet|LXLX|5.1 Triplet>     1.000001914188
 !MCSCF expec      <6.1 Triplet|LXLX|6.1 Triplet>     0.998149063421
 !MCSCF expec      <7.1 Triplet|LXLX|7.1 Triplet>     0.687801099360
 !MCSCF expec      <8.1 Triplet|LXLX|8.1 Triplet>     0.312199094048
 !MCSCF expec      <9.1 Triplet|LXLX|9.1 Triplet>     0.999999806592
 
 !MCSCF expec      <1.1 Singlet|LYLY|1.1 Singlet>    -0.000000000000
 !MCSCF expec      <2.1 Singlet|LYLY|2.1 Singlet>     1.848124951739
 !MCSCF expec      <3.1 Singlet|LYLY|3.1 Singlet>     3.151872879645
 !MCSCF expec      <4.1 Singlet|LYLY|4.1 Singlet>     1.000002175078
 !MCSCF expec      <5.1 Singlet|LYLY|5.1 Singlet>     3.001876556769
 !MCSCF expec      <6.1 Singlet|LYLY|6.1 Singlet>     0.998123436769
 !MCSCF expec      <7.1 Singlet|LYLY|7.1 Singlet>     0.911363680797
 !MCSCF expec      <8.1 Singlet|LYLY|8.1 Singlet>     0.088636320245
 !MCSCF expec      <9.1 Singlet|LYLY|9.1 Singlet>     0.999999998958
 !MCSCF expec    <10.1 Singlet|LYLY|10.1 Singlet>    -0.000000000000
 !MCSCF expec      <1.1 Triplet|LYLY|1.1 Triplet>    -0.000000000000
 !MCSCF expec      <2.1 Triplet|LYLY|2.1 Triplet>     1.423772247927
 !MCSCF expec      <3.1 Triplet|LYLY|3.1 Triplet>     3.576245436647
 !MCSCF expec      <4.1 Triplet|LYLY|4.1 Triplet>     2.998125618292
 !MCSCF expec      <5.1 Triplet|LYLY|5.1 Triplet>     1.000003623279
 !MCSCF expec      <6.1 Triplet|LYLY|6.1 Triplet>     1.001853073854
 !MCSCF expec      <7.1 Triplet|LYLY|7.1 Triplet>     0.312199043012
 !MCSCF expec      <8.1 Triplet|LYLY|8.1 Triplet>     0.687801521383
 !MCSCF expec      <9.1 Triplet|LYLY|9.1 Triplet>     0.999999435605
 
 !MCSCF expec      <1.1 Singlet|LZLZ|1.1 Singlet>    -0.000000000000
 !MCSCF expec      <2.1 Singlet|LZLZ|2.1 Singlet>     1.000003135585
 !MCSCF expec      <3.1 Singlet|LZLZ|3.1 Singlet>     1.000000391959
 !MCSCF expec      <4.1 Singlet|LZLZ|4.1 Singlet>     3.999996445237
 !MCSCF expec      <5.1 Singlet|LZLZ|5.1 Singlet>     0.000001205077
 !MCSCF expec      <6.1 Singlet|LZLZ|6.1 Singlet>     3.999998822142
 !MCSCF expec      <7.1 Singlet|LZLZ|7.1 Singlet>     0.999998333468
 !MCSCF expec      <8.1 Singlet|LZLZ|8.1 Singlet>     0.999999863995
 !MCSCF expec      <9.1 Singlet|LZLZ|9.1 Singlet>     0.000001802536
 !MCSCF expec    <10.1 Singlet|LZLZ|10.1 Singlet>    -0.000000000000
 !MCSCF expec      <1.1 Triplet|LZLZ|1.1 Triplet>    -0.000000000000
 !MCSCF expec      <2.1 Triplet|LZLZ|2.1 Triplet>     0.999997001681
 !MCSCF expec      <3.1 Triplet|LZLZ|3.1 Triplet>     0.999999468153
 !MCSCF expec      <4.1 Triplet|LZLZ|4.1 Triplet>     0.000011204908
 !MCSCF expec      <5.1 Triplet|LZLZ|5.1 Triplet>     3.999994462532
 !MCSCF expec      <6.1 Triplet|LZLZ|6.1 Triplet>     3.999997862725
 !MCSCF expec      <7.1 Triplet|LZLZ|7.1 Triplet>     0.999999857627
 !MCSCF expec      <8.1 Triplet|LZLZ|8.1 Triplet>     0.999999384569
 !MCSCF expec      <9.1 Triplet|LZLZ|9.1 Triplet>     0.000000757803
 
 !MCSCF expec      <1.1 Singlet|L**2|1.1 Singlet>    -0.000000000000
 !MCSCF expec      <2.1 Singlet|L**2|2.1 Singlet>     6.000000000000
 !MCSCF expec      <3.1 Singlet|L**2|3.1 Singlet>     6.000000000000
 !MCSCF expec      <4.1 Singlet|L**2|4.1 Singlet>     6.000000000000
 !MCSCF expec      <5.1 Singlet|L**2|5.1 Singlet>     6.000000000000
 !MCSCF expec      <6.1 Singlet|L**2|6.1 Singlet>     6.000000000000
 !MCSCF expec      <7.1 Singlet|L**2|7.1 Singlet>     2.000000000000
 !MCSCF expec      <8.1 Singlet|L**2|8.1 Singlet>     2.000000000000
 !MCSCF expec      <9.1 Singlet|L**2|9.1 Singlet>     2.000000000000
 !MCSCF expec    <10.1 Singlet|L**2|10.1 Singlet>    -0.000000000000
 !MCSCF expec      <1.1 Triplet|L**2|1.1 Triplet>    -0.000000000000
 !MCSCF expec      <2.1 Triplet|L**2|2.1 Triplet>     6.000000000000
 !MCSCF expec      <3.1 Triplet|L**2|3.1 Triplet>     6.000000000000
 !MCSCF expec      <4.1 Triplet|L**2|4.1 Triplet>     6.000000000000
 !MCSCF expec      <5.1 Triplet|L**2|5.1 Triplet>     6.000000000000
 !MCSCF expec      <6.1 Triplet|L**2|6.1 Triplet>     6.000000000000
 !MCSCF expec      <7.1 Triplet|L**2|7.1 Triplet>     2.000000000000
 !MCSCF expec      <8.1 Triplet|L**2|8.1 Triplet>     2.000000000000
 !MCSCF expec      <9.1 Triplet|L**2|9.1 Triplet>     2.000000000000
 
 EXTRA SYMMETRY OF MOS IN SYMMETRY 1:   1 4 6 3 5 2 1 1 1 3   5 6 4 2 6 4 5 3 2 1   6 4 2 3 51415 81213  10 911 7 6 4 3 5 2 7
                                       1310141511 9 812 1 3   5 2 4 61415 711 9 8  121310 1 2 3 5 6 4 1  1415 812 7 9111310 2
                                        3 5 4 6 1 1
 EXTRA SYMMETRY OF MOS IN SYMMETRY 2:   1 2 3 3 2 1 3 1 2 2   1 3 4 5 9 7 810 6 1   2 3 9 7 810 6 4 5 1   2 3 9 7 5 4 810 6 9
                                        7 5 4 810 6 1 2 315  17111220181921131416   810 7 9 4 5 6 1 2 3  10 8 9 7 6 4 5 1 2 3
 
  NATURAL ORBITALS (STATE AVERAGED)
  =================================

  Orbital  Occupation    Energy    Cen Mu Typ  Coefficients
    1.1     2.00000   -11.03250     1  1  s    0.97633
    2.1     2.00000    -4.00566     1  1  d1+  1.00037
    3.1     2.00000    -4.00566     1  1  d1-  1.00037
    4.1     2.00000    -4.00566     1  1  d2-  1.00037
    5.1     2.00000    -4.00566     1  1  d2+  1.00037
    6.1     2.00000    -4.00566     1  1  d0   1.00037
    7.1     1.99896    -1.41494     1  1  s   -0.47737    1  4  s    0.57566    1  5  s    0.61350    1  9  s   -0.27217
    8.1     0.00145     0.87978     1  1  s    0.59087    1  3  s   -0.62674    1  4  s   -2.34222    1  5  s    1.65492
                                    1  6  s    0.37495    1  7  s    0.26708    1  8  s   -0.58866    1  9  s    1.11820
    1.2     2.00000    -8.73723     1  1  px   1.00027
    2.2     2.00000    -8.73723     1  1  py   1.00027
    3.2     2.00000    -8.73723     1  1  pz   1.00027
    4.2     1.68390    -0.66014     1  2  pz   1.06972
    5.2     1.68390    -0.66014     1  2  py   1.06972
    6.2     1.68390    -0.66014     1  2  px   1.06972
    7.2     0.31597     0.03626     1  5  pz  -0.31387    1  9  pz   1.22483
    8.2     0.31597     0.03626     1  5  px  -0.31387    1  9  px   1.22483
    9.2     0.31597     0.03626     1  5  py  -0.31387    1  9  py   1.22483
 
 Natural orbital dump (state averaged) at molpro section 2140.2 (Orbital set 2)
 
 Transform the CI vectors
 
 CI Coefficients of symmetry 1 (Singlet)
 =======================================

 State:              1               2               3               4               5               6               7
 20 222000      0.98368147      0.00000000     -0.00000000     -0.00000000     -0.00000000      0.00000000     -0.00000000
 20 a22b00      0.06928790     -0.00002198      0.00002938      0.00004697      0.57702352     -0.00031268     -0.00000000
 20 b22a00     -0.06928790      0.00002198     -0.00002938     -0.00004697     -0.57702352      0.00031268      0.00000000
 20 2a200b      0.06928790     -0.00000274     -0.00000540     -0.00003579     -0.28824097      0.49987337      0.00000000
 20 2b200a     -0.06928790      0.00000274      0.00000540      0.00003579      0.28824097     -0.49987337     -0.00000000
 20 22b00a      0.00000000     -0.00051082      0.00018099     -0.49971681      0.00004064     -0.00001235     -0.00064518
 20 22a00b     -0.00000000      0.00051082     -0.00018099      0.49971681     -0.00004064      0.00001235      0.00064518
 20 2a20b0     -0.00000000      0.00051082     -0.00018099      0.49971681     -0.00004064      0.00001235     -0.00064518
 20 2b20a0      0.00000000     -0.00051082      0.00018099     -0.49971681      0.00004064     -0.00001235      0.00064518
 20 22b0a0     -0.06928790     -0.00002472      0.00002398      0.00001118      0.28878255      0.49956069      0.00000000
 20 22a0b0      0.06928790      0.00002472     -0.00002398     -0.00001118     -0.28878255     -0.49956069     -0.00000000
 20 22ab00     -0.00000000     -0.26570119      0.42322557      0.00042488     -0.00003171     -0.00001514     -0.14879147
 20 22ba00      0.00000000      0.26570119     -0.42322557     -0.00042488      0.00003171      0.00001514      0.14879147
 20 a220b0     -0.00000000     -0.26570120      0.42322557      0.00042488     -0.00003171     -0.00001514      0.14879147
 20 b220a0      0.00000000      0.26570120     -0.42322557     -0.00042488      0.00003171      0.00001514     -0.14879147
 20 2b2a00     -0.00000000     -0.42322547     -0.26570147      0.00033640     -0.00000262     -0.00000668     -0.47710904
 20 2a2b00      0.00000000      0.42322547      0.26570147     -0.00033640      0.00000262      0.00000668      0.47710904
 20 a2200b     -0.00000000      0.42322547      0.26570148     -0.00033640      0.00000262      0.00000668     -0.47710904
 20 b2200a      0.00000000     -0.42322547     -0.26570148      0.00033640     -0.00000262     -0.00000668      0.47710904
 
 Energy:     -462.18507110   -461.79409660   -461.79409660   -461.79409660   -461.79409660   -461.79409660   -461.79009415

 State:              8               9              10
 20 222000     -0.00000000      0.00000000     -0.16860039
 20 a22b00     -0.00000000      0.00000000      0.40185850
 20 b22a00      0.00000000     -0.00000000     -0.40185850
 20 2a200b     -0.00000000     -0.00000000      0.40185850
 20 2b200a      0.00000000      0.00000000     -0.40185850
 20 22b00a     -0.00018431     -0.49977186     -0.00000000
 20 22a00b      0.00018431      0.49977186      0.00000000
 20 2a20b0     -0.00018431     -0.49977186     -0.00000000
 20 2b20a0      0.00018431      0.49977186      0.00000000
 20 22b0a0     -0.00000000      0.00000000     -0.40185850
 20 22a0b0      0.00000000     -0.00000000      0.40185850
 20 22ab00      0.47710948      0.00001613     -0.00000000
 20 22ba00     -0.47710948     -0.00001613      0.00000000
 20 a220b0     -0.47710948     -0.00001613      0.00000000
 20 b220a0      0.47710948      0.00001613     -0.00000000
 20 2b2a00     -0.14879136      0.00067079      0.00000000
 20 2a2b00      0.14879136     -0.00067079     -0.00000000
 20 a2200b     -0.14879136      0.00067079      0.00000000
 20 b2200a      0.14879136     -0.00067079     -0.00000000
 
 Energy:     -461.79009415   -461.79009415   -461.76849791
 
 
 CI Coefficients of symmetry 1 (Triplet)
 =======================================

 State:              1               2               3               4               5               6               7
 20 a22a00      0.57700101      0.00191694     -0.00125400      0.81614344      0.00060183     -0.00043644     -0.00000000
 20 22a0a0      0.57700101     -0.00129451      0.00085423     -0.40769265     -0.00024810      0.70702204      0.00000000
 20 22a00a      0.00000000      0.00055358      0.00050292     -0.00052175      0.70680344     -0.00005243     -0.00026667
 20 2a20a0     -0.00000000      0.00055358      0.00050292     -0.00052175      0.70680344     -0.00005243      0.00026667
 20 2a200a      0.57700101     -0.00062243      0.00039977     -0.40845079     -0.00035372     -0.70658559     -0.00000000
 20 a220a0      0.00000000      0.26564217      0.65498517      0.00038290     -0.00067383     -0.00008443     -0.58613235
 20 22aa00     -0.00000000      0.26564217      0.65498517      0.00038290     -0.00067383     -0.00008443      0.58613235
 20 a2200a     -0.00000000      0.65498321     -0.26564052     -0.00194611     -0.00032539      0.00039787      0.39489350
 20 2a2a00     -0.00000000      0.65498321     -0.26564052     -0.00194611     -0.00032539      0.00039787     -0.39489350
 
 Energy:     -461.80658027   -461.79649896   -461.79649896   -461.79649896   -461.79649896   -461.79649896   -461.79032093

 State:              8               9
 20 a22a00     -0.00000000     -0.00000000
 20 22a0a0     -0.00000000     -0.00000000
 20 22a00a     -0.00055444     -0.70674727
 20 2a20a0      0.00055444      0.70674727
 20 2a200a      0.00000000      0.00000000
 20 a220a0     -0.39489323      0.00053095
 20 22aa00      0.39489324     -0.00053095
 20 a2200a     -0.58613233      0.00031082
 20 2a2a00      0.58613233     -0.00031082
 
 Energy:     -461.79032093   -461.79032093
 


 **********************************************************************************************************************************
 DATASETS  * FILE   NREC   LENGTH (MB)   RECORD NAMES
              1      21       54.22       500      610      700      900      950      970     1000      129      960     1100   
                                          VAR    BASINP    GEOM    SYMINP    ZMAT    AOBASIS   BASIS     P2S    ABASIS      S 
                                         1400     1410     1420     1200     1210     1080     1700     1600     1650     1380   
                                           T        V       ECP      H0       H01     AOSYM    OPER      SMH    MOLCAS    JKOP   
                                         1700(1)
                                         OPER   

              2       5        1.25       700     1000      520     2100     2140   
                                         GEOM     BASIS   MCVARS     RHF     MCSCF   

 PROGRAMS   *        TOTAL     MULTI   RHF-SCF       INT
 CPU TIMES  *         8.99      6.62      0.13      2.03
 REAL TIME  *        33.86 SEC
 DISK USED  *        55.56 MB (local),     1009.50 MB (total)
 SF USED    *        67.05 MB
 GA USED    *         0.00 MB       (max)       0.00 MB       (current)
 **********************************************************************************************************************************

 Energies and &lt;L**2&gt; values

         ENERGY     LL
    -462.1850711  -0.0
    -461.7940966   6.0
    -461.7940966   6.0
    -461.7940966   6.0
    -461.7940966   6.0
    -461.7940966   6.0
    -461.7900941   2.0
    -461.7900941   2.0
    -461.7900941   2.0
    -461.7684979  -0.0
    -461.8065803  -0.0
    -461.7964990   6.0
    -461.7964990   6.0
    -461.7964990   6.0
    -461.7964990   6.0
    -461.7964990   6.0
    -461.7903209   2.0
    -461.7903209   2.0
    -461.7903209   2.0
                                                  


 PROGRAM * CI (Multireference internally contracted CI)     Authors: H.-J. Werner, P.J. Knowles, 1987


 Convergence thresholds:  THRVAR = 1.00D-08  THRDEN = 1.00D-06

 Number of optimized states: 10  Roots:   1   2   3   4   5   6   7   8   9  10
 Number of reference states: 10  Roots:   1   2   3   4   5   6   7   8   9  10

 Reference symmetry:                   1   Singlet 
 Number of electrons:                 26
 Maximum number of shells:             7
 Maximum number of spin couplings:   132

 Reference space:      603 conf      924 CSFs
 N elec internal:    45531 conf   130284 CSFs
 N-1 el internal:    56699 conf   278292 CSFs
 N-2 el internal:    37063 conf   282516 CSFs

 Number of electrons in valence space:                     26
 Maximum number of open shell orbitals in reference space:  8
 Maximum number of open shell orbitals in internal spaces: 12


 Number of closed-shell orbitals:   9 (   6   3 )
 Number of active  orbitals:        8 (   2   6 )
 Number of external orbitals:     149 (  78  71 )

 Molecular orbitals read from record     2140.2  Type=MCSCF/NATURAL (state averaged)

 Valence orbitals related to previous ones by unitary transformation. Operators transformed.


 Number of p-space configurations:  10

 Reference wavefunction optimized for reference space (refopt=1)

 State     Reference Energy 
     1      -462.18507110
     2      -461.79409660
     3      -461.79409660
     4      -461.79409660
     5      -461.79409660
     6      -461.79409660
     7      -461.79009415
     8      -461.79009415
     9      -461.79009415
    10      -461.76849791

 ?WARNING: SMALL EIGENVALUE OF PAIR OVERLAP MATRIX:  0.1024D-06

 ?WARNING: SMALL EIGENVALUE OF PAIR OVERLAP MATRIX:  0.1995D-06

 Number of blocks in overlap matrix:   923   Smallest eigenvalue:  0.10D-06
 Number of N-2 electron functions:    2847
 Number of N-1 electron functions:  278292

 Number of internal configurations:                65352
 Number of singly external configurations:      20731676
 Number of doubly external configurations:      15811513
 Total number of contracted configurations:     36608541
 Total number of uncontracted configurations: 1586368004

 Diagonal Coupling coefficients finished.               Storage:  74681119 words, CPU-Time:    406.32 seconds.
 Energy denominators for pairs finished in 1 passes.    Storage:   2975173 words, CPU-time:      1.21 seconds.

  ITER. STATE  ROOT     SQ.NORM     CORR.ENERGY   TOTAL ENERGY   ENERGY CHANGE       DEN1      VAR(S)    VAR(P)      TIME
    1     1     1     1.00000000     0.00000000  -462.18507110    -0.00000000    -1.15697579  0.35D-01  0.57D-01   435.47
    1     2     2     1.00000000     0.00000000  -461.79409660     0.00000000    -1.14182248  0.21D-01  0.60D-01   435.47
    1     3     3     1.00000000     0.00000000  -461.79409660    -0.00000000    -1.14181649  0.21D-01  0.60D-01   435.47
    1     4     4     1.00000000     0.00000000  -461.79409660    -0.00000000    -1.14220239  0.21D-01  0.60D-01   435.47
    1     5     5     1.00000000     0.00000000  -461.79409660     0.00000000    -1.15051405  0.21D-01  0.65D-01   435.47
    1     6     6     1.00000000     0.00000000  -461.79409660     0.00000000    -1.14945531  0.21D-01  0.64D-01   435.47
    1     7     7     1.00000000     0.00000000  -461.79009415    -0.00000000    -1.14462600  0.22D-01  0.61D-01   435.47
    1     8     8     1.00000000     0.00000000  -461.79009415     0.00000000    -1.14463139  0.22D-01  0.61D-01   435.47
    1     9     9     1.00000000     0.00000000  -461.79009415    -0.00000000    -1.14471107  0.22D-01  0.61D-01   435.47
    1    10    10     1.00000000     0.00000000  -461.76849791     0.00000000    -1.16628322  0.46D-01  0.64D-01   435.47
    2     1     1     1.07117904    -1.01831547  -463.20338657    -1.01831547    -0.03018976  0.58D-02  0.15D-02  2999.14
    2     2     2     1.06234754    -1.00190975  -462.79600634    -1.00190975    -0.01923851  0.16D-02  0.98D-03  2999.14
    2     3     3     1.06234558    -1.00190750  -462.79600410    -1.00190750    -0.01924042  0.16D-02  0.98D-03  2999.14
    2     4     4     1.06238897    -1.00187139  -462.79596799    -1.00187139    -0.01927956  0.16D-02  0.98D-03  2999.14
    2     5     5     1.06494523    -1.00096960  -462.79506620    -1.00096960    -0.02020591  0.16D-02  0.12D-02  2999.14
    2     6     6     1.06470634    -1.00086575  -462.79496235    -1.00086575    -0.02028798  0.16D-02  0.13D-02  2999.14
    2     7     7     1.06318373    -1.00234997  -462.79244412    -1.00234997    -0.01928052  0.15D-02  0.10D-02  2999.14
    2     8     8     1.06318617    -1.00234976  -462.79244390    -1.00234976    -0.01928036  0.15D-02  0.10D-02  2999.14
    2     9     9     1.06318467    -1.00229678  -462.79239093    -1.00229678    -0.01931475  0.15D-02  0.10D-02  2999.14
    2    10    10     1.07911029    -0.99575672  -462.76425463    -0.99575672    -0.03242218  0.91D-02  0.12D-02  2999.14
    3     1     1     1.06392797    -1.04891128  -463.23398238    -0.03059581    -0.00155133  0.59D-04  0.16D-03  5555.84
    3     2     2     1.05978869    -1.02012265  -462.81421925    -0.01821290    -0.00068474  0.26D-04  0.77D-04  5555.84
    3     3     3     1.05978765    -1.02012252  -462.81421911    -0.01821501    -0.00068495  0.26D-04  0.77D-04  5555.84
    3     4     4     1.05978882    -1.02011849  -462.81421509    -0.01824710    -0.00068664  0.26D-04  0.78D-04  5555.84
    3     5     5     1.06010480    -1.02010318  -462.81419978    -0.01913358    -0.00069279  0.25D-04  0.83D-04  5555.84
    3     6     6     1.06002604    -1.02008614  -462.81418274    -0.01922039    -0.00070308  0.25D-04  0.84D-04  5555.84
    3     7     7     1.06016572    -1.02062838  -462.81072253    -0.01827841    -0.00068208  0.26D-04  0.78D-04  5555.84
    3     8     8     1.06016607    -1.02062816  -462.81072230    -0.01827840    -0.00068212  0.26D-04  0.78D-04  5555.84
    3     9     9     1.06014776    -1.02061604  -462.81071019    -0.01831926    -0.00068889  0.26D-04  0.79D-04  5555.84
    3    10    10     1.06225851    -1.02630958  -462.79480750    -0.03055286    -0.00121710  0.12D-03  0.11D-03  5555.84
    4     1     1     1.06769377    -1.05077835  -463.23584946    -0.00186708    -0.00012446  0.46D-05  0.11D-04  8118.04
    4     2     2     1.06163044    -1.02096329  -462.81505989    -0.00084064    -0.00006892  0.23D-05  0.72D-05  8118.04
    4     3     3     1.06163039    -1.02096320  -462.81505980    -0.00084069    -0.00006894  0.23D-05  0.72D-05  8118.04
    4     4     4     1.06162715    -1.02096223  -462.81505882    -0.00084373    -0.00006956  0.23D-05  0.73D-05  8118.04
    4     5     5     1.06154657    -1.02095668  -462.81505328    -0.00085350    -0.00007415  0.24D-05  0.82D-05  8118.04
    4     6     6     1.06155260    -1.02095580  -462.81505239    -0.00086966    -0.00007491  0.24D-05  0.81D-05  8118.04
    4     7     7     1.06187753    -1.02146933  -462.81156348    -0.00084095    -0.00006994  0.24D-05  0.72D-05  8118.04
    4     8     8     1.06187734    -1.02146924  -462.81156339    -0.00084108    -0.00006998  0.24D-05  0.72D-05  8118.04
    4     9     9     1.06187145    -1.02146755  -462.81156170    -0.00085151    -0.00007121  0.24D-05  0.73D-05  8118.04
    4    10    10     1.06312061    -1.02768750  -462.79618541    -0.00137791    -0.00011019  0.37D-05  0.13D-04  8118.04
    5     1     1     1.06865351    -1.05092360  -463.23599470    -0.00014524    -0.00000946  0.16D-06  0.96D-06 10681.19
    5     2     2     1.06226913    -1.02105058  -462.81514718    -0.00008729    -0.00000638  0.21D-06  0.68D-06 10681.19
    5     3     3     1.06226957    -1.02105035  -462.81514695    -0.00008715    -0.00000652  0.21D-06  0.70D-06 10681.19
    5     4     4     1.06228026    -1.02105033  -462.81514693    -0.00008810    -0.00000636  0.20D-06  0.68D-06 10681.19
    5     5     5     1.06228036    -1.02105030  -462.81514690    -0.00009362    -0.00000637  0.20D-06  0.68D-06 10681.19
    5     6     6     1.06228087    -1.02105018  -462.81514678    -0.00009438    -0.00000644  0.21D-06  0.69D-06 10681.19
    5     7     7     1.06253820    -1.02155705  -462.81165119    -0.00008772    -0.00000612  0.19D-06  0.65D-06 10681.19
    5     8     8     1.06253821    -1.02155702  -462.81165117    -0.00008779    -0.00000614  0.19D-06  0.65D-06 10681.19
    5     9     9     1.06253818    -1.02155687  -462.81165102    -0.00008932    -0.00000624  0.19D-06  0.66D-06 10681.19
    5    10    10     1.06387025    -1.02782784  -462.79632575    -0.00014034    -0.00001220  0.45D-06  0.13D-05 10681.19
    6     1     1     1.06868248    -1.05093521  -463.23600632    -0.00001162    -0.00000093  0.28D-07  0.87D-07 13240.44
    6     2     2     1.06226327    -1.02105860  -462.81515520    -0.00000802    -0.00000080  0.36D-07  0.87D-07 13240.44
    6     3     3     1.06226219    -1.02105857  -462.81515516    -0.00000821    -0.00000082  0.36D-07  0.90D-07 13240.44
    6     4     4     1.06226443    -1.02105855  -462.81515515    -0.00000822    -0.00000084  0.36D-07  0.87D-07 13240.44
    6     5     5     1.06226440    -1.02105855  -462.81515514    -0.00000824    -0.00000085  0.36D-07  0.87D-07 13240.44
    6     6     6     1.06226413    -1.02105852  -462.81515512    -0.00000834    -0.00000086  0.36D-07  0.89D-07 13240.44
    6     7     7     1.06252672    -1.02156483  -462.81165897    -0.00000778    -0.00000075  0.35D-07  0.77D-07 13240.44
    6     8     8     1.06252668    -1.02156482  -462.81165897    -0.00000780    -0.00000076  0.36D-07  0.78D-07 13240.44
    6     9     9     1.06252615    -1.02156479  -462.81165894    -0.00000792    -0.00000077  0.36D-07  0.79D-07 13240.44
    6    10    10     1.06389464    -1.02784334  -462.79634125    -0.00001550    -0.00000178  0.10D-06  0.18D-06 13240.44
    7     1     1     1.06870759    -1.05093633  -463.23600743    -0.00000112    -0.00000011  0.46D-08  0.10D-07 15801.64
    7     2     2     1.06227145    -1.02105960  -462.81515620    -0.00000100    -0.00000013  0.72D-08  0.13D-07 15801.64
    7     3     3     1.06227037    -1.02105960  -462.81515620    -0.00000104    -0.00000014  0.69D-08  0.13D-07 15801.64
    7     4     4     1.06227038    -1.02105960  -462.81515620    -0.00000105    -0.00000014  0.69D-08  0.13D-07 15801.64
    7     5     5     1.06227134    -1.02105960  -462.81515620    -0.00000106    -0.00000014  0.74D-08  0.13D-07 15801.64
    7     6     6     1.06227020    -1.02105959  -462.81515619    -0.00000107    -0.00000014  0.71D-08  0.14D-07 15801.64
    7     7     7     1.06253482    -1.02156577  -462.81165992    -0.00000094    -0.00000012  0.60D-08  0.12D-07 15801.64
    7     8     8     1.06253480    -1.02156577  -462.81165991    -0.00000094    -0.00000012  0.60D-08  0.12D-07 15801.64
    7     9     9     1.06253457    -1.02156576  -462.81165990    -0.00000096    -0.00000012  0.61D-08  0.12D-07 15801.64
    7    10    10     1.06391109    -1.02784557  -462.79634348    -0.00000223    -0.00000032  0.18D-07  0.32D-07 15801.64
    8     1     1     1.06871441    -1.05093646  -463.23600756    -0.00000013    -0.00000002  0.51D-09  0.14D-08 18361.18
    8     2     2     1.06227735    -1.02105977  -462.81515637    -0.00000017    -0.00000002  0.11D-08  0.20D-08 18361.18
    8     3     3     1.06227735    -1.02105977  -462.81515637    -0.00000017    -0.00000002  0.11D-08  0.20D-08 18361.18
    8     4     4     1.06227779    -1.02105977  -462.81515637    -0.00000017    -0.00000002  0.10D-08  0.20D-08 18361.18
    8     5     5     1.06227786    -1.02105977  -462.81515637    -0.00000017    -0.00000002  0.97D-09  0.19D-08 18361.18
    8     6     6     1.06227730    -1.02105977  -462.81515636    -0.00000017    -0.00000002  0.11D-08  0.21D-08 18361.18
    8     7     7     1.06254168    -1.02156592  -462.81166006    -0.00000015    -0.00000002  0.88D-09  0.18D-08 18361.18
    8     8     8     1.06254167    -1.02156592  -462.81166006    -0.00000015    -0.00000002  0.89D-09  0.18D-08 18361.18
    8     9     9     1.06254162    -1.02156591  -462.81166006    -0.00000015    -0.00000002  0.91D-09  0.18D-08 18361.18
    8    10    10     1.06391307    -1.02784597  -462.79634388    -0.00000040    -0.00000006  0.38D-08  0.55D-08 18361.18


 =====================================
 Analysis of CPU times by interactions
 =====================================

       I      S      P

 I   0.4%
 S   0.3%  34.9%
 P   0.2%  40.2%  18.1%

 Initialization:   2.2%
 Other:            3.6%

 Total CPU:    18361.2 seconds
 =====================================



 Wavefunction saved on  5201.2

 Reference coefficients greater than 0.0500000
 =============================================
 22222220222222000           0.9577042  -0.0000000   0.0000000   0.0000000  -0.0000001  -0.0000000   0.0000000   0.0000000
                             0.0000000  -0.1220990
 22222220222/22\00           0.0724797   0.0113435   0.0001620  -0.1911955   0.7677687   0.0245400   0.0000000  -0.0000000
                             0.0000000   0.5545839
 222222202222/200\           0.0724797   0.0019839  -0.0052983   0.7608682  -0.2183758  -0.0106894  -0.0000000   0.0000000
                            -0.0000000   0.5545847
 222222202222/20\0           0.0000000  -0.0005859   0.0037699   0.0036304  -0.0209913   0.6852722   0.0000000   0.0000000
                             0.6856199   0.0000000
 2222222022222/00\          -0.0000000  -0.0005859   0.0037699   0.0036304  -0.0209913   0.6852723  -0.0000000   0.0000000
                            -0.6856198   0.0000000
 2222222022222/\00          -0.0000000  -0.0139145   0.6854431   0.0051787   0.0014709  -0.0037652  -0.6845368   0.0384877
                             0.0000000  -0.0000000
 22222220222/220\0          -0.0000000  -0.0139145   0.6854393   0.0051786   0.0014709  -0.0037651   0.6845406  -0.0384879
                            -0.0000000   0.0000000
 222222202222/2\00          -0.0000000   0.6853611   0.0139757  -0.0049497  -0.0113675   0.0001871  -0.0384877  -0.6845369
                            -0.0000000  -0.0000000
 22222220222/2200\          -0.0000000   0.6853575   0.0139756  -0.0049497  -0.0113674   0.0001871   0.0384880   0.6845405
                            -0.0000000   0.0000000
 2222222022222/0\0           0.0724797  -0.0133274   0.0051363  -0.5696730  -0.5493920  -0.0138506  -0.0000000  -0.0000000
                            -0.0000000   0.5545846

 Coefficients of fixed reference functions:
 ==========================================

 State      Coefficients
 1           0.966486   -0.000000   -0.000000   -0.000000    0.000000    0.000000    0.000000   -0.000000    0.000000   -0.038948
 2           0.000000    0.969809   -0.019690   -0.000829    0.013826   -0.010929    0.000000   -0.000003    0.000000    0.000000
 3           0.000000    0.019776    0.969925    0.005335    0.000249    0.007381   -0.000003   -0.000000   -0.000000    0.000000
 4          -0.000000   -0.007004    0.007328    0.005137   -0.240786   -0.939745   -0.000000   -0.000000    0.000000   -0.000000
 5          -0.000000   -0.016085    0.002081   -0.029703    0.939231   -0.240681   -0.000000    0.000000   -0.000000    0.000001
 6          -0.000000    0.000265   -0.005328    0.969686    0.030057   -0.002444    0.000000   -0.000000   -0.000000    0.000000
 7          -0.000000    0.000000    0.000003   -0.000000    0.000000    0.000000    0.968522    0.054455    0.000000   -0.000000
 8          -0.000000    0.000003   -0.000000    0.000000   -0.000000   -0.000000   -0.054455    0.968522   -0.000000   -0.000000
 9          -0.000000   -0.000000    0.000000    0.000000    0.000000    0.000000   -0.000000   -0.000000    0.970051   -0.000000
 10          0.042217   -0.000000   -0.000000    0.000000   -0.000001   -0.000000    0.000000    0.000000    0.000000    0.968484

 Coefficients of rotated reference functions:
 ============================================

 State      Coefficients
 1           0.967269   -0.000000    0.000000   -0.000000   -0.000000   -0.000000   -0.000000   -0.000000    0.000000    0.001591
 2          -0.000000    0.970169    0.000000   -0.000000   -0.000000   -0.000000   -0.000000   -0.000000   -0.000000   -0.000000
 3           0.000000    0.000000    0.970169    0.000000    0.000000    0.000000   -0.000000    0.000000    0.000000   -0.000000
 4          -0.000000   -0.000000    0.000000    0.970169    0.000000    0.000000   -0.000000    0.000000    0.000000    0.000000
 5          -0.000000   -0.000000    0.000000    0.000000    0.970169   -0.000000   -0.000000    0.000000   -0.000000   -0.000000
 6          -0.000000   -0.000000    0.000000    0.000000   -0.000000    0.970169    0.000000   -0.000000    0.000000   -0.000000
 7          -0.000000   -0.000000   -0.000000   -0.000000   -0.000000    0.000000    0.970051    0.000000   -0.000000    0.000000
 8          -0.000000   -0.000000    0.000000    0.000000    0.000000   -0.000000    0.000000    0.970051    0.000000    0.000000
 9           0.000000   -0.000000    0.000000    0.000000   -0.000000    0.000000   -0.000000    0.000000    0.970051   -0.000000
 10          0.001591   -0.000000   -0.000000    0.000000   -0.000000   -0.000000    0.000000    0.000000   -0.000000    0.969403


 RESULTS FOR STATE 1.1
 =====================

 Coefficient of reference function:   C(0) = 0.96648574 (fixed)   0.96730700 (relaxed)   0.96726889 (rotated)

 Energy contributions of configuration classes

 CLASS          SQ.NORM        ECORR1        ECORR2
 +++++++++++++++++++++++++++++++++++++++++++++++++++
 Internals    0.00010108   -0.00034692   -0.98970950
 Singles      0.00941647   -0.05422253   -0.05999273
 Pairs        0.05930489    0.06100356   -0.00123423
 Total        1.06882243    0.00643411   -1.05093646
 +++++++++++++++++++++++++++++++++++++++++++++++++++


 Reference energy                    -462.18433943
 Nuclear energy                         0.00000000
 Kinetic energy                       330.02821666
 One electron energy                 -808.91089325
 Two electron energy                  345.67488569
 Virial quotient                       -1.40362546
 Correlation energy                    -1.05166814
 !MRCI STATE 1.1 Energy              -463.236007563847

 Properties without orbital relaxation:

 !MRCI STATE 1.1 Dipole moment          0.00000000     0.00000000     0.00000000
 Dipole moment /Debye                   0.00000000     0.00000000     0.00000000

 Cluster corrected energies          -463.30838592 (Davidson, fixed reference)
 Cluster corrected energies          -463.30829735 (Davidson, relaxed reference)
 Cluster corrected energies          -463.30838592 (Davidson, rotated reference)

 Cluster corrected energies          -463.30692274 (Pople, fixed reference)
 Cluster corrected energies          -463.30683067 (Pople, relaxed reference)
 Cluster corrected energies          -463.30692274 (Pople, rotated reference)



 RESULTS FOR STATE 2.1
 =====================

 Coefficient of reference function:   C(0) = 0.96980885 (fixed)   0.97022092 (relaxed)   0.97016914 (rotated)

 Energy contributions of configuration classes

 CLASS          SQ.NORM        ECORR1        ECORR2
 +++++++++++++++++++++++++++++++++++++++++++++++++++
 Internals    0.00015467   -0.00054057   -0.90176013
 Singles      0.01040054   -0.06315017   -0.06943439
 Pairs        0.05188644   -0.00000001   -0.04986526
 Total        1.06244165   -0.06369075   -1.02105977
 +++++++++++++++++++++++++++++++++++++++++++++++++++


 Reference energy                    -461.79409660
 Nuclear energy                         0.00000000
 Kinetic energy                       329.52197472
 One electron energy                 -801.24299573
 Two electron energy                  338.42783936
 Virial quotient                       -1.40450468
 Correlation energy                    -1.02105977
 !MRCI STATE 2.1 Energy              -462.815156369818

 Properties without orbital relaxation:

 !MRCI STATE 2.1 Dipole moment          0.00000000     0.00000000     0.00000000
 Dipole moment /Debye                   0.00000000     0.00000000     0.00000000

 Cluster corrected energies          -462.87891302 (Davidson, fixed reference)
 Cluster corrected energies          -462.87879723 (Davidson, relaxed reference)
 Cluster corrected energies          -462.87891302 (Davidson, rotated reference)

 Cluster corrected energies          -462.87727243 (Pople, fixed reference)
 Cluster corrected energies          -462.87715341 (Pople, relaxed reference)
 Cluster corrected energies          -462.87727243 (Pople, rotated reference)



 RESULTS FOR STATE 3.1
 =====================

 Coefficient of reference function:   C(0) = 0.96992477 (fixed)   0.97022092 (relaxed)   0.97016914 (rotated)

 Energy contributions of configuration classes

 CLASS          SQ.NORM        ECORR1        ECORR2
 +++++++++++++++++++++++++++++++++++++++++++++++++++
 Internals    0.00015467   -0.00054057   -0.90176013
 Singles      0.01040053   -0.06315018   -0.06943439
 Pairs        0.05188645   -0.00000000   -0.04986526
 Total        1.06244165   -0.06369075   -1.02105977
 +++++++++++++++++++++++++++++++++++++++++++++++++++


 Reference energy                    -461.79409660
 Nuclear energy                         0.00000000
 Kinetic energy                       329.52198021
 One electron energy                 -801.24299768
 Two electron energy                  338.42784131
 Virial quotient                       -1.40450466
 Correlation energy                    -1.02105977
 !MRCI STATE 3.1 Energy              -462.815156368370

 Properties without orbital relaxation:

 !MRCI STATE 3.1 Dipole moment          0.00000000     0.00000000     0.00000000
 Dipole moment /Debye                   0.00000000     0.00000000     0.00000000

 Cluster corrected energies          -462.87891303 (Davidson, fixed reference)
 Cluster corrected energies          -462.87879723 (Davidson, relaxed reference)
 Cluster corrected energies          -462.87891303 (Davidson, rotated reference)

 Cluster corrected energies          -462.87727243 (Pople, fixed reference)
 Cluster corrected energies          -462.87715341 (Pople, relaxed reference)
 Cluster corrected energies          -462.87727243 (Pople, rotated reference)



 RESULTS FOR STATE 4.1
 =====================

 Maximum overlap with reference state  6

 Coefficient of reference function:   C(0) = 0.93974497 (fixed)   0.97022072 (relaxed)   0.97016894 (rotated)

 Energy contributions of configuration classes

 CLASS          SQ.NORM        ECORR1        ECORR2
 +++++++++++++++++++++++++++++++++++++++++++++++++++
 Internals    0.00015467   -0.00054057   -0.90176018
 Singles      0.01040041   -0.06314988   -0.06943422
 Pairs        0.05188701    0.00000016   -0.04986537
 Total        1.06244209   -0.06369030   -1.02105977
 +++++++++++++++++++++++++++++++++++++++++++++++++++


 Reference energy                    -461.79409660
 Nuclear energy                         0.00000000
 Kinetic energy                       329.52205892
 One electron energy                 -801.24300836
 Two electron energy                  338.42785199
 Virial quotient                       -1.40450432
 Correlation energy                    -1.02105977
 !MRCI STATE 4.1 Energy              -462.815156367518

 Properties without orbital relaxation:

 !MRCI STATE 4.1 Dipole moment          0.00000000     0.00000000     0.00000000
 Dipole moment /Debye                   0.00000000     0.00000000     0.00000000

 Cluster corrected energies          -462.87891347 (Davidson, fixed reference)
 Cluster corrected energies          -462.87879768 (Davidson, relaxed reference)
 Cluster corrected energies          -462.87891347 (Davidson, rotated reference)

 Cluster corrected energies          -462.87727289 (Pople, fixed reference)
 Cluster corrected energies          -462.87715387 (Pople, relaxed reference)
 Cluster corrected energies          -462.87727289 (Pople, rotated reference)



 RESULTS FOR STATE 5.1
 =====================

 Coefficient of reference function:   C(0) = 0.93923111 (fixed)   0.97022069 (relaxed)   0.97016891 (rotated)

 Energy contributions of configuration classes

 CLASS          SQ.NORM        ECORR1        ECORR2
 +++++++++++++++++++++++++++++++++++++++++++++++++++
 Internals    0.00015466   -0.00054057   -0.90175932
 Singles      0.01040047   -0.06315001   -0.06943431
 Pairs        0.05188702   -0.00000056   -0.04986614
 Total        1.06244215   -0.06369115   -1.02105977
 +++++++++++++++++++++++++++++++++++++++++++++++++++


 Reference energy                    -461.79409660
 Nuclear energy                         0.00000000
 Kinetic energy                       329.52209814
 One electron energy                 -801.24301865
 Two electron energy                  338.42786228
 Virial quotient                       -1.40450416
 Correlation energy                    -1.02105977
 !MRCI STATE 5.1 Energy              -462.815156365103

 Properties without orbital relaxation:

 !MRCI STATE 5.1 Dipole moment          0.00000000     0.00000000     0.00000000
 Dipole moment /Debye                   0.00000000     0.00000000     0.00000000

 Cluster corrected energies          -462.87891353 (Davidson, fixed reference)
 Cluster corrected energies          -462.87879775 (Davidson, relaxed reference)
 Cluster corrected energies          -462.87891353 (Davidson, rotated reference)

 Cluster corrected energies          -462.87727296 (Pople, fixed reference)
 Cluster corrected energies          -462.87715394 (Pople, relaxed reference)
 Cluster corrected energies          -462.87727296 (Pople, rotated reference)



 RESULTS FOR STATE 6.1
 =====================

 Maximum overlap with reference state  4

 Coefficient of reference function:   C(0) = 0.96968571 (fixed)   0.97022095 (relaxed)   0.97016916 (rotated)

 Energy contributions of configuration classes

 CLASS          SQ.NORM        ECORR1        ECORR2
 +++++++++++++++++++++++++++++++++++++++++++++++++++
 Internals    0.00015467   -0.00054057   -0.90176014
 Singles      0.01040053   -0.06315020   -0.06943438
 Pairs        0.05188640   -0.00000001   -0.04986524
 Total        1.06244160   -0.06369078   -1.02105977
 +++++++++++++++++++++++++++++++++++++++++++++++++++


 Reference energy                    -461.79409660
 Nuclear energy                         0.00000000
 Kinetic energy                       329.52195649
 One electron energy                 -801.24298931
 Two electron energy                  338.42783295
 Virial quotient                       -1.40450476
 Correlation energy                    -1.02105977
 !MRCI STATE 6.1 Energy              -462.815156363988

 Properties without orbital relaxation:

 !MRCI STATE 6.1 Dipole moment          0.00000000     0.00000000     0.00000000
 Dipole moment /Debye                   0.00000000     0.00000000     0.00000000

 Cluster corrected energies          -462.87891297 (Davidson, fixed reference)
 Cluster corrected energies          -462.87879717 (Davidson, relaxed reference)
 Cluster corrected energies          -462.87891297 (Davidson, rotated reference)

 Cluster corrected energies          -462.87727237 (Pople, fixed reference)
 Cluster corrected energies          -462.87715335 (Pople, relaxed reference)
 Cluster corrected energies          -462.87727237 (Pople, rotated reference)



 RESULTS FOR STATE 7.1
 =====================

 Coefficient of reference function:   C(0) = 0.96852170 (fixed)   0.97010037 (relaxed)   0.97005134 (rotated)

 Energy contributions of configuration classes

 CLASS          SQ.NORM        ECORR1        ECORR2
 +++++++++++++++++++++++++++++++++++++++++++++++++++
 Internals    0.00014872   -0.00053484   -0.90130379
 Singles      0.01071683   -0.06390258   -0.07043457
 Pairs        0.05183416    0.00000000   -0.04982755
 Total        1.06269971   -0.06443742   -1.02156592
 +++++++++++++++++++++++++++++++++++++++++++++++++++


 Reference energy                    -461.79009415
 Nuclear energy                         0.00000000
 Kinetic energy                       329.52048624
 One electron energy                 -801.23386722
 Two electron energy                  338.42220716
 Virial quotient                       -1.40450042
 Correlation energy                    -1.02156592
 !MRCI STATE 7.1 Energy              -462.811660063512

 Properties without orbital relaxation:

 !MRCI STATE 7.1 Dipole moment          0.00000000     0.00000000     0.00000000
 Dipole moment /Debye                   0.00000000     0.00000000     0.00000000

 Cluster corrected energies          -462.87571195 (Davidson, fixed reference)
 Cluster corrected energies          -462.87560221 (Davidson, relaxed reference)
 Cluster corrected energies          -462.87571195 (Davidson, rotated reference)

 Cluster corrected energies          -462.87407798 (Pople, fixed reference)
 Cluster corrected energies          -462.87396513 (Pople, relaxed reference)
 Cluster corrected energies          -462.87407798 (Pople, rotated reference)



 RESULTS FOR STATE 8.1
 =====================

 Coefficient of reference function:   C(0) = 0.96852171 (fixed)   0.97010037 (relaxed)   0.97005134 (rotated)

 Energy contributions of configuration classes

 CLASS          SQ.NORM        ECORR1        ECORR2
 +++++++++++++++++++++++++++++++++++++++++++++++++++
 Internals    0.00014872   -0.00053484   -0.90130381
 Singles      0.01071682   -0.06390257   -0.07043457
 Pairs        0.05183415    0.00000001   -0.04982754
 Total        1.06269970   -0.06443741   -1.02156592
 +++++++++++++++++++++++++++++++++++++++++++++++++++


 Reference energy                    -461.79009415
 Nuclear energy                         0.00000000
 Kinetic energy                       329.52048143
 One electron energy                 -801.23386539
 Two electron energy                  338.42220533
 Virial quotient                       -1.40450044
 Correlation energy                    -1.02156592
 !MRCI STATE 8.1 Energy              -462.811660062602

 Properties without orbital relaxation:

 !MRCI STATE 8.1 Dipole moment          0.00000000     0.00000000     0.00000000
 Dipole moment /Debye                   0.00000000     0.00000000     0.00000000

 Cluster corrected energies          -462.87571194 (Davidson, fixed reference)
 Cluster corrected energies          -462.87560220 (Davidson, relaxed reference)
 Cluster corrected energies          -462.87571194 (Davidson, rotated reference)

 Cluster corrected energies          -462.87407797 (Pople, fixed reference)
 Cluster corrected energies          -462.87396512 (Pople, relaxed reference)
 Cluster corrected energies          -462.87407797 (Pople, rotated reference)



 RESULTS FOR STATE 9.1
 =====================

 Coefficient of reference function:   C(0) = 0.97005137 (fixed)   0.97010040 (relaxed)   0.97005137 (rotated)

 Energy contributions of configuration classes

 CLASS          SQ.NORM        ECORR1        ECORR2
 +++++++++++++++++++++++++++++++++++++++++++++++++++
 Internals    0.00014873   -0.00053484   -0.90130386
 Singles      0.01071681   -0.06390256   -0.07043454
 Pairs        0.05183411    0.00000000   -0.04982752
 Total        1.06269964   -0.06443740   -1.02156591
 +++++++++++++++++++++++++++++++++++++++++++++++++++


 Reference energy                    -461.79009415
 Nuclear energy                         0.00000000
 Kinetic energy                       329.52046211
 One electron energy                 -801.23385901
 Two electron energy                  338.42219895
 Virial quotient                       -1.40450052
 Correlation energy                    -1.02156591
 !MRCI STATE 9.1 Energy              -462.811660055762

 Properties without orbital relaxation:

 !MRCI STATE 9.1 Dipole moment          0.00000000     0.00000000     0.00000000
 Dipole moment /Debye                   0.00000000     0.00000000     0.00000000

 Cluster corrected energies          -462.87571187 (Davidson, fixed reference)
 Cluster corrected energies          -462.87560214 (Davidson, relaxed reference)
 Cluster corrected energies          -462.87571187 (Davidson, rotated reference)

 Cluster corrected energies          -462.87407791 (Pople, fixed reference)
 Cluster corrected energies          -462.87396506 (Pople, relaxed reference)
 Cluster corrected energies          -462.87407791 (Pople, rotated reference)



 RESULTS FOR STATE 10.1
 ======================

 Coefficient of reference function:   C(0) = 0.96848410 (fixed)   0.96947606 (relaxed)   0.96940250 (rotated)

 Energy contributions of configuration classes

 CLASS          SQ.NORM        ECORR1        ECORR2
 +++++++++++++++++++++++++++++++++++++++++++++++++++
 Internals    0.00019708   -0.00054928   -0.00136349
 Singles      0.01146242   -0.06486100   -0.07202560
 Pairs        0.05246325   -0.96173661   -0.95445687
 Total        1.06412275   -1.02714689   -1.02784597
 +++++++++++++++++++++++++++++++++++++++++++++++++++


 Reference energy                    -461.76922959
 Nuclear energy                         0.00000000
 Kinetic energy                       329.62186944
 One electron energy                 -801.72934741
 Two electron energy                  338.93300353
 Virial quotient                       -1.40402196
 Correlation energy                    -1.02711429
 !MRCI STATE 10.1 Energy             -462.796343877983

 Properties without orbital relaxation:

 !MRCI STATE 10.1 Dipole moment         0.00000000     0.00000000     0.00000000
 Dipole moment /Debye                   0.00000000     0.00000000     0.00000000

 Cluster corrected energies          -462.86220527 (Davidson, fixed reference)
 Cluster corrected energies          -462.86203942 (Davidson, relaxed reference)
 Cluster corrected energies          -462.86220527 (Davidson, rotated reference)

 Cluster corrected energies          -462.86060588 (Pople, fixed reference)
 Cluster corrected energies          -462.86043492 (Pople, relaxed reference)
 Cluster corrected energies          -462.86060588 (Pople, rotated reference)



 **********************************************************************************************************************************
 DATASETS  * FILE   NREC   LENGTH (MB)   RECORD NAMES
              1      21       54.22       500      610      700      900      950      970     1000      129      960     1100   
                                          VAR    BASINP    GEOM    SYMINP    ZMAT    AOBASIS   BASIS     P2S    ABASIS      S 
                                         1400     1410     1420     1200     1210     1080     1700     1600     1650     1380   
                                           T        V       ECP      H0       H01     AOSYM    OPER      SMH    MOLCAS    JKOP   
                                         1700(1)
                                         OPER   

              2       6     2814.04       700     1000      520     2100     2140     5201   
                                         GEOM     BASIS   MCVARS     RHF     MCSCF    MRCI   

 PROGRAMS   *        TOTAL        CI     MULTI   RHF-SCF       INT
 CPU TIMES  *     21604.76  21595.76      6.62      0.13      2.03
 REAL TIME  *     21904.97 SEC
 DISK USED  *         2.80 GB (local),       42.19 GB (total)
 SF USED    *        28.98 GB
 GA USED    *         0.00 MB       (max)       0.00 MB       (current)
 **********************************************************************************************************************************
 SETTING HLSDIAG(1)     =      -463.30838592  AU                              
 SETTING HLSDIAG(2)     =      -462.87891302  AU                              
 SETTING HLSDIAG(3)     =      -462.87891303  AU                              
 SETTING HLSDIAG(4)     =      -462.87891347  AU                              
 SETTING HLSDIAG(5)     =      -462.87891353  AU                              
 SETTING HLSDIAG(6)     =      -462.87891297  AU                              
 SETTING HLSDIAG(7)     =      -462.87571195  AU                              
 SETTING HLSDIAG(8)     =      -462.87571194  AU                              
 SETTING HLSDIAG(9)     =      -462.87571187  AU                              
 SETTING HLSDIAG(10)    =      -462.86220527  AU                              


 PROGRAM * CI (Multireference internally contracted CI)     Authors: H.-J. Werner, P.J. Knowles, 1987


 Convergence thresholds:  THRVAR = 1.00D-08  THRDEN = 1.00D-06

 Number of optimized states: 9  Roots:    1   2   3   4   5   6   7   8   9
 Number of reference states: 9  Roots:    1   2   3   4   5   6   7   8   9

 Reference symmetry:                   1   Triplet 
 Number of electrons:                 26
 Maximum number of shells:             6
 Maximum number of spin couplings:   297

 Reference space:      533 conf     1176 CSFs
 N elec internal:    44957 conf   215544 CSFs
 N-1 el internal:    55349 conf   505086 CSFs
 N-2 el internal:    33643 conf   537132 CSFs

 Number of electrons in valence space:                     26
 Maximum number of open shell orbitals in reference space:  8
 Maximum number of open shell orbitals in internal spaces: 12


 Number of closed-shell orbitals:   9 (   6   3 )
 Number of active  orbitals:        8 (   2   6 )
 Number of external orbitals:     149 (  78  71 )

 Molecular orbitals read from record     2140.2  Type=MCSCF/NATURAL (state averaged)

 Coulomb and exchange operators available. No transformation done.


 Number of p-space configurations:   9

 Reference wavefunction optimized for reference space (refopt=1)

 State     Reference Energy 
     1      -461.80658027
     2      -461.79649896
     3      -461.79649896
     4      -461.79649896
     5      -461.79649896
     6      -461.79649896
     7      -461.79032093
     8      -461.79032093
     9      -461.79032093

 ?WARNING: SMALL EIGENVALUE OF PAIR OVERLAP MATRIX:  0.1398D-06

 Number of blocks in overlap matrix:   843   Smallest eigenvalue:  0.14D-06
 Number of N-2 electron functions:    2556
 Number of N-1 electron functions:  505086

 Number of internal configurations:               107628
 Number of singly external configurations:      37628004
 Number of doubly external configurations:      14194044
 Total number of contracted configurations:     51929676
[...]
  5  1     5    1  |0 0>          0.00%    0.00%    0.00%    0.00%    0.00%    0.00%    0.00%    0.00%
  6  1     6    1  |0 0>          0.00%    0.00%    0.00%    0.00%    0.00%    0.00%    0.00%    0.00%
  7  1     7    1  |0 0>          0.00%    1.82%    1.81%    0.00%    0.00%    0.00%    0.00%    0.00%
  8  1     8    1  |0 0>          0.00%    1.81%    1.81%    0.00%    0.00%    0.00%    0.00%    0.00%
  9  1     9    1  |0 0>          0.00%    0.00%    0.00%    3.62%    0.00%    0.00%    0.00%    0.00%
 10  1    10    1  |0 0>          0.00%    0.00%    0.00%    0.00%    0.00%    0.00%    0.00%    0.00%
 11  1     1    1  |1 1>+         0.00%   42.51%   42.35%    0.02%    0.00%    0.00%    0.00%    0.00%
 12  1     2    1  |1 1>+         0.00%    0.01%    0.01%    0.00%   19.68%   30.42%    0.00%    0.00%
 13  1     3    1  |1 1>+         0.00%    0.01%    0.01%    0.00%   30.50%   19.74%    0.00%    0.00%
 14  1     4    1  |1 1>+         0.00%    0.00%    0.00%    0.00%    0.00%    0.00%    0.00%    0.00%
 15  1     5    1  |1 1>+         0.00%    0.00%    0.00%    0.01%    0.00%    0.00%    1.05%   34.21%
 16  1     6    1  |1 1>+         0.00%    0.00%    0.00%    0.00%    0.00%    0.00%   32.10%    1.04%
 17  1     7    1  |1 1>+         0.00%    2.86%    2.87%    0.00%    0.00%    0.00%    0.00%    0.00%
 18  1     8    1  |1 1>+         0.01%    0.00%    0.00%    0.15%    0.00%    0.00%    0.00%    0.00%
 19  1     9    1  |1 1>+         0.00%    0.00%    0.00%    5.58%    0.00%    0.00%    0.00%    0.00%
 20  1     1    1  |1 0>          0.00%    0.01%    0.05%   84.80%    0.00%    0.00%    0.00%    0.00%
 21  1     2    1  |1 0>          0.00%    0.00%    0.00%    0.00%    0.00%    0.00%    0.82%   32.94%
 22  1     3    1  |1 0>          0.00%    0.00%    0.00%    0.00%    0.00%    0.00%   32.96%    0.82%
 23  1     4    1  |1 0>          0.00%    0.00%    0.00%    0.02%    0.00%    0.00%    0.00%    0.06%
 24  1     5    1  |1 0>          0.00%    0.01%    0.01%    0.00%    0.00%    0.00%    0.00%    0.00%
 25  1     6    1  |1 0>          0.00%    0.01%    0.01%    0.00%    0.01%    0.00%    0.00%    0.00%
 26  1     7    1  |1 0>          0.01%    0.00%    0.00%    0.00%    0.00%    0.00%    0.00%    0.00%
 27  1     8    1  |1 0>          0.00%    2.86%    2.87%    0.00%    0.00%    0.00%    0.00%    0.00%
 28  1     9    1  |1 0>          0.00%    2.87%    2.86%    0.00%    0.00%    0.00%    0.00%    0.00%
 29  1     1    1  |1 1>-         0.00%   42.35%   42.47%    0.05%    0.00%    0.00%    0.00%    0.00%
 30  1     2    1  |1 1>-         0.00%    0.01%    0.01%    0.00%   30.10%   19.65%    0.00%    0.00%
 31  1     3    1  |1 1>-         0.00%    0.01%    0.01%    0.00%   19.71%   30.18%    0.00%    0.00%
 32  1     4    1  |1 1>-         0.00%    0.00%    0.00%    0.00%    0.00%    0.00%    0.00%    0.00%
 33  1     5    1  |1 1>-         0.00%    0.00%    0.00%    0.00%    0.00%    0.00%   32.08%    1.00%
 34  1     6    1  |1 1>-         0.00%    0.00%    0.00%    0.01%    0.00%    0.00%    0.99%   29.93%
 35  1     7    1  |1 1>-         0.00%    2.87%    2.86%    0.00%    0.00%    0.00%    0.00%    0.00%
 36  1     8    1  |1 1>-         0.00%    0.00%    0.00%    5.58%    0.00%    0.00%    0.00%    0.00%
 37  1     9    1  |1 1>-         0.01%    0.00%    0.00%    0.15%    0.00%    0.00%    0.00%    0.00%

   Total
 Nr Sym  State Sym Spin / Nr.      9       10       11       12       13       14       15       16

  1  1     1    1  |0 0>          0.00%    0.00%    0.00%    0.00%    0.00%    0.00%    0.00%    0.00%
  2  1     2    1  |0 0>          0.00%    0.00%    0.00%    0.00%    0.00%   34.30%   11.06%    0.05%
  3  1     3    1  |0 0>          0.00%    0.00%    0.00%    0.00%    0.00%   11.07%   34.34%    0.00%
  4  1     4    1  |0 0>          0.00%    0.00%    0.00%   42.63%    0.45%    0.00%    0.00%    2.33%
  5  1     5    1  |0 0>          0.00%    0.00%    0.00%    2.31%    0.11%    0.04%    0.01%   42.94%
  6  1     6    1  |0 0>          0.00%    0.00%    0.00%    0.47%   44.84%    0.00%    0.00%    0.10%
  7  1     7    1  |0 0>          0.00%    0.00%    0.00%    0.00%    0.00%    0.00%    0.00%    0.00%
  8  1     8    1  |0 0>          0.00%    0.00%    0.00%    0.00%    0.00%    0.00%    0.00%    0.00%
  9  1     9    1  |0 0>          0.00%    0.00%    0.00%    0.00%    0.00%    0.00%    0.00%    0.00%
 10  1    10    1  |0 0>          0.00%    0.00%    0.00%    0.00%    0.00%    0.00%    0.00%    0.00%
 11  1     1    1  |1 1>+         0.00%    0.00%    0.00%    0.00%    0.00%    0.00%    0.00%    0.00%
 12  1     2    1  |1 1>+         3.56%    0.00%    0.00%    0.00%    0.00%    2.10%    6.11%    0.00%
 13  1     3    1  |1 1>+         0.00%    3.13%    0.00%    0.00%    0.00%    6.47%    2.13%    0.00%
 14  1     4    1  |1 1>+        39.47%    0.01%    0.00%    0.00%    0.00%    6.70%   19.77%    0.00%
 15  1     5    1  |1 1>+         0.00%    0.00%   17.67%    0.17%    8.71%    0.00%    0.00%    0.20%
 16  1     6    1  |1 1>+         0.00%    0.00%    0.14%    8.22%    0.13%    0.01%    0.00%   26.13%
 17  1     7    1  |1 1>+         0.00%    0.00%    0.00%    0.00%    0.00%    1.06%    0.36%    0.00%
 18  1     8    1  |1 1>+         0.00%    0.00%    0.00%    1.40%    0.06%    0.00%    0.00%    0.43%
 19  1     9    1  |1 1>+         0.00%    0.00%    0.00%    0.05%    1.37%    0.00%    0.00%    0.02%
 20  1     1    1  |1 0>          0.00%    0.00%    0.00%    0.00%    0.00%    0.00%    0.00%    0.00%
 21  1     2    1  |1 0>          0.00%    0.00%    0.02%    0.35%   33.69%    0.00%    0.00%    0.01%
 22  1     3    1  |1 0>          0.00%    0.00%    0.00%   33.69%    0.35%    0.00%    0.00%    0.01%
 23  1     4    1  |1 0>          0.00%    0.00%   59.92%    0.00%    0.01%    0.00%    0.00%    0.00%
 24  1     5    1  |1 0>         53.03%    0.44%    0.00%    0.00%    0.00%    2.68%    5.80%    0.00%
 25  1     6    1  |1 0>          0.44%   53.01%    0.00%    0.00%    0.00%    5.80%    2.69%    0.00%
 26  1     7    1  |1 0>          0.00%    0.00%    0.00%    0.00%    0.00%    0.00%    0.00%    1.90%
 27  1     8    1  |1 0>          0.00%    0.00%    0.00%    0.00%    0.00%    0.91%    0.52%    0.00%
 28  1     9    1  |1 0>          0.00%    0.00%    0.00%    0.00%    0.00%    0.52%    0.91%    0.00%
 29  1     1    1  |1 1>-         0.00%    0.00%    0.00%    0.00%    0.00%    0.00%    0.00%    0.00%
 30  1     2    1  |1 1>-         0.00%    3.30%    0.00%    0.00%    0.00%    6.69%    2.30%    0.00%
 31  1     3    1  |1 1>-         3.49%    0.00%    0.00%    0.00%    0.00%    2.27%    6.32%    0.00%
 32  1     4    1  |1 1>-         0.01%   40.10%    0.00%    0.00%    0.00%   19.02%    6.63%    0.01%
 33  1     5    1  |1 1>-         0.00%    0.00%    0.22%    9.12%    0.23%    0.01%    0.00%   25.10%
 34  1     6    1  |1 1>-         0.00%    0.00%   22.02%    0.18%    8.62%    0.00%    0.00%    0.27%
 35  1     7    1  |1 1>-         0.00%    0.00%    0.00%    0.00%    0.00%    0.36%    1.06%    0.00%
 36  1     8    1  |1 1>-         0.00%    0.00%    0.00%    0.05%    1.38%    0.00%    0.00%    0.01%
 37  1     9    1  |1 1>-         0.00%    0.00%    0.00%    1.35%    0.05%    0.00%    0.00%    0.49%

   Total
 Nr Sym  State Sym Spin / Nr.     17       18       19       20       21       22       23       24

  1  1     1    1  |0 0>          0.00%    0.00%    0.00%    0.00%    0.00%    0.00%    0.00%    0.00%
  2  1     2    1  |0 0>          0.00%    0.00%    0.00%    0.00%   10.60%   10.31%    0.01%    0.01%
  3  1     3    1  |0 0>          0.00%    0.00%    0.00%    0.01%   10.31%   10.60%    0.00%    0.00%
  4  1     4    1  |0 0>          0.00%    0.00%    0.00%    1.21%    0.00%    0.00%   17.82%    1.89%
  5  1     5    1  |0 0>          0.00%    0.00%    0.00%   19.68%    0.01%    0.01%    1.09%    0.13%
  6  1     6    1  |0 0>          0.00%    0.00%    0.00%    0.02%    0.01%    0.01%    2.00%   18.90%
  7  1     7    1  |0 0>         31.20%   20.32%    0.00%    0.00%    0.00%    0.00%    0.00%    0.00%
  8  1     8    1  |0 0>         20.32%   31.20%    0.00%    0.00%    0.00%    0.00%    0.00%    0.00%
  9  1     9    1  |0 0>          0.00%    0.00%   51.52%    0.00%    0.00%    0.00%    0.00%    0.00%
 10  1    10    1  |0 0>          0.00%    0.00%    0.00%    0.00%    0.00%    0.00%    0.00%    0.00%
 11  1     1    1  |1 1>+         0.10%    0.07%    0.00%    0.00%    0.00%    0.00%    0.00%    0.00%
 12  1     2    1  |1 1>+         4.52%    2.96%    0.00%    0.00%    0.41%    0.42%    0.00%    0.00%
 13  1     3    1  |1 1>+         2.92%    4.45%    0.00%    0.00%    0.44%    0.42%    0.00%    0.00%
 14  1     4    1  |1 1>+         1.42%    0.93%    0.00%    0.00%    1.29%    1.32%    0.00%    0.00%
 15  1     5    1  |1 1>+         0.00%    0.00%    7.31%    0.02%    0.00%    0.00%    0.09%    0.77%
 16  1     6    1  |1 1>+         0.00%    0.00%    0.07%    2.55%    0.00%    0.00%    0.77%    0.09%
 17  1     7    1  |1 1>+         4.70%    7.18%    0.00%    0.00%   18.69%   18.25%    0.00%    0.00%
 18  1     8    1  |1 1>+         0.00%    0.00%    0.30%   11.98%    0.00%    0.00%   32.66%    4.32%
 19  1     9    1  |1 1>+         0.00%    0.00%   11.55%    0.30%    0.00%    0.00%    4.33%   32.64%
 20  1     1    1  |1 0>          0.00%    0.00%    0.17%    0.00%    0.00%    0.00%    0.00%    0.00%
 21  1     2    1  |1 0>          0.00%    0.00%    0.00%    0.00%    0.00%    0.00%    0.33%    3.10%
 22  1     3    1  |1 0>          0.00%    0.00%    0.00%    0.00%    0.00%    0.00%    3.10%    0.33%
 23  1     4    1  |1 0>          0.00%    0.00%    9.83%    0.00%    0.00%    0.00%    0.00%    0.00%
 24  1     5    1  |1 0>          4.42%    2.96%    0.00%    0.00%    0.43%    0.43%    0.00%    0.00%
 25  1     6    1  |1 0>          2.96%    4.42%    0.00%    0.00%    0.43%    0.43%    0.00%    0.00%
 26  1     7    1  |1 0>          0.00%    0.00%    0.00%   49.28%    0.00%    0.00%    0.00%    0.00%
 27  1     8    1  |1 0>          4.82%    7.01%    0.00%    0.00%   18.39%   18.58%    0.01%    0.01%
 28  1     9    1  |1 0>          7.01%    4.82%    0.00%    0.00%   18.58%   18.39%    0.01%    0.00%
 29  1     1    1  |1 1>-         0.07%    0.10%    0.00%    0.00%    0.00%    0.00%    0.00%    0.00%
 30  1     2    1  |1 1>-         2.87%    4.39%    0.00%    0.00%    0.46%    0.44%    0.00%    0.00%
 31  1     3    1  |1 1>-         4.46%    2.92%    0.00%    0.00%    0.43%    0.43%    0.00%    0.00%
 32  1     4    1  |1 1>-         1.02%    1.56%    0.00%    0.00%    1.28%    1.25%    0.00%    0.00%
 33  1     5    1  |1 1>-         0.00%    0.00%    0.07%    2.55%    0.00%    0.00%    0.77%    0.09%
 34  1     6    1  |1 1>-         0.00%    0.00%    7.31%    0.02%    0.00%    0.00%    0.09%    0.77%
 35  1     7    1  |1 1>-         7.18%    4.70%    0.00%    0.01%   18.25%   18.69%    0.00%    0.00%
 36  1     8    1  |1 1>-         0.00%    0.00%   11.55%    0.33%    0.01%    0.01%    4.32%   32.61%
 37  1     9    1  |1 1>-         0.00%    0.00%    0.30%   12.02%    0.00%    0.00%   32.59%    4.34%

   Total
 Nr Sym  State Sym Spin / Nr.     25       26       27       28       29       30       31       32

  1  1     1    1  |0 0>          0.02%    0.00%    0.00%    0.00%    0.00%    0.00%    0.00%    0.00%
  2  1     2    1  |0 0>          0.00%    0.00%    0.00%    0.00%    0.00%    0.18%    0.38%   18.56%
  3  1     3    1  |0 0>          0.00%    0.00%    0.00%    0.00%    0.02%    0.03%    0.42%   14.19%
  4  1     4    1  |0 0>          0.00%    0.00%    0.00%    0.00%   29.76%    2.94%    0.89%    0.03%
  5  1     5    1  |0 0>          0.00%    0.00%    0.00%    0.00%    1.07%    1.43%   30.32%    0.81%
  6  1     6    1  |0 0>          0.00%    0.00%    0.00%    0.00%    2.81%   29.08%    1.65%    0.06%
  7  1     7    1  |0 0>          0.00%   22.06%    3.01%    0.00%    0.00%    0.00%    0.00%    0.00%
  8  1     8    1  |0 0>          0.00%    3.00%   22.06%    0.00%    0.00%    0.00%    0.00%    0.00%
  9  1     9    1  |0 0>          0.00%    0.00%    0.00%   25.07%    0.00%    0.00%    0.00%    0.00%
 10  1    10    1  |0 0>         37.56%    0.00%    0.00%    0.00%    0.00%    0.00%    0.00%    0.00%
 11  1     1    1  |1 1>+         0.00%    0.45%    0.06%    0.00%    0.00%    0.00%    0.00%    0.00%
 12  1     2    1  |1 1>+         0.00%   19.39%    2.72%    0.00%    0.00%    0.01%    0.09%    2.91%
 13  1     3    1  |1 1>+         0.00%    2.69%   19.09%    0.00%    0.00%    0.04%    0.10%    3.92%
 14  1     4    1  |1 1>+         0.00%    6.06%    0.86%    0.00%    0.00%    0.03%    0.28%    9.30%
 15  1     5    1  |1 1>+         0.00%    0.00%    0.00%   21.58%    0.65%    6.65%    0.03%    0.04%
 16  1     6    1  |1 1>+         0.00%    0.00%    0.00%    0.20%    5.26%    0.51%   22.11%    0.65%
 17  1     7    1  |1 1>+         0.00%    0.11%    0.81%    0.00%    0.01%    0.10%    0.15%    6.35%
 18  1     8    1  |1 1>+        20.27%    0.00%    0.00%    0.02%   11.06%    1.91%    2.33%    0.07%
 19  1     9    1  |1 1>+         0.53%    0.00%    0.00%    0.90%    1.23%    9.59%    0.84%    0.03%
 20  1     1    1  |1 0>          0.00%    0.00%    0.00%    0.52%    0.00%    0.00%    0.00%    0.00%
 21  1     2    1  |1 0>          0.00%    0.00%    0.00%    0.01%    2.41%   25.14%    1.08%    0.06%
 22  1     3    1  |1 0>          0.00%    0.00%    0.00%    0.00%   26.23%    2.28%    0.21%    0.01%
 23  1     4    1  |1 0>          0.00%    0.00%    0.00%   29.02%    0.00%    0.00%    0.00%    0.00%
 24  1     5    1  |1 0>          0.00%   18.73%    3.03%    0.00%    0.00%    0.01%    0.10%    3.20%
 25  1     6    1  |1 0>          0.00%    3.03%   18.73%    0.00%    0.00%    0.03%    0.09%    3.78%
 26  1     7    1  |1 0>         20.79%    0.00%    0.00%    0.00%    0.05%    0.61%   14.44%    0.37%
 27  1     8    1  |1 0>          0.00%    0.15%    0.78%    0.00%    0.00%    0.05%    0.12%    5.91%
 28  1     9    1  |1 0>          0.01%    0.78%    0.15%    0.00%    0.00%    0.02%    0.12%    5.35%
 29  1     1    1  |1 1>-         0.00%    0.06%    0.45%    0.00%    0.00%    0.00%    0.00%    0.00%
 30  1     2    1  |1 1>-         0.00%    2.64%   18.80%    0.00%    0.00%    0.04%    0.10%    4.09%
 31  1     3    1  |1 1>-         0.00%   19.11%    2.67%    0.00%    0.00%    0.01%    0.09%    3.07%
 32  1     4    1  |1 1>-         0.00%    0.92%    6.66%    0.00%    0.00%    0.12%    0.29%   11.55%
 33  1     5    1  |1 1>-         0.00%    0.00%    0.00%    0.20%    7.89%    2.37%   17.72%    0.53%
 34  1     6    1  |1 1>-         0.00%    0.00%    0.00%   21.58%    0.66%    5.87%    0.83%    0.01%
 35  1     7    1  |1 1>-         0.01%    0.81%    0.11%    0.00%    0.01%    0.02%    0.12%    4.98%
 36  1     8    1  |1 1>-         0.54%    0.00%    0.00%    0.90%    1.21%   10.31%    0.13%    0.05%
 37  1     9    1  |1 1>-        20.27%    0.00%    0.00%    0.02%    9.66%    0.63%    4.98%    0.11%

   Total
 Nr Sym  State Sym Spin / Nr.     33       34       35       36       37

  1  1     1    1  |0 0>          0.00%    0.00%    0.00%    0.00%    0.01%
  2  1     2    1  |0 0>         14.54%    0.00%    0.00%    0.00%    0.00%
  3  1     3    1  |0 0>         19.01%    0.00%    0.00%    0.00%    0.00%
  4  1     4    1  |0 0>          0.03%    0.00%    0.00%    0.00%    0.00%
  5  1     5    1  |0 0>          0.03%    0.00%    0.00%    0.00%    0.00%
  6  1     6    1  |0 0>          0.05%    0.00%    0.00%    0.00%    0.00%
  7  1     7    1  |0 0>          0.00%   11.36%    8.43%    0.00%    0.00%
  8  1     8    1  |0 0>          0.00%    8.42%   11.36%    0.00%    0.00%
  9  1     9    1  |0 0>          0.00%    0.00%    0.00%   19.77%    0.00%
 10  1    10    1  |0 0>          0.00%    0.00%    0.00%    0.00%   62.44%
 11  1     1    1  |1 1>+         0.00%    8.30%    6.14%    0.00%    0.00%
 12  1     2    1  |1 1>+         3.84%    0.49%    0.36%    0.00%    0.00%
 13  1     3    1  |1 1>+         3.10%    0.36%    0.48%    0.00%    0.00%
 14  1     4    1  |1 1>+        12.30%    0.15%    0.11%    0.00%    0.00%
 15  1     5    1  |1 1>+         0.01%    0.00%    0.00%    0.83%    0.00%
 16  1     6    1  |1 1>+         0.03%    0.00%    0.00%    0.01%    0.00%
 17  1     7    1  |1 1>+         5.07%   13.36%   18.07%    0.00%    0.00%
 18  1     8    1  |1 1>+         0.02%    0.00%    0.00%    0.81%   12.20%
 19  1     9    1  |1 1>+         0.03%    0.00%    0.00%   30.68%    0.32%
 20  1     1    1  |1 0>          0.00%    0.00%    0.00%   14.44%    0.00%
 21  1     2    1  |1 0>          0.04%    0.00%    0.00%    0.00%    0.00%
 22  1     3    1  |1 0>          0.01%    0.00%    0.00%    0.00%    0.00%
 23  1     4    1  |1 0>          0.00%    0.00%    0.00%    1.12%    0.00%
 24  1     5    1  |1 0>          3.88%    0.48%    0.35%    0.00%    0.00%
 25  1     6    1  |1 0>          3.29%    0.35%    0.48%    0.00%    0.00%
 26  1     7    1  |1 0>          0.01%    0.01%    0.00%    0.00%   12.51%
 27  1     8    1  |1 0>          5.47%   13.51%   18.03%    0.01%    0.00%
 28  1     9    1  |1 0>          6.06%   18.03%   13.51%    0.00%    0.00%
 29  1     1    1  |1 1>-         0.00%    6.14%    8.30%    0.00%    0.00%
 30  1     2    1  |1 1>-         3.27%    0.35%    0.48%    0.00%    0.00%
 31  1     3    1  |1 1>-         4.00%    0.49%    0.36%    0.00%    0.00%
 32  1     4    1  |1 1>-         9.28%    0.12%    0.16%    0.00%    0.00%
 33  1     5    1  |1 1>-         0.04%    0.00%    0.00%    0.01%    0.00%
 34  1     6    1  |1 1>-         0.01%    0.00%    0.00%    0.83%    0.00%
 35  1     7    1  |1 1>-         6.54%   18.07%   13.36%    0.00%    0.00%
 36  1     8    1  |1 1>-         0.02%    0.00%    0.00%   30.67%    0.32%
 37  1     9    1  |1 1>-         0.01%    0.01%    0.00%    0.81%   12.19%



 **********************************************************************************************************************************
 DATASETS  * FILE   NREC   LENGTH (MB)   RECORD NAMES
              1      21       54.22       500      610      700      900      950      970     1000      129      960     1100   
                                          VAR    BASINP    GEOM    SYMINP    ZMAT    AOBASIS   BASIS     P2S    ABASIS      S 
                                         1400     1410     1420     1200     1210     1080     1700     1600     1650     1380   
                                           T        V       ECP      H0       H01     AOSYM    OPER      SMH    MOLCAS    JKOP   
                                         1700(1)
                                         OPER   

              2       7     6401.45       700     1000      520     2100     2140     5201     5202   
                                         GEOM     BASIS   MCVARS     RHF     MCSCF    MRCI     MRCI   

 PROGRAMS   *        TOTAL        CI        CI        CI     MULTI   RHF-SCF       INT
 CPU TIMES  *   2187472.102135271.18  30596.14  21595.76      6.62      0.13      2.03
 REAL TIME  *   2201565.18 SEC
 DISK USED  *         6.30 GB (local),       94.74 GB (total)
 SF USED    *        37.64 GB
 GA USED    *         0.00 MB       (max)       0.00 MB       (current)
 **********************************************************************************************************************************

 CI/aug-cc-pWCVQZ-PP energy=   -462.854200579417

              CI              CI           MULTI         RHF-SCF
   -462.81155788   -462.79634388   -461.79032093   -462.19986760
 **********************************************************************************************************************************
 Molpro calculation terminated with 1 warning(s)
