
 Working directory              : /wrk/irikura/molpro.q4BGfxkbNz/
 Global scratch directory       : /wrk/irikura/molpro.q4BGfxkbNz/
 Wavefunction directory         : /home/irikura/wfu/
 Main file repository           : /wrk/irikura/molpro.q4BGfxkbNz/

 id        : nistki

 Nodes            nprocs
 pn112695.nist.gov   12
 GA implementation: MPI file
 GA implementation (serial work in mppx): MPI file

 Using customized tuning parameters: mindgm=1; mindgv=20; mindgc=4; mindgr=1; noblas=0; minvec=7
 default implementation of scratch files=sf  


 Variables initialized (1040), CPU time= 0.01 sec
 ***,Cl SO-CI
                                                                                 ! active space (7/8)
 memory,1500,M;
 
 gprint,orbitals,civector;
 gthresh,energy=1.d-10,coeff=1.d-8;
 
 symmetry,xyz
 geometry={Cl};
 
 basis=aug-cc-pwCVTZ-DK
 
 set,dkho=101
 
 {rhf;wf,nelec=17,sym=2,spin=1}
 
 {multi
     closed,2,3
     occ,4,9
     wf,sym=2,spin=1;state,3;
     wf,sym=2,spin=3;state,8;
     expec2,lxx,lyy,lzz;
 }
 table, energy, ll
 title, Energies and &lt;L**2&gt; values
 
                                                                                 ! only K-shell uncorrelated
 core,1,0
 
 {ci;wf,sym=2,spin=1;state,3; save,5201.2}
 hlsdiag = energd4
 {ci;wf,sym=2,spin=3;state,8; save,5203.2}
 hlsdiag(4) = energd4
 
 table,hlsdiag
 
 lsint
 {ci;hlsmat,ls,5201.2,5203.2;print,vls=0,hls=0}                                  !compute and diagonalize SO matrix
 Commands initialized (846), CPU time= 0.01 sec, 717 directives.
 Default parameters read. Elapsed time= 0.14 sec

 Checking input...
 Passed
1


                                         ***  PROGRAM SYSTEM MOLPRO  ***
                                       Copyright, TTI GmbH Stuttgart, 2015
                                    Version 2023.2 linked Fri Sep 22 03:27:09 2023


 **********************************************************************************************************************************
 LABEL *   Cl SO-CI                                                                                                                                                      
  (32 PROC) 64 bit mpp version                                                           DATE: 26-Feb-24          TIME: 15:54:01  
 **********************************************************************************************************************************

 SHA1:             3c61bfe44d37c8635c785372c339f5cbdd4e4b59
 **********************************************************************************************************************************

 Memory per process:      1500 MW
 Total memory per node:  18000 MW

 GA preallocation disabled
 GA check disabled

 Variable memory set to 1500.0 MW



 THRESHOLDS:

 ZERO    =  1.00D-12  ONEINT  =  1.00D-12  TWOINT  =  1.00D-11  PREFAC  =  1.00D-14  XXXXXX  =  1.00D-09  EORDER  =  1.00D-04
 ENERGY  =  1.00D-10  ETEST   =  0.00D+00  EDENS   =  0.00D+00  THRDEDEF=  1.00D-06  GRADIENT=  1.00D-05  STEP    =  1.00D-03
 ORBITAL =  1.00D-05  CIVEC   =  1.00D-05  COEFF   =  1.00D-08  PRINTCI =  5.00D-02  PUNCHCI =  9.90D+01  OPTGRAD =  3.00D-04
 OPTENERG=  1.00D-06  OPTSTEP =  3.00D-04  THRGRAD =  1.00D-10  COMPRESS=  1.00D-11  VARMIN  =  1.00D-07  VARMAX  =  1.00D-03
 THRDOUB =  0.00D+00  THRDIV  =  1.00D-05  THRRED  =  1.00D-07  THRPSP  =  1.00D+00  THRDC   =  1.00D-10  THRCS   =  1.00D-10
 THRNRM  =  1.00D-08  THREQ   =  0.00D+00  THRDE   =  1.00D+00  THRREF  =  1.00D-05  SPARFAC =  1.00D+00  THRDLP  =  1.00D-07
 THRDIA  =  1.00D-10  THRDLS  =  1.00D-07  THRGPS  =  0.00D+00  THRKEX  =  0.00D+00  THRDIS  =  2.00D-01  THRVAR  =  1.00D-10
 THRLOC  =  1.00D-06  THRGAP  =  1.00D-06  THRLOCT = -1.00D+00  THRGAPT = -1.00D+00  THRORB  =  1.00D-06  THRMLTP =  0.00D+00
 THRCPQCI=  1.00D-10  KEXTA   =  0.00D+00  THRCOARS=  0.00D+00  SYMTOL  =  1.00D-06  GRADTOL =  1.00D-06  THROVL  =  1.00D-08
 THRORTH =  1.00D-08  THRDLOVL= -1.00D+00  GRID    =  1.00D-06  GRIDMAX =  1.00D-03  DTMAX   =  0.00D+00  THROCCDE=  1.00D-01
 THROCCDE=  1.00D-01  THRPRINT=  2.50D-01

 ZSYMEL=XYZ

 SETTING BASIS          =    AUG-CC-PWCVTZ-DK
 SETTING DKHO           =       101.00000000                                  


 Recomputing integrals since basis changed


 Using spherical harmonics

 Library entry CL     S aug-cc-pwCVTZ-DK     selected for orbital group  1
 Library entry CL     P aug-cc-pwCVTZ-DK     selected for orbital group  1
 Library entry CL     D aug-cc-pwCVTZ-DK     selected for orbital group  1
 Library entry CL     F aug-cc-pwCVTZ-DK     selected for orbital group  1


 PROGRAM * SEWARD (Integral evaluation for generally contracted gaussian basis sets)     Author: Roland Lindh, 1990

 Geometry written to block  1 of record 700

 Orientation using atomic masses  
 Molecule type: Atom
 User-specified symmetry elements: XYZ
 Symmetry elements: XYZ
 Rotational constants:       0.0000000      0.0000000      0.0000000 GHz  (calculated with average atomic masses)

 Point group  Ci  



 ATOMIC COORDINATES

 NR  ATOM    CHARGE       X              Y              Z

   1  CL     17.00    0.000000000    0.000000000    0.000000000

 NUCLEAR CHARGE:                   17
 NUMBER OF PRIMITIVE AOS:         114
 NUMBER OF SYMMETRY AOS:          100
 NUMBER OF CONTRACTIONS:           75   (   33Ag  +   42Au  )
 NUMBER OF INNER CORE ORBITALS:     1   (    1Ag  +    0Au  )
 NUMBER OF OUTER CORE ORBITALS:     4   (    1Ag  +    3Au  )
 NUMBER OF VALENCE ORBITALS:        4   (    1Ag  +    3Au  )


 NUCLEAR REPULSION ENERGY    0.00000000

 One-electron integrals computed with SEWARD

 eXact-2-Component (X2C) method activated

 Computing Douglas-Kroll / X2C integrals

 AO integral compression algorithm  1   Integral accuracy      1.0D-14

     10.486 MB (compressed) written to integral file ( 27.0%)

     Node minimum: 0.524 MB, node maximum: 1.311 MB


 NUMBER OF SORTED TWO-ELECTRON INTEGRALS:     173397.     BUFFER LENGTH:  32768
 NUMBER OF SEGMENTS:   1  SEGMENT LENGTH:     173397      RECORD LENGTH: 524288

 Memory used in sort:       0.73 MW

 SORT1 READ     4558334. AND WROTE       36502. INTEGRALS IN      1 RECORDS. CPU TIME:     0.02 SEC, REAL TIME:     0.03 SEC
 SORT2 READ      438096. AND WROTE     2085546. INTEGRALS IN     36 RECORDS. CPU TIME:     0.01 SEC, REAL TIME:     0.01 SEC

 Node minimum:      172985.  Node maximum:      175449. integrals

 OPERATOR DM      FOR CENTER  0  COORDINATES:    0.000000    0.000000    0.000000

 EXTRA SYMMETRY OF AOS IN SYMMETRY 1:   1 1 1 1 1 1 1 1 2 3   4 5 6 2 3 4 5 6 2 3   4 5 6 2 3 4 5 6 2 3   4 5 6
 EXTRA SYMMETRY OF AOS IN SYMMETRY 2:   1 2 3 1 2 3 1 2 3 1   2 3 1 2 3 1 2 3 1 2   3 4 5 6 7 8 910 4 5   6 7 8 910 4 5 6 7 8
                                        910

 Eigenvalues of metric

         1 0.210E-02 0.526E-02 0.592E-01 0.138E+00 0.138E+00 0.138E+00 0.138E+00 0.138E+00
         2 0.130E-01 0.130E-01 0.130E-01 0.300E-01 0.300E-01 0.300E-01 0.114E+00 0.114E+00


 **********************************************************************************************************************************
 DATASETS  * FILE   NREC   LENGTH (MB)   RECORD NAMES
              1      22       28.81       500      610      700      900      950      970     1000      129      960     1700   
                                          VAR    BASINP    GEOM    SYMINP    ZMAT    AOBASIS   BASIS     P2S    ABASIS    OPER   
                                         1101     1401     1411     1412     1650     1100     1400     1410     1200     1210   
                                          SR      EKINR    POTR     PVPR    MOLCAS      S      EKIN      POT      H0       H01  
                                         1080     1600   
                                         AOSYM     SMH  

 PROGRAMS   *        TOTAL       INT
 CPU TIMES  *         0.69      0.43
 REAL TIME  *         1.48 SEC
 DISK USED  *        29.14 MB (local),      402.05 MB (total)
 GA USED    *         0.00 MB       (max)       0.00 MB       (current)
 **********************************************************************************************************************************


 Program * Restricted Hartree-Fock

 Orbital guess generated from atomic densities. Full valence occupancy:    3   6

 Initial alpha occupancy:   3   6
 Initial beta  occupancy:   3   5

 NELEC=   17   SYM=2   MS2= 1   THRE=1.0D-12   THRD=1.0D-06   THRG=1.0D-06  HFMA2=F  DIIS_START=2   DIIS_MAX=10   DIIS_INCORE=F

 Level shifts:    0.00 (CLOSED)    0.00 (OPEN)    0.30 (GAP_MIN)

 ITER           ETOT              DE          GRAD        DDIFF     DIIS  NEXP   TIME(IT)  TIME(TOT)  DIAG
   1     -460.88652677    -460.88652677     0.00D+00     0.15D+00     0     0       0.00      0.01    start
   2     -460.88950976      -0.00298299     0.31D-02     0.36D-02     1     0       0.00      0.01    diag2
   3     -460.88964245      -0.00013269     0.71D-03     0.70D-03     2     0       0.00      0.01    diag2
   4     -460.88965588      -0.00001343     0.18D-03     0.23D-03     3     0       0.00      0.01    diag2
   5     -460.88965795      -0.00000208     0.40D-04     0.11D-03     4     0       0.00      0.01    diag2
   6     -460.88965809      -0.00000014     0.11D-04     0.33D-04     5     0       0.01      0.02    diag2
   7     -460.88965810      -0.00000000     0.14D-05     0.36D-05     6     0       0.00      0.02    diag2
   8     -460.88965810      -0.00000000     0.13D-06     0.38D-06     7     0       0.00      0.02    fixocc
   9     -460.88965810       0.00000000     0.73D-08     0.25D-07     8     0       0.00      0.02    diag2
  10     -460.88965810      -0.00000000     0.11D-08     0.27D-08     0     0       0.01      0.03    diag/orth

 Final alpha occupancy:   3   6
 Final beta  occupancy:   3   5

 !RHF STATE 1.2 Energy               -460.889658096283
  RHF One-electron energy            -636.773116490694
  RHF Two-electron energy             175.883458394411
  RHF Kinetic energy                  469.524509067823
  RHF Nuclear energy                    0.000000000000
  RHF Virial quotient                  -0.981609371173

 !RHF STATE 1.2 Dipole moment           0.00000000     0.00000000     0.00000000
 Dipole moment /Debye                   0.00000000     0.00000000     0.00000000

 ELECTRON ORBITALS
 =================

  Orbital  Occupation    Energy    Cen Mu Typ  Coefficients
    1.1     2.00000  -105.26037     1  1  s    0.99881
    2.1     2.00000   -10.67436     1  2  s    1.00085
    3.1     2.00000    -1.07991     1  3  s    1.00781
    1.2     2.00000    -8.07497     1  1  px   0.99748
    2.2     2.00000    -8.07286     1  1  pz   1.00074
    3.2     2.00000    -8.07286     1  1  py   1.00074
    4.2     2.00000    -0.49163     1  2  pz   0.99667
    5.2     2.00000    -0.49163     1  2  py   0.99667
    6.2     1.00000    -0.56900     1  2  px   1.04793


 HOMO      6.2    -0.569003 =     -15.4834eV
 LUMO      7.2     0.106433 =       2.8962eV
 LUMO-HOMO         0.675436 =      18.3796eV

 Orbitals saved in record  2100.2


 **********************************************************************************************************************************
 DATASETS  * FILE   NREC   LENGTH (MB)   RECORD NAMES
              1      22       28.81       500      610      700      900      950      970     1000      129      960     1700   
                                          VAR    BASINP    GEOM    SYMINP    ZMAT    AOBASIS   BASIS     P2S    ABASIS    OPER   
                                         1101     1401     1411     1412     1650     1100     1400     1410     1200     1210   
                                          SR      EKINR    POTR     PVPR    MOLCAS      S      EKIN      POT      H0       H01  
                                         1080     1600   
                                         AOSYM     SMH  

              2       4        0.47       700     1000      520     2100   
                                         GEOM     BASIS   MCVARS     RHF  

 PROGRAMS   *        TOTAL   RHF-SCF       INT
 CPU TIMES  *         0.90      0.21      0.43
 REAL TIME  *         2.41 SEC
 DISK USED  *        29.74 MB (local),      409.28 MB (total)
 GA USED    *         0.00 MB       (max)       0.00 MB       (current)
 **********************************************************************************************************************************

 PROGRAM * MULTI (Direct Multiconfiguration SCF)       Authors: P.J. Knowles, H.-J. Werner (1984)
                                                                D.A. Kreplin, P.J. Knowles, H.-J. Werner (2019)

 Number of closed-shell orbitals:   5 (    2    3)
 Number of active  orbitals:        8 (    2    6)
 Number of external orbitals:      62 (   29   33)

 State symmetry 1

 Number of active electrons:   7    Spin symmetry=Doublet   Space symmetry=2
 Number of states:             3
 Number of CSFs:            1204   (1980 determinants, 3920 intermediate states)

 State symmetry 2

 Number of active electrons:   7    Spin symmetry=Quartet   Space symmetry=2
 Number of states:             8
 Number of CSFs:             656   (776 determinants, 1568 intermediate states)

 Molecular orbitals read from record     2100.2  Type=RHF/CANONICAL  
 *** IN SYMMETRY 1 ORBITAL  1 SYMMETRY CONTAMINATION OF 0.340D-04 HAS BEEN REMOVED
 *** IN SYMMETRY 1 ORBITAL  2 SYMMETRY CONTAMINATION OF 0.199D-02 HAS BEEN REMOVED
 *** IN SYMMETRY 1 ORBITAL  3 SYMMETRY CONTAMINATION OF 0.941D-02 HAS BEEN REMOVED
 *** IN SYMMETRY 1 ORBITAL  4 SYMMETRY CONTAMINATION OF 0.154D-01 HAS BEEN REMOVED

 EXTRA SYMMETRY OF MOS IN SYMMETRY 1:   1 1 1 1 5 3 4 6 2 1   5 4 3 2 6 5 3 4 2 6   1 5 3 4 2 6 1 5 3 4   2 6 1
 *** IN SYMMETRY 2 ORBITAL  1 SYMMETRY CONTAMINATION OF 0.104D-02 HAS BEEN REMOVED
 *** IN SYMMETRY 2 ORBITAL  2 SYMMETRY CONTAMINATION OF 0.140D-01 HAS BEEN REMOVED
 *** IN SYMMETRY 2 ORBITAL  3 SYMMETRY CONTAMINATION OF 0.139D-01 HAS BEEN REMOVED
 *** IN SYMMETRY 2 ORBITAL  4 SYMMETRY CONTAMINATION OF 0.236D-01 HAS BEEN REMOVED
 *** IN SYMMETRY 2 ORBITAL  5 SYMMETRY CONTAMINATION OF 0.222D-01 HAS BEEN REMOVED
 *** IN SYMMETRY 2 ORBITAL  6 SYMMETRY CONTAMINATION OF 0.267D-01 HAS BEEN REMOVED
 *** IN SYMMETRY 2 ORBITAL  7 SYMMETRY CONTAMINATION OF 0.392D-02 HAS BEEN REMOVED
 *** IN SYMMETRY 2 ORBITAL  8 SYMMETRY CONTAMINATION OF 0.595D-01 HAS BEEN REMOVED
 *** IN SYMMETRY 2 ORBITAL  9 SYMMETRY CONTAMINATION OF 0.592D-01 HAS BEEN REMOVED
 EXTRA SYMMETRY OF MOS IN SYMMETRY 2:   1 3 2 3 2 1 1 3 2 1   3 2 710 9 8 4 5 6 1   3 2 710 9 8 4 5 6 7   910 4 8 5 6 1 2 3 1
                                        2 3

 Wavefunction dump at record             2140.2

 Convergence thresholds  0.10E-04 (gradient)  0.10E-09 (energy)

 Weight factors for state symmetry  1:    0.09091   0.09091   0.09091
 Weight factors for state symmetry  2:    0.09091   0.09091   0.09091   0.09091   0.09091   0.09091   0.09091   0.09091
 
 Number of orbital rotations:  435  ( 22 closed/active, 157 closed/virtual, 0 active/active, 256 active/virtual )
 Total number of variables:    12583
 
 Second-order MCSCF: L-BFGS accelerated
 
 ITER  MIC  NCI  NEG     ENERGY(VAR)    ENERGY(PROJ) ENERGY CHANGE       GRAD(0)  GRAD(ORB)   GRAD(CI)      STEP      TIME
   1   12   51    0   -460.60429856    -460.63329783   -0.02899927    0.19391400 0.00119378 0.00068031  0.95E+00      1.97
   2    9   42    0   -460.62685135    -460.62875411   -0.00190276    0.12977522 0.00017970 0.00066011  0.19E+00      4.09
   3   11   49    0   -460.62877113    -460.62877213   -0.00000101    0.00069176 0.00000022 0.00000018  0.12E-01      6.17
   4   11   37    0   -460.62877214    -460.62877214   -0.00000000    0.00000040 0.00000000 0.00000000  0.88E-05      7.60
   5    2    4    0   -460.62877214    -460.62877214    0.00000000    0.00000000 0.00000000 0.00000000  0.10E-09      7.79

 CONVERGENCE REACHED!  Final gradient:    0.00000000 ( 0.15E-10)
                       Final energy:   -460.62877214
 
 Results for state 1.2 Doublet
 =============================
 !MCSCF STATE 1.2 Doublet Energy              -460.887190406212
 Nuclear energy                                  0.00000000
 Kinetic energy                                469.98534181
 One electron energy                          -637.28950196
 Two electron energy                           176.40231156
 Virial ratio                                    1.98064163
 
 !MCSCF STATE 1.2 Doublet Dipole moment          0.00000000     0.00000000     0.00000000
 Dipole moment /Debye                            0.00000000     0.00000000     0.00000000
 
 Results for state 2.2 Doublet
 =============================
 !MCSCF STATE 2.2 Doublet Energy              -460.887190406211
 Nuclear energy                                  0.00000000
 Kinetic energy                                469.98534181
 One electron energy                          -637.28950196
 Two electron energy                           176.40231156
 Virial ratio                                    1.98064163
 
 !MCSCF STATE 2.2 Doublet Dipole moment          0.00000000     0.00000000     0.00000000
 Dipole moment /Debye                            0.00000000     0.00000000     0.00000000
 
 Results for state 3.2 Doublet
 =============================
 !MCSCF STATE 3.2 Doublet Energy              -460.887190406210
 Nuclear energy                                  0.00000000
 Kinetic energy                                469.98534181
 One electron energy                          -637.28950196
 Two electron energy                           176.40231156
 Virial ratio                                    1.98064163
 
 !MCSCF STATE 3.2 Doublet Dipole moment          0.00000000     0.00000000     0.00000000
 Dipole moment /Debye                            0.00000000     0.00000000     0.00000000
 
 Results for state 1.2 Quartet
 =============================
 !MCSCF STATE 1.2 Quartet Energy              -460.538602017692
 Nuclear energy                                  0.00000000
 Kinetic energy                                469.06679105
 One electron energy                          -632.13849011
 Two electron energy                           171.59988809
 Virial ratio                                    1.98181882
 
 !MCSCF STATE 1.2 Quartet Dipole moment          0.00000000     0.00000000     0.00000000
 Dipole moment /Debye                            0.00000000     0.00000000     0.00000000
 
 Results for state 2.2 Quartet
 =============================
 !MCSCF STATE 2.2 Quartet Energy              -460.538602017691
 Nuclear energy                                  0.00000000
 Kinetic energy                                469.06679105
 One electron energy                          -632.13849011
 Two electron energy                           171.59988809
 Virial ratio                                    1.98181882
 
 !MCSCF STATE 2.2 Quartet Dipole moment          0.00000000     0.00000000     0.00000000
 Dipole moment /Debye                            0.00000000     0.00000000     0.00000000
 
 Results for state 3.2 Quartet
 =============================
 !MCSCF STATE 3.2 Quartet Energy              -460.538602017691
 Nuclear energy                                  0.00000000
 Kinetic energy                                469.06679105
 One electron energy                          -632.13849011
 Two electron energy                           171.59988809
 Virial ratio                                    1.98181882
 
 !MCSCF STATE 3.2 Quartet Dipole moment          0.00000000     0.00000000     0.00000000
 Dipole moment /Debye                            0.00000000     0.00000000     0.00000000
 
 Results for state 4.2 Quartet
 =============================
 !MCSCF STATE 4.2 Quartet Energy              -460.527823243084
 Nuclear energy                                  0.00000000
 Kinetic energy                                469.09469559
 One electron energy                          -632.18599772
 Two electron energy                           171.65817447
 Virial ratio                                    1.98173744
 
 !MCSCF STATE 4.2 Quartet Dipole moment          0.00000000     0.00000000     0.00000000
 Dipole moment /Debye                            0.00000000     0.00000000     0.00000000
 
 Results for state 5.2 Quartet
 =============================
 !MCSCF STATE 5.2 Quartet Energy              -460.527823243083
 Nuclear energy                                  0.00000000
 Kinetic energy                                469.09469559
 One electron energy                          -632.18599772
 Two electron energy                           171.65817447
 Virial ratio                                    1.98173744
 
 !MCSCF STATE 5.2 Quartet Dipole moment          0.00000000     0.00000000     0.00000000
 Dipole moment /Debye                            0.00000000     0.00000000     0.00000000
 
 Results for state 6.2 Quartet
 =============================
 !MCSCF STATE 6.2 Quartet Energy              -460.527823243083
 Nuclear energy                                  0.00000000
 Kinetic energy                                469.09469559
 One electron energy                          -632.18599772
 Two electron energy                           171.65817447
 Virial ratio                                    1.98173744
 
 !MCSCF STATE 6.2 Quartet Dipole moment          0.00000000     0.00000000     0.00000000
 Dipole moment /Debye                            0.00000000     0.00000000     0.00000000
 
 Results for state 7.2 Quartet
 =============================
 !MCSCF STATE 7.2 Quartet Energy              -460.527823243083
 Nuclear energy                                  0.00000000
 Kinetic energy                                469.09469559
 One electron energy                          -632.18599772
 Two electron energy                           171.65817447
 Virial ratio                                    1.98173744
 
 !MCSCF STATE 7.2 Quartet Dipole moment          0.00000000     0.00000000     0.00000000
 Dipole moment /Debye                            0.00000000     0.00000000     0.00000000
 
 Results for state 8.2 Quartet
 =============================
 !MCSCF STATE 8.2 Quartet Energy              -460.527823243083
 Nuclear energy                                  0.00000000
 Kinetic energy                                469.09469559
 One electron energy                          -632.18599772
 Two electron energy                           171.65817447
 Virial ratio                                    1.98173744
 
 !MCSCF STATE 8.2 Quartet Dipole moment          0.00000000     0.00000000     0.00000000
 Dipole moment /Debye                            0.00000000     0.00000000     0.00000000
 
 State-averaged charge density matrix saved on record 2140.2 (density set 1)
 
 No non-zero expectation values
 
 Expectation values for two-electron operators:
 
 ? Warning
 ? Transition properties are only calculated between states of the same symmetry
 ? The problem occurs in mu_properties_expec2

 !MCSCF expec      <1.2 Doublet|LXLX|1.2 Doublet>     0.000009778288
 !MCSCF expec      <2.2 Doublet|LXLX|2.2 Doublet>     0.999991612088
 !MCSCF expec      <3.2 Doublet|LXLX|3.2 Doublet>     0.999998609624
 !MCSCF expec      <1.2 Quartet|LXLX|1.2 Quartet>     0.000024974490
 !MCSCF expec      <2.2 Quartet|LXLX|2.2 Quartet>     0.999976158828
 !MCSCF expec      <3.2 Quartet|LXLX|3.2 Quartet>     0.999998866682
 !MCSCF expec      <4.2 Quartet|LXLX|4.2 Quartet>     3.643678368335
 !MCSCF expec      <5.2 Quartet|LXLX|5.2 Quartet>     3.999816344913
 !MCSCF expec      <6.2 Quartet|LXLX|6.2 Quartet>     1.000795699585
 !MCSCF expec      <7.2 Quartet|LXLX|7.2 Quartet>     1.000125573176
 !MCSCF expec      <8.2 Quartet|LXLX|8.2 Quartet>     0.355584013990
 
 !MCSCF expec      <1.2 Doublet|LYLY|1.2 Doublet>     0.999991715289
 !MCSCF expec      <2.2 Doublet|LYLY|2.2 Doublet>     0.000229883324
 !MCSCF expec      <3.2 Doublet|LYLY|3.2 Doublet>     0.999778401387
 !MCSCF expec      <1.2 Quartet|LYLY|1.2 Quartet>     0.999976509107
 !MCSCF expec      <2.2 Quartet|LYLY|2.2 Quartet>     0.001018215826
 !MCSCF expec      <3.2 Quartet|LYLY|3.2 Quartet>     0.999005275066
 !MCSCF expec      <4.2 Quartet|LYLY|4.2 Quartet>     2.163391368989
 !MCSCF expec      <5.2 Quartet|LYLY|5.2 Quartet>     1.000149322497
 !MCSCF expec      <6.2 Quartet|LYLY|6.2 Quartet>     3.997108794011
 !MCSCF expec      <7.2 Quartet|LYLY|7.2 Quartet>     1.001834163971
 !MCSCF expec      <8.2 Quartet|LYLY|8.2 Quartet>     1.837516350533
 
 !MCSCF expec      <1.2 Doublet|LZLZ|1.2 Doublet>     0.999998506423
 !MCSCF expec      <2.2 Doublet|LZLZ|2.2 Doublet>     0.999778504588
 !MCSCF expec      <3.2 Doublet|LZLZ|3.2 Doublet>     0.000222988989
 !MCSCF expec      <1.2 Quartet|LZLZ|1.2 Quartet>     0.999998516403
 !MCSCF expec      <2.2 Quartet|LZLZ|2.2 Quartet>     0.999005625346
 !MCSCF expec      <3.2 Quartet|LZLZ|3.2 Quartet>     0.000995858251
 !MCSCF expec      <4.2 Quartet|LZLZ|4.2 Quartet>     0.192930262676
 !MCSCF expec      <5.2 Quartet|LZLZ|5.2 Quartet>     1.000034332590
 !MCSCF expec      <6.2 Quartet|LZLZ|6.2 Quartet>     1.002095506404
 !MCSCF expec      <7.2 Quartet|LZLZ|7.2 Quartet>     3.998040262853
 !MCSCF expec      <8.2 Quartet|LZLZ|8.2 Quartet>     3.806899635477
 
 !MCSCF expec      <1.2 Doublet|L**2|1.2 Doublet>     2.000000000000
 !MCSCF expec      <2.2 Doublet|L**2|2.2 Doublet>     2.000000000000
 !MCSCF expec      <3.2 Doublet|L**2|3.2 Doublet>     2.000000000000
 !MCSCF expec      <1.2 Quartet|L**2|1.2 Quartet>     2.000000000000
 !MCSCF expec      <2.2 Quartet|L**2|2.2 Quartet>     2.000000000000
 !MCSCF expec      <3.2 Quartet|L**2|3.2 Quartet>     2.000000000000
 !MCSCF expec      <4.2 Quartet|L**2|4.2 Quartet>     6.000000000000
 !MCSCF expec      <5.2 Quartet|L**2|5.2 Quartet>     6.000000000000
 !MCSCF expec      <6.2 Quartet|L**2|6.2 Quartet>     6.000000000000
 !MCSCF expec      <7.2 Quartet|L**2|7.2 Quartet>     6.000000000000
 !MCSCF expec      <8.2 Quartet|L**2|8.2 Quartet>     6.000000000000
 
 EXTRA SYMMETRY OF MOS IN SYMMETRY 1:   1 1 1 1 3 5 4 2 6 1   3 5 4 2 6 3 5 4 2 6   1 5 3 4 2 6 1 5 3 4   2 6 1
 EXTRA SYMMETRY OF MOS IN SYMMETRY 2:   3 2 1 3 2 1 3 2 1 1   3 2 9 7 810 4 6 5 3   2 1 9 7 810 4 6 5 7   910 8 4 6 5 1 2 3 1
                                        2 3
 
  NATURAL ORBITALS (STATE AVERAGED)
  =================================

  Orbital  Occupation    Energy    Cen Mu Typ  Coefficients
    1.1     2.00000  -105.46430     1  1  s    0.99882
    2.1     2.00000   -10.86839     1  2  s    1.00150
    3.1     1.99689    -1.23324     1  3  s    1.07078
    4.1     0.00334     0.60576     1  3  s   -1.35321    1  4  s   -0.84045    1  5  s    1.91986
    1.2     2.00000    -8.27152     1  1  pz   0.99985
    2.2     2.00000    -8.27152     1  1  py   0.99985
    3.2     2.00000    -8.27152     1  1  px   0.99985
    4.2     1.42105    -0.52454     1  2  pz   1.07943
    5.2     1.42105    -0.52454     1  2  py   1.07943
    6.2     1.42105    -0.52454     1  2  px   1.07943
    7.2     0.24554     0.07912     1  2  pz  -0.35375    1  7  pz   1.12426
    8.2     0.24554     0.07912     1  2  py  -0.35375    1  7  py   1.12426
    9.2     0.24554     0.07912     1  2  px  -0.35375    1  7  px   1.12426
 
 Natural orbital dump (state averaged) at molpro section 2140.2 (Orbital set 2)
 
 Transform the CI vectors
 
 CI Coefficients of symmetry 2 (Doublet)
 =======================================
 
 20 22a000      0.98727758     -0.00285936     -0.00116415
 20 a22000      0.00120658      0.01469345      0.98717232
 20 2a2000      0.00284171      0.98716892     -0.01469687
 20 2aa0b0     -0.07315827      0.00021188      0.00008626
 20 a2ab00     -0.07315827      0.00021188      0.00008626
 20 a2a00b      0.00008941      0.00108880      0.07315047
 20 aa20b0      0.00008941      0.00108880      0.07315047
 20 2aa00b      0.00021057      0.07315021     -0.00108905
 20 aa2b00     -0.00021057     -0.07315021      0.00108905
 20 2ba0a0      0.05566468     -0.00016122     -0.00006564
 20 b2aa00      0.05566468     -0.00016122     -0.00006564
 20 a2b00a     -0.00006803     -0.00082845     -0.05565874
 20 ab20a0     -0.00006803     -0.00082845     -0.05565874
 20 2ab00a     -0.00016022     -0.05565855      0.00082864
 20 ba2a00      0.00016022      0.05565855     -0.00082864
 
 Energy:     -460.88719041   -460.88719041   -460.88719041
 
 
 CI Coefficients of symmetry 2 (Quartet)
 =======================================

 State:              1               2               3               4               5               6               7
 20 2aaa00     -0.00000000     -0.00000000     -0.00000000      0.79366827     -0.03084459      0.00935662     -0.00118435
 20 aa200a     -0.00000000     -0.00000000      0.00000000     -0.24279287      0.00017991      0.00303144     -0.00880141
 20 2aa0a0      0.70489668      0.00344187     -0.00075042     -0.02947240     -0.70437940      0.00399302     -0.00299699
 20 a2aa00      0.70489668      0.00344187     -0.00075042      0.02947240      0.70437940     -0.00399302      0.00299699
 20 aa20a0      0.00085860     -0.02222828      0.70455440      0.00316311     -0.00334754     -0.01759802      0.70477938
 20 a2a00a      0.00085860     -0.02222828      0.70455440     -0.00316311      0.00334754      0.01759802     -0.70477938
 20 aa2a00     -0.00341649      0.70454651      0.02223220     -0.00934202      0.00438120      0.70475235      0.01773023
 20 2aa00a      0.00341649     -0.70454651     -0.02223220     -0.00934202      0.00438120      0.70475235      0.01773023
 20 a2a0a0      0.00000000     -0.00000000      0.00000000      0.55087541     -0.03066468      0.01238805     -0.00998576
 
 Energy:     -460.53860202   -460.53860202   -460.53860202   -460.52782324   -460.52782324   -460.52782324   -460.52782324

 State:              8
 20 2aaa00     -0.17856599
 20 aa200a      0.77704596
 20 2aa0a0     -0.00909528
 20 a2aa00      0.00909528
 20 aa20a0      0.00904062
 20 a2a00a     -0.00904062
 20 aa2a00     -0.00546856
 20 2aa00a     -0.00546856
 20 a2a0a0      0.59847996
 
 Energy:     -460.52782324
 


 **********************************************************************************************************************************
 DATASETS  * FILE   NREC   LENGTH (MB)   RECORD NAMES
              1      24       31.88       500      610      700      900      950      970     1000      129      960     1700   
                                          VAR    BASINP    GEOM    SYMINP    ZMAT    AOBASIS   BASIS     P2S    ABASIS    OPER   
                                         1101     1401     1411     1412     1650     1100     1400     1410     1200     1210   
                                          SR      EKINR    POTR     PVPR    MOLCAS      S      EKIN      POT      H0       H01  
                                         1080     1600     1380     1700(1)
                                         AOSYM     SMH     JKOP     OPER   

              2       5        0.67       700     1000      520     2100     2140   
                                         GEOM     BASIS   MCVARS     RHF     MCSCF   

 PROGRAMS   *        TOTAL     MULTI   RHF-SCF       INT
 CPU TIMES  *         4.67      3.77      0.21      0.43
 REAL TIME  *        10.52 SEC
 DISK USED  *        32.63 MB (local),      443.88 MB (total)
 SF USED    *         9.15 MB
 GA USED    *         0.00 MB       (max)       0.00 MB       (current)
 **********************************************************************************************************************************

 Energies and &lt;L**2&gt; values

         ENERGY     LL
    -460.8871904   2.0
    -460.8871904   2.0
    -460.8871904   2.0
    -460.5386020   2.0
    -460.5386020   2.0
    -460.5386020   2.0
    -460.5278232   6.0
    -460.5278232   6.0
    -460.5278232   6.0
    -460.5278232   6.0
    -460.5278232   6.0
                                                  


 PROGRAM * CI (Multireference internally contracted CI)     Authors: H.-J. Werner, P.J. Knowles, 1987


 Convergence thresholds:  THRVAR = 1.00D-16  THRDEN = 1.00D-10

 Number of optimized states: 3  Roots:    1   2   3
 Number of reference states: 3  Roots:    1   2   3

 Reference symmetry:                   2   Doublet 
 Number of electrons:                 17
 Maximum number of shells:             7
 Maximum number of spin couplings:   429

 Reference space:      554 conf     1204 CSFs
 N elec internal:    15604 conf    64512 CSFs
 N-1 el internal:    15918 conf   111168 CSFs
 N-2 el internal:     9180 conf    96556 CSFs

 Number of electrons in valence space:                     15
 Maximum number of open shell orbitals in reference space:  7
 Maximum number of open shell orbitals in internal spaces: 13


 Number of core orbitals:           1 (   1   0 )
 Number of closed-shell orbitals:   4 (   1   3 )
 Number of active  orbitals:        8 (   2   6 )
 Number of external orbitals:      62 (  29  33 )

 Molecular orbitals read from record     2140.2  Type=MCSCF/NATURAL (state averaged)

 Integral transformation finished. Total CPU:   0.02 sec, npass=  1  Memory used:   0.31 MW


 Number of p-space configurations:  30

 Reference wavefunction optimized for reference space (refopt=1)

 State     Reference Energy 
     1      -460.88719041
     2      -460.88719041
     3      -460.88719041

 ?WARNING: SMALL EIGENVALUE OF PAIR OVERLAP MATRIX:  0.1294D-06

 Number of blocks in overlap matrix:   118   Smallest eigenvalue:  0.12D-06
 Number of N-2 electron functions:     429
 Number of N-1 electron functions:  111168

 Number of internal configurations:                32480
 Number of singly external configurations:       3447264
 Number of doubly external configurations:        413712
 Total number of contracted configurations:      3893456
 Total number of uncontracted configurations:   95867684

 Diagonal Coupling coefficients finished.               Storage:  15013677 words, CPU-Time:      5.65 seconds.
 Energy denominators for pairs finished in 1 passes.    Storage:   3894136 words, CPU-time:      0.01 seconds.

  ITER. STATE  ROOT     SQ.NORM     CORR.ENERGY   TOTAL ENERGY   ENERGY CHANGE       DEN1      VAR(S)    VAR(P)      TIME
    1     1     1     1.00000000     0.00000000  -460.88719041    -0.00000000    -0.46174248  0.40D-01  0.37D-01     8.01
    1     2     2     1.00000000     0.00000000  -460.88719041    -0.00000000    -0.46166995  0.40D-01  0.37D-01     8.01
    1     3     3     1.00000000     0.00000000  -460.88719041     0.00000000    -0.46154486  0.40D-01  0.36D-01     8.01
    2     1     1     1.06658918    -0.43018284  -461.31737325    -0.43018284    -0.01150957  0.25D-02  0.13D-02    37.67
    2     2     2     1.06656312    -0.43013962  -461.31733003    -0.43013962    -0.01153343  0.25D-02  0.13D-02    37.67
    2     3     3     1.06651789    -0.43010138  -461.31729178    -0.43010138    -0.01154686  0.25D-02  0.13D-02    37.67
    3     1     1     1.06347522    -0.44165171  -461.32884212    -0.01146887    -0.00075691  0.48D-04  0.13D-03    66.95
    3     2     2     1.06345048    -0.44164158  -461.32883199    -0.01150196    -0.00076286  0.49D-04  0.13D-03    66.95
    3     3     3     1.06342395    -0.44163242  -461.32882282    -0.01153104    -0.00076859  0.49D-04  0.13D-03    66.95
    4     1     1     1.06775105    -0.44261727  -461.32980767    -0.00096556    -0.00006112  0.34D-05  0.10D-04    96.32
    4     2     2     1.06775083    -0.44261594  -461.32980634    -0.00097436    -0.00006185  0.35D-05  0.11D-04    96.32
    4     3     3     1.06774971    -0.44261473  -461.32980513    -0.00098231    -0.00006247  0.35D-05  0.11D-04    96.32
    5     1     1     1.06842428    -0.44269355  -461.32988395    -0.00007628    -0.00000634  0.39D-06  0.11D-05   125.29
    5     2     2     1.06842539    -0.44269320  -461.32988361    -0.00007727    -0.00000644  0.40D-06  0.11D-05   125.29
    5     3     3     1.06842628    -0.44269285  -461.32988326    -0.00007813    -0.00000655  0.41D-06  0.11D-05   125.29
    6     1     1     1.06826028    -0.44270120  -461.32989161    -0.00000766    -0.00000061  0.52D-07  0.92D-07   154.16
    6     2     2     1.06825929    -0.44270098  -461.32989139    -0.00000778    -0.00000062  0.52D-07  0.93D-07   154.16
    6     3     3     1.06825824    -0.44270077  -461.32989117    -0.00000791    -0.00000063  0.53D-07  0.95D-07   154.16
    7     1     1     1.06830287    -0.44270192  -461.32989232    -0.00000071    -0.00000007  0.52D-08  0.11D-07   182.84
    7     2     2     1.06830250    -0.44270171  -461.32989211    -0.00000072    -0.00000007  0.53D-08  0.11D-07   182.84
    7     3     3     1.06830222    -0.44270150  -461.32989191    -0.00000074    -0.00000007  0.54D-08  0.12D-07   182.84
    8     1     1     1.06831460    -0.44270200  -461.32989240    -0.00000008    -0.00000001  0.45D-09  0.15D-08   211.69
    8     2     2     1.06831435    -0.44270179  -461.32989220    -0.00000008    -0.00000001  0.46D-09  0.15D-08   211.69
    8     3     3     1.06831412    -0.44270159  -461.32989199    -0.00000008    -0.00000001  0.47D-09  0.15D-08   211.69
    9     1     1     1.06831541    -0.44270201  -461.32989241    -0.00000001    -0.00000000  0.82D-10  0.18D-09   240.49
    9     2     2     1.06831516    -0.44270180  -461.32989221    -0.00000001    -0.00000000  0.84D-10  0.18D-09   240.49
    9     3     3     1.06831491    -0.44270160  -461.32989200    -0.00000001    -0.00000000  0.86D-10  0.18D-09   240.49
   10     1     1     1.06831688    -0.44270201  -461.32989241    -0.00000000    -0.00000000  0.13D-10  0.21D-10   269.00
   10     2     2     1.06831665    -0.44270180  -461.32989221    -0.00000000    -0.00000000  0.13D-10  0.22D-10   269.00
   10     3     3     1.06831643    -0.44270160  -461.32989200    -0.00000000    -0.00000000  0.13D-10  0.22D-10   269.00
   11     1     1     1.06831710    -0.44270201  -461.32989241    -0.00000000    -0.00000000  0.12D-11  0.31D-11   297.44
   11     2     2     1.06831688    -0.44270180  -461.32989221    -0.00000000    -0.00000000  0.13D-11  0.32D-11   297.44
   11     3     3     1.06831666    -0.44270160  -461.32989200    -0.00000000    -0.00000000  0.13D-11  0.33D-11   297.44
   12     1     1     1.06831726    -0.44270201  -461.32989241    -0.00000000    -0.00000000  0.18D-12  0.45D-12   325.94
   12     2     2     1.06831703    -0.44270180  -461.32989221    -0.00000000    -0.00000000  0.19D-12  0.46D-12   325.94
   12     3     3     1.06831682    -0.44270160  -461.32989200    -0.00000000    -0.00000000  0.20D-12  0.47D-12   325.94
   13     1     1     1.06831732    -0.44270201  -461.32989241    -0.00000000    -0.00000000  0.33D-13  0.57D-13   354.43
   13     2     2     1.06831710    -0.44270180  -461.32989221    -0.00000000    -0.00000000  0.34D-13  0.58D-13   354.43
   13     3     3     1.06831689    -0.44270160  -461.32989200    -0.00000000    -0.00000000  0.34D-13  0.59D-13   354.43
   14     1     1     1.06831733    -0.44270201  -461.32989241    -0.00000000    -0.00000000  0.40D-14  0.83D-14   383.12
   14     2     2     1.06831711    -0.44270180  -461.32989221    -0.00000000    -0.00000000  0.41D-14  0.85D-14   383.12
   14     3     3     1.06831690    -0.44270160  -461.32989200     0.00000000    -0.00000000  0.42D-14  0.87D-14   383.12
   15     1     1     1.06831734    -0.44270201  -461.32989241    -0.00000000    -0.00000000  0.49D-15  0.13D-14   411.60
   15     2     2     1.06831712    -0.44270180  -461.32989221     0.00000000    -0.00000000  0.50D-15  0.13D-14   411.60
   15     3     3     1.06831691    -0.44270160  -461.32989200    -0.00000000    -0.00000000  0.52D-15  0.13D-14   411.60
   16     1     1     1.06831734    -0.44270201  -461.32989241     0.00000000    -0.00000000  0.84D-16  0.16D-15   439.84
   16     2     2     1.06831712    -0.44270180  -461.32989221     0.00000000    -0.00000000  0.86D-16  0.17D-15   439.84
   16     3     3     1.06831691    -0.44270160  -461.32989200     0.00000000    -0.00000000  0.88D-16  0.17D-15   439.84
   17     1     1     1.06831734    -0.44270201  -461.32989241    -0.00000000    -0.00000000  0.93D-17  0.21D-16   468.40
   17     2     2     1.06831712    -0.44270180  -461.32989221     0.00000000    -0.00000000  0.97D-17  0.22D-16   468.40
   17     3     3     1.06831691    -0.44270160  -461.32989200    -0.00000000    -0.00000000  0.10D-16  0.22D-16   468.40


 =====================================
 Analysis of CPU times by interactions
 =====================================

       I      S      P

 I   2.0%
 S   2.1%  12.4%
 P   0.9%  66.8%  11.9%

 Initialization:   1.3%
 Other:            2.6%

 Total CPU:      468.4 seconds
 =====================================



 Wavefunction saved on  5201.2

 Reference coefficients greater than 0.0500000
 =============================================
 220222/22000          -0.0002208  -0.0000216   0.9598511
 2202222/2000          -0.0000434   0.9598510   0.0000216
 22022222/000           0.9598509   0.0000434   0.0002208
 220222//2\00           0.0000030  -0.0664406  -0.0000015
 220222/2/\00          -0.0664405  -0.0000030  -0.0000153
 220222//20\0          -0.0000153  -0.0000015   0.0664405
 2202222//0\0          -0.0664403  -0.0000030  -0.0000153
 220222/2/00\          -0.0000153  -0.0000015   0.0664402
 2202222//00\          -0.0000030   0.0664401   0.0000015

 Coefficients of fixed reference functions:
 ==========================================

 State      Coefficients
 1           0.966842   -0.000044   -0.000222
 2           0.000044    0.966842   -0.000022
 3           0.000222    0.000022    0.966842

 Coefficients of rotated reference functions:
 ============================================

 State      Coefficients
 1           0.966842    0.000000    0.000000
 2           0.000000    0.966842    0.000000
 3           0.000000    0.000000    0.966842


 RESULTS FOR STATE 1.2
 =====================

 Coefficient of reference function:   C(0) = 0.96684171 (fixed)   0.96747788 (relaxed)   0.96684174 (rotated)

 Energy contributions of configuration classes

 CLASS          SQ.NORM        ECORR1        ECORR2
 +++++++++++++++++++++++++++++++++++++++++++++++++++
 Internals    0.00135701   -0.00057664   -0.34957129
 Singles      0.02320303   -0.06942863   -0.07450282
 Pairs        0.04520702    0.00008572   -0.01862790
 Total        1.06976706   -0.06991956   -0.44270201
 +++++++++++++++++++++++++++++++++++++++++++++++++++


 Reference energy                    -460.88719041
 Nuclear energy                         0.00000000
 Kinetic energy                       469.94972390
 One electron energy                 -636.63155999
 Two electron energy                  175.30166758
 Virial quotient                       -0.98165797
 Correlation energy                    -0.44270201
 !MRCI STATE 1.2 Energy              -461.329892413211

 Properties without orbital relaxation:

 !MRCI STATE 1.2 Dipole moment          0.00000000     0.00000000     0.00000000
 Dipole moment /Debye                   0.00000000     0.00000000     0.00000000

 Cluster corrected energies          -461.36077843 (Davidson, fixed reference)
 Cluster corrected energies          -461.36015584 (Davidson, relaxed reference)
 Cluster corrected energies          -461.36077843 (Davidson, rotated reference)

 Cluster corrected energies          -461.35773625 (Pople, fixed reference)
 Cluster corrected energies          -461.35714692 (Pople, relaxed reference)
 Cluster corrected energies          -461.35773625 (Pople, rotated reference)



 RESULTS FOR STATE 2.2
 =====================

 Coefficient of reference function:   C(0) = 0.96684182 (fixed)   0.96747798 (relaxed)   0.96684182 (rotated)

 Energy contributions of configuration classes

 CLASS          SQ.NORM        ECORR1        ECORR2
 +++++++++++++++++++++++++++++++++++++++++++++++++++
 Internals    0.00135703   -0.00057664   -0.34949904
 Singles      0.02320288   -0.06942844   -0.07450259
 Pairs        0.04520695    0.00000838   -0.01870017
 Total        1.06976686   -0.06999671   -0.44270180
 +++++++++++++++++++++++++++++++++++++++++++++++++++


 Reference energy                    -460.88719041
 Nuclear energy                         0.00000000
 Kinetic energy                       469.94972421
 One electron energy                 -636.63156168
 Two electron energy                  175.30166947
 Virial quotient                       -0.98165797
 Correlation energy                    -0.44270180
 !MRCI STATE 2.2 Energy              -461.329892206800

 Properties without orbital relaxation:

 !MRCI STATE 2.2 Dipole moment          0.00000000     0.00000000     0.00000000
 Dipole moment /Debye                   0.00000000     0.00000000     0.00000000

 Cluster corrected energies          -461.36077812 (Davidson, fixed reference)
 Cluster corrected energies          -461.36015552 (Davidson, relaxed reference)
 Cluster corrected energies          -461.36077812 (Davidson, rotated reference)

 Cluster corrected energies          -461.35773595 (Pople, fixed reference)
 Cluster corrected energies          -461.35714661 (Pople, relaxed reference)
 Cluster corrected energies          -461.35773595 (Pople, rotated reference)



 RESULTS FOR STATE 3.2
 =====================

 Coefficient of reference function:   C(0) = 0.96684188 (fixed)   0.96747807 (relaxed)   0.96684191 (rotated)

 Energy contributions of configuration classes

 CLASS          SQ.NORM        ECORR1        ECORR2
 +++++++++++++++++++++++++++++++++++++++++++++++++++
 Internals    0.00135705   -0.00057664   -0.00110064
 Singles      0.02320274   -0.06942825   -0.07450236
 Pairs        0.04520688   -0.37269669   -0.36709860
 Total        1.06976667   -0.44270159   -0.44270160
 +++++++++++++++++++++++++++++++++++++++++++++++++++


 Reference energy                    -460.88719041
 Nuclear energy                         0.00000000
 Kinetic energy                       469.94972457
 One electron energy                 -636.63156333
 Two electron energy                  175.30167132
 Virial quotient                       -0.98165797
 Correlation energy                    -0.44270160
 !MRCI STATE 3.2 Energy              -461.329892004875

 Properties without orbital relaxation:

 !MRCI STATE 3.2 Dipole moment          0.00000000     0.00000000     0.00000000
 Dipole moment /Debye                   0.00000000     0.00000000     0.00000000

 Cluster corrected energies          -461.36077782 (Davidson, fixed reference)
 Cluster corrected energies          -461.36015521 (Davidson, relaxed reference)
 Cluster corrected energies          -461.36077782 (Davidson, rotated reference)

 Cluster corrected energies          -461.35773565 (Pople, fixed reference)
 Cluster corrected energies          -461.35714631 (Pople, relaxed reference)
 Cluster corrected energies          -461.35773565 (Pople, rotated reference)



 **********************************************************************************************************************************
 DATASETS  * FILE   NREC   LENGTH (MB)   RECORD NAMES
              1      24       31.88       500      610      700      900      950      970     1000      129      960     1700   
                                          VAR    BASINP    GEOM    SYMINP    ZMAT    AOBASIS   BASIS     P2S    ABASIS    OPER   
                                         1101     1401     1411     1412     1650     1100     1400     1410     1200     1210   
                                          SR      EKINR    POTR     PVPR    MOLCAS      S      EKIN      POT      H0       H01  
                                         1080     1600     1380     1700(1)
                                         AOSYM     SMH     JKOP     OPER   

              2       6       91.74       700     1000      520     2100     2140     5201   
                                         GEOM     BASIS   MCVARS     RHF     MCSCF    MRCI   

 PROGRAMS   *        TOTAL        CI     MULTI   RHF-SCF       INT
 CPU TIMES  *       483.89    479.21      3.77      0.21      0.43
 REAL TIME  *       501.41 SEC
 DISK USED  *       123.70 MB (local),        1.50 GB (total)
 SF USED    *      1009.03 MB
 GA USED    *         0.00 MB       (max)       0.00 MB       (current)
 **********************************************************************************************************************************
 SETTING HLSDIAG(1)     =      -461.36077843  AU                              
 SETTING HLSDIAG(2)     =      -461.36077812  AU                              
 SETTING HLSDIAG(3)     =      -461.36077782  AU                              


 PROGRAM * CI (Multireference internally contracted CI)     Authors: H.-J. Werner, P.J. Knowles, 1987


 Convergence thresholds:  THRVAR = 1.00D-16  THRDEN = 1.00D-10

 Number of optimized states: 8  Roots:    1   2   3   4   5   6   7   8
 Number of reference states: 8  Roots:    1   2   3   4   5   6   7   8

 Reference symmetry:                   2   Quartet 
 Number of electrons:                 17
 Maximum number of shells:             6
 Maximum number of spin couplings:   572

 Reference space:      344 conf      656 CSFs
 N elec internal:    13744 conf    50364 CSFs
 N-1 el internal:    13962 conf    97722 CSFs
 N-2 el internal:     6604 conf    88800 CSFs

 Number of electrons in valence space:                     15
 Maximum number of open shell orbitals in reference space:  7
 Maximum number of open shell orbitals in internal spaces: 13


 Number of core orbitals:           1 (   1   0 )
 Number of closed-shell orbitals:   4 (   1   3 )
 Number of active  orbitals:        8 (   2   6 )
 Number of external orbitals:      62 (  29  33 )

 Molecular orbitals read from record     2140.2  Type=MCSCF/NATURAL (state averaged)

 Coulomb and exchange operators available. No transformation done.


 Number of p-space configurations:   9

 Reference wavefunction optimized for reference space (refopt=1)

 State     Reference Energy 
     1      -460.53860202
     2      -460.53860202
     3      -460.53860202
     4      -460.52782324
     5      -460.52782324
     6      -460.52782324
     7      -460.52782324
     8      -460.52782324

 ?WARNING: SMALL EIGENVALUE OF PAIR OVERLAP MATRIX:  0.1552D-06

 Number of blocks in overlap matrix:   172   Smallest eigenvalue:  0.16D-06
 Number of N-2 electron functions:    1089
 Number of N-1 electron functions:   97722

 Number of internal configurations:                25102
 Number of singly external configurations:       3030270
 Number of doubly external configurations:       1048452
 Total number of contracted configurations:      4103824
 Total number of uncontracted configurations:   87762772

 Diagonal Coupling coefficients finished.               Storage:  22381467 words, CPU-Time:     19.38 seconds.
 Energy denominators for pairs finished in 1 passes.    Storage:   6479239 words, CPU-time:      0.04 seconds.

  ITER. STATE  ROOT     SQ.NORM     CORR.ENERGY   TOTAL ENERGY   ENERGY CHANGE       DEN1      VAR(S)    VAR(P)      TIME
    1     1     1     1.00000000     0.00000000  -460.53860202    -0.00000000    -0.43192994  0.37D-01  0.29D-01    23.93
    1     2     2     1.00000000     0.00000000  -460.53860202     0.00000000    -0.43219789  0.37D-01  0.29D-01    23.93
    1     3     3     1.00000000     0.00000000  -460.53860202     0.00000000    -0.43225436  0.37D-01  0.29D-01    23.93
    1     4     4     1.00000000     0.00000000  -460.52782324    -0.00000000    -0.43461686  0.39D-01  0.30D-01    23.93
    1     5     5     1.00000000     0.00000000  -460.52782324     0.00000000    -0.43461920  0.39D-01  0.29D-01    23.93
    1     6     6     1.00000000     0.00000000  -460.52782324    -0.00000000    -0.43466772  0.39D-01  0.29D-01    23.93
    1     7     7     1.00000000     0.00000000  -460.52782324     0.00000000    -0.43878373  0.39D-01  0.32D-01    23.93
    1     8     8     1.00000000     0.00000000  -460.52782324     0.00000000    -0.43468860  0.39D-01  0.29D-01    23.93
    2     1     1     1.05848009    -0.40575593  -460.94435795    -0.40575593    -0.00846810  0.13D-02  0.10D-02   114.80
    2     2     2     1.05844907    -0.40575297  -460.94435499    -0.40575297    -0.00845598  0.13D-02  0.10D-02   114.80
    2     3     3     1.05832470    -0.40571936  -460.94432137    -0.40571936    -0.00844063  0.13D-02  0.11D-02   114.80
    2     4     4     1.06134593    -0.40774033  -460.93556357    -0.40774033    -0.00891821  0.14D-02  0.11D-02   114.80
    2     5     5     1.05985040    -0.40761931  -460.93544255    -0.40761931    -0.00874951  0.15D-02  0.11D-02   114.80
    2     6     6     1.05995034    -0.40729883  -460.93512207    -0.40729883    -0.00896415  0.16D-02  0.11D-02   114.80
    2     7     7     1.06002767    -0.40727491  -460.93509816    -0.40727491    -0.00899646  0.16D-02  0.11D-02   114.80
    2     8     8     1.06001995    -0.40726447  -460.93508771    -0.40726447    -0.00900485  0.16D-02  0.11D-02   114.80
    3     1     1     1.05538204    -0.41492761  -460.95352963    -0.00917168    -0.00073029  0.45D-04  0.12D-03   204.50
    3     2     2     1.05537428    -0.41492528  -460.95352730    -0.00917231    -0.00073194  0.45D-04  0.12D-03   204.50
    3     3     3     1.05533444    -0.41490966  -460.95351167    -0.00919030    -0.00074047  0.45D-04  0.12D-03   204.50
    3     4     4     1.05671077    -0.41706200  -460.94488525    -0.00932168    -0.00068576  0.53D-04  0.12D-03   204.50
    3     5     5     1.05649957    -0.41699307  -460.94481631    -0.00937376    -0.00074072  0.58D-04  0.12D-03   204.50
    3     6     6     1.05635317    -0.41689202  -460.94471526    -0.00959319    -0.00079007  0.62D-04  0.13D-03   204.50
    3     7     7     1.05634489    -0.41689114  -460.94471439    -0.00961623    -0.00078981  0.62D-04  0.13D-03   204.50
    3     8     8     1.05634676    -0.41689020  -460.94471344    -0.00962573    -0.00079180  0.62D-04  0.13D-03   204.50
    4     1     1     1.05992816    -0.41599039  -460.95459241    -0.00106278    -0.00007198  0.38D-05  0.11D-04   294.29
    4     2     2     1.05992700    -0.41599020  -460.95459222    -0.00106491    -0.00007207  0.38D-05  0.11D-04   294.29
    4     3     3     1.05993692    -0.41598942  -460.95459144    -0.00107976    -0.00007263  0.38D-05  0.11D-04   294.29
    4     4     4     1.06103385    -0.41806415  -460.94588739    -0.00100214    -0.00007174  0.45D-05  0.11D-04   294.29
    4     5     5     1.06109040    -0.41805999  -460.94588323    -0.00106692    -0.00007453  0.46D-05  0.12D-04   294.29
    4     6     6     1.06107981    -0.41804542  -460.94586866    -0.00115340    -0.00008495  0.53D-05  0.13D-04   294.29
    4     7     7     1.06107419    -0.41804536  -460.94586861    -0.00115422    -0.00008477  0.53D-05  0.13D-04   294.29
    4     8     8     1.06107256    -0.41804530  -460.94586855    -0.00115510    -0.00008487  0.54D-05  0.13D-04   294.29
    5     1     1     1.06013629    -0.41608542  -460.95468744    -0.00009503    -0.00000820  0.75D-06  0.12D-05   385.37
    5     2     2     1.06013723    -0.41608540  -460.95468742    -0.00009520    -0.00000821  0.76D-06  0.12D-05   385.37
    5     3     3     1.06013234    -0.41608539  -460.95468741    -0.00009597    -0.00000826  0.76D-06  0.12D-05   385.37
    5     4     4     1.06140351    -0.41815719  -460.94598043    -0.00009304    -0.00000866  0.92D-06  0.12D-05   385.37
    5     5     5     1.06139972    -0.41815716  -460.94598040    -0.00009717    -0.00000874  0.94D-06  0.13D-05   385.37
    5     6     6     1.06139591    -0.41815602  -460.94597927    -0.00011060    -0.00001007  0.11D-05  0.14D-05   385.37
    5     7     7     1.06139743    -0.41815589  -460.94597913    -0.00011053    -0.00001005  0.11D-05  0.14D-05   385.37
    5     8     8     1.06139753    -0.41815582  -460.94597907    -0.00011052    -0.00001010  0.11D-05  0.14D-05   385.37
    6     1     1     1.05994567    -0.41609542  -460.95469743    -0.00000999    -0.00000098  0.75D-07  0.15D-06   476.54
    6     2     2     1.05994725    -0.41609539  -460.95469741    -0.00000999    -0.00000098  0.74D-07  0.15D-06   476.54
    6     3     3     1.05994725    -0.41609539  -460.95469740    -0.00001000    -0.00000098  0.74D-07  0.15D-06   476.54
    6     4     4     1.06118406    -0.41816830  -460.94599155    -0.00001111    -0.00000122  0.92D-07  0.18D-06   476.54
    6     5     5     1.06119344    -0.41816822  -460.94599146    -0.00001106    -0.00000115  0.84D-07  0.17D-06   476.54
    6     6     6     1.06118497    -0.41816817  -460.94599141    -0.00001215    -0.00000122  0.92D-07  0.18D-06   476.54
    6     7     7     1.06118476    -0.41816816  -460.94599140    -0.00001227    -0.00000123  0.93D-07  0.18D-06   476.54
    6     8     8     1.06120374    -0.41816792  -460.94599116    -0.00001210    -0.00000118  0.82D-07  0.18D-06   476.54
    7     1     1     1.06003329    -0.41609668  -460.95469870    -0.00000126    -0.00000017  0.11D-07  0.26D-07   566.95
    7     2     2     1.06003303    -0.41609665  -460.95469867    -0.00000126    -0.00000017  0.11D-07  0.26D-07   566.95
    7     3     3     1.06003319    -0.41609665  -460.95469867    -0.00000126    -0.00000017  0.11D-07  0.26D-07   566.95
    7     4     4     1.06129239    -0.41816990  -460.94599315    -0.00000160    -0.00000022  0.16D-07  0.33D-07   566.95
    7     5     5     1.06129234    -0.41816977  -460.94599302    -0.00000156    -0.00000022  0.16D-07  0.33D-07   566.95
    7     6     6     1.06129248    -0.41816977  -460.94599301    -0.00000160    -0.00000022  0.16D-07  0.33D-07   566.95
    7     7     7     1.06129645    -0.41816974  -460.94599298    -0.00000157    -0.00000022  0.14D-07  0.34D-07   566.95
    7     8     8     1.06129597    -0.41816950  -460.94599274    -0.00000158    -0.00000022  0.15D-07  0.33D-07   566.95
    8     1     1     1.06005166    -0.41609691  -460.95469893    -0.00000023    -0.00000004  0.31D-08  0.52D-08   656.05
    8     2     2     1.06005153    -0.41609688  -460.95469890    -0.00000023    -0.00000004  0.31D-08  0.52D-08   656.05
    8     3     3     1.06005153    -0.41609688  -460.95469890    -0.00000023    -0.00000004  0.31D-08  0.52D-08   656.05
    8     4     4     1.06131370    -0.41817019  -460.94599344    -0.00000029    -0.00000005  0.62D-08  0.58D-08   656.05
    8     5     5     1.06131322    -0.41817006  -460.94599331    -0.00000029    -0.00000005  0.61D-08  0.59D-08   656.05
    8     6     6     1.06131326    -0.41817006  -460.94599330    -0.00000029    -0.00000005  0.60D-08  0.59D-08   656.05
    8     7     7     1.06131476    -0.41817001  -460.94599326    -0.00000028    -0.00000005  0.54D-08  0.72D-08   656.05
    8     8     8     1.06131302    -0.41816978  -460.94599302    -0.00000028    -0.00000004  0.55D-08  0.60D-08   656.05
    9     1     1     1.06004622    -0.41609696  -460.95469897    -0.00000005    -0.00000001  0.77D-09  0.10D-08   745.81
    9     2     2     1.06004621    -0.41609693  -460.95469894    -0.00000004    -0.00000001  0.76D-09  0.10D-08   745.81
    9     3     3     1.06004618    -0.41609692  -460.95469894    -0.00000004    -0.00000001  0.76D-09  0.10D-08   745.81
    9     4     4     1.06131005    -0.41817025  -460.94599349    -0.00000005    -0.00000001  0.79D-09  0.13D-08   745.81
    9     5     5     1.06130980    -0.41817012  -460.94599336    -0.00000005    -0.00000001  0.79D-09  0.13D-08   745.81
    9     6     6     1.06130979    -0.41817011  -460.94599336    -0.00000005    -0.00000001  0.78D-09  0.13D-08   745.81
    9     7     7     1.06131004    -0.41817007  -460.94599331    -0.00000005    -0.00000001  0.67D-09  0.18D-08   745.81
    9     8     8     1.06130956    -0.41816983  -460.94599307    -0.00000005    -0.00000001  0.75D-09  0.14D-08   745.81
   10     1     1     1.06004873    -0.41609697  -460.95469898    -0.00000001    -0.00000000  0.13D-09  0.27D-09   835.95
   10     2     2     1.06004869    -0.41609694  -460.95469895    -0.00000001    -0.00000000  0.13D-09  0.26D-09   835.95
   10     3     3     1.06004868    -0.41609693  -460.95469895    -0.00000001    -0.00000000  0.13D-09  0.27D-09   835.95
   10     4     4     1.06131414    -0.41817026  -460.94599350    -0.00000001    -0.00000000  0.16D-09  0.31D-09   835.95
   10     5     5     1.06131397    -0.41817013  -460.94599337    -0.00000001    -0.00000000  0.17D-09  0.32D-09   835.95
   10     6     6     1.06131396    -0.41817012  -460.94599337    -0.00000001    -0.00000000  0.16D-09  0.33D-09   835.95
   10     7     7     1.06131340    -0.41817008  -460.94599332    -0.00000001    -0.00000000  0.17D-09  0.48D-09   835.95
   10     8     8     1.06131366    -0.41816984  -460.94599308    -0.00000001    -0.00000000  0.17D-09  0.34D-09   835.95
   11     1     1     1.06004926    -0.41609697  -460.95469899    -0.00000000    -0.00000000  0.33D-10  0.73D-10   925.29
   11     2     2     1.06004921    -0.41609694  -460.95469896    -0.00000000    -0.00000000  0.32D-10  0.69D-10   925.29
   11     3     3     1.06004920    -0.41609693  -460.95469895    -0.00000000    -0.00000000  0.33D-10  0.70D-10   925.29
   11     4     4     1.06131465    -0.41817026  -460.94599351    -0.00000000    -0.00000000  0.69D-10  0.73D-10   925.29
   11     5     5     1.06131449    -0.41817013  -460.94599337    -0.00000000    -0.00000000  0.71D-10  0.79D-10   925.29
   11     6     6     1.06131449    -0.41817013  -460.94599337    -0.00000000    -0.00000000  0.71D-10  0.80D-10   925.29
   11     7     7     1.06131461    -0.41817008  -460.94599333    -0.00000000    -0.00000000  0.92D-10  0.10D-09   925.29
   11     8     8     1.06131424    -0.41816984  -460.94599309    -0.00000000    -0.00000000  0.68D-10  0.85D-10   925.29
   12     1     1     1.06004908    -0.41609697  -460.95469899    -0.00000000    -0.00000000  0.10D-10  0.15D-10  1014.71
   12     2     2     1.06004906    -0.41609694  -460.95469896    -0.00000000    -0.00000000  0.99D-11  0.15D-10  1014.71
   12     3     3     1.06004906    -0.41609694  -460.95469895    -0.00000000    -0.00000000  0.10D-10  0.15D-10  1014.71
   12     4     4     1.06131486    -0.41817026  -460.94599351    -0.00000000    -0.00000000  0.14D-10  0.19D-10  1014.71
   12     5     5     1.06131468    -0.41817013  -460.94599337    -0.00000000    -0.00000000  0.14D-10  0.20D-10  1014.71
   12     6     6     1.06131467    -0.41817013  -460.94599337    -0.00000000    -0.00000000  0.14D-10  0.20D-10  1014.71
   12     7     7     1.06131459    -0.41817008  -460.94599333    -0.00000000    -0.00000000  0.15D-10  0.27D-10  1014.71
   12     8     8     1.06131443    -0.41816984  -460.94599309    -0.00000000    -0.00000000  0.14D-10  0.22D-10  1014.71
   13     1     1     1.06004925    -0.41609697  -460.95469899    -0.00000000    -0.00000000  0.19D-11  0.36D-11  1103.81
   13     2     2     1.06004922    -0.41609694  -460.95469896    -0.00000000    -0.00000000  0.19D-11  0.34D-11  1103.81
   13     3     3     1.06004922    -0.41609694  -460.95469895    -0.00000000    -0.00000000  0.20D-11  0.34D-11  1103.81
   13     4     4     1.06131518    -0.41817026  -460.94599351    -0.00000000    -0.00000000  0.32D-11  0.52D-11  1103.81
   13     5     5     1.06131502    -0.41817013  -460.94599337    -0.00000000    -0.00000000  0.34D-11  0.56D-11  1103.81
   13     6     6     1.06131502    -0.41817013  -460.94599337    -0.00000000    -0.00000000  0.33D-11  0.56D-11  1103.81
   13     7     7     1.06131499    -0.41817008  -460.94599333    -0.00000000    -0.00000000  0.28D-11  0.12D-10  1103.81
   13     8     8     1.06131479    -0.41816984  -460.94599309    -0.00000000    -0.00000000  0.34D-11  0.64D-11  1103.81
   14     1     1     1.06004927    -0.41609697  -460.95469899    -0.00000000    -0.00000000  0.48D-12  0.10D-11  1193.37
   14     2     2     1.06004924    -0.41609694  -460.95469896    -0.00000000    -0.00000000  0.46D-12  0.97D-12  1193.37
   14     3     3     1.06004924    -0.41609694  -460.95469895    -0.00000000    -0.00000000  0.46D-12  0.99D-12  1193.37
   14     4     4     1.06131514    -0.41817026  -460.94599351    -0.00000000    -0.00000000  0.13D-11  0.15D-11  1193.37
   14     5     5     1.06131498    -0.41817013  -460.94599337    -0.00000000    -0.00000000  0.14D-11  0.16D-11  1193.37
   14     6     6     1.06131497    -0.41817013  -460.94599337    -0.00000000    -0.00000000  0.14D-11  0.17D-11  1193.37
   14     7     7     1.06131504    -0.41817008  -460.94599333    -0.00000000    -0.00000000  0.15D-11  0.38D-11  1193.37
   14     8     8     1.06131475    -0.41816984  -460.94599309    -0.00000000    -0.00000000  0.14D-11  0.18D-11  1193.37
   15     1     1     1.06004928    -0.41609697  -460.95469899    -0.00000000    -0.00000000  0.12D-12  0.28D-12  1281.87
   15     2     2     1.06004926    -0.41609694  -460.95469896    -0.00000000    -0.00000000  0.11D-12  0.27D-12  1281.87
   15     3     3     1.06004925    -0.41609694  -460.95469895    -0.00000000    -0.00000000  0.11D-12  0.28D-12  1281.87
   15     4     4     1.06131520    -0.41817026  -460.94599351    -0.00000000    -0.00000000  0.31D-12  0.43D-12  1281.87
   15     5     5     1.06131503    -0.41817013  -460.94599337    -0.00000000    -0.00000000  0.31D-12  0.50D-12  1281.87
   15     6     6     1.06131502    -0.41817013  -460.94599337    -0.00000000    -0.00000000  0.30D-12  0.52D-12  1281.87
   15     7     7     1.06131502    -0.41817008  -460.94599333    -0.00000000    -0.00000000  0.43D-12  0.87D-12  1281.87
   15     8     8     1.06131480    -0.41816984  -460.94599309    -0.00000000    -0.00000000  0.30D-12  0.55D-12  1281.87
   16     1     1     1.06004930    -0.41609697  -460.95469899    -0.00000000    -0.00000000  0.28D-13  0.76D-13  1371.12
   16     2     2     1.06004927    -0.41609694  -460.95469896    -0.00000000    -0.00000000  0.28D-13  0.68D-13  1371.12
   16     3     3     1.06004927    -0.41609694  -460.95469895    -0.00000000    -0.00000000  0.30D-13  0.69D-13  1371.12
   16     4     4     1.06131523    -0.41817026  -460.94599351    -0.00000000    -0.00000000  0.76D-13  0.13D-12  1371.12
   16     5     5     1.06131507    -0.41817013  -460.94599337    -0.00000000    -0.00000000  0.77D-13  0.16D-12  1371.12
   16     6     6     1.06131507    -0.41817013  -460.94599337    -0.00000000    -0.00000000  0.77D-13  0.16D-12  1371.12
   16     7     7     1.06131510    -0.41817008  -460.94599333    -0.00000000    -0.00000000  0.92D-13  0.39D-12  1371.12
   16     8     8     1.06131485    -0.41816984  -460.94599309    -0.00000000    -0.00000000  0.71D-13  0.21D-12  1371.12
   17     1     1     1.06004930    -0.41609697  -460.95469899    -0.00000000    -0.00000000  0.74D-14  0.23D-13  1459.74
   17     2     2     1.06004927    -0.41609694  -460.95469896    -0.00000000    -0.00000000  0.74D-14  0.19D-13  1459.74
   17     3     3     1.06004927    -0.41609694  -460.95469895    -0.00000000    -0.00000000  0.78D-14  0.18D-13  1459.74
   17     4     4     1.06131522    -0.41817026  -460.94599351    -0.00000000    -0.00000000  0.30D-13  0.36D-13  1459.74
   17     5     5     1.06131506    -0.41817013  -460.94599337    -0.00000000    -0.00000000  0.34D-13  0.45D-13  1459.74
   17     6     6     1.06131506    -0.41817013  -460.94599337    -0.00000000    -0.00000000  0.35D-13  0.46D-13  1459.74
   17     7     7     1.06131510    -0.41817008  -460.94599333    -0.00000000    -0.00000000  0.30D-13  0.16D-12  1459.74
   17     8     8     1.06131484    -0.41816984  -460.94599309    -0.00000000    -0.00000000  0.35D-13  0.61D-13  1459.74
   18     1     1     1.06004930    -0.41609697  -460.95469899    -0.00000000    -0.00000000  0.22D-14  0.55D-14  1550.21
   18     2     2     1.06004928    -0.41609694  -460.95469896    -0.00000000    -0.00000000  0.19D-14  0.48D-14  1550.21
   18     3     3     1.06004927    -0.41609694  -460.95469895    -0.00000000    -0.00000000  0.18D-14  0.50D-14  1550.21
   18     4     4     1.06131523    -0.41817026  -460.94599351    -0.00000000    -0.00000000  0.77D-14  0.11D-13  1550.21
   18     5     5     1.06131507    -0.41817013  -460.94599337    -0.00000000    -0.00000000  0.83D-14  0.13D-13  1550.21
   18     6     6     1.06131506    -0.41817013  -460.94599337    -0.00000000    -0.00000000  0.80D-14  0.14D-13  1550.21
   18     7     7     1.06131509    -0.41817008  -460.94599333    -0.00000000    -0.00000000  0.14D-13  0.41D-13  1550.21
   18     8     8     1.06131484    -0.41816984  -460.94599309    -0.00000000    -0.00000000  0.92D-14  0.16D-13  1550.21
   19     1     1     1.06004930    -0.41609697  -460.95469899     0.00000000    -0.00000000  0.50D-15  0.14D-14  1640.69
   19     2     2     1.06004928    -0.41609694  -460.95469896     0.00000000    -0.00000000  0.42D-15  0.13D-14  1640.69
   19     3     3     1.06004927    -0.41609694  -460.95469895    -0.00000000    -0.00000000  0.41D-15  0.15D-14  1640.69
   19     4     4     1.06131523    -0.41817026  -460.94599351     0.00000000    -0.00000000  0.17D-14  0.35D-14  1640.69
   19     5     5     1.06131507    -0.41817013  -460.94599337     0.00000000    -0.00000000  0.17D-14  0.48D-14  1640.69
   19     6     6     1.06131507    -0.41817013  -460.94599337    -0.00000000    -0.00000000  0.16D-14  0.53D-14  1640.69
   19     7     7     1.06131510    -0.41817008  -460.94599333    -0.00000000    -0.00000000  0.29D-14  0.16D-13  1640.69
   19     8     8     1.06131485    -0.41816984  -460.94599309    -0.00000000    -0.00000000  0.19D-14  0.61D-14  1640.69
   20     1     1     1.06004931    -0.41609697  -460.95469899    -0.00000000    -0.00000000  0.81D-16  0.55D-15  1728.28
   20     2     2     1.06004928    -0.41609694  -460.95469896    -0.00000000    -0.00000000  0.86D-16  0.43D-15  1728.28
   20     3     3     1.06004927    -0.41609694  -460.95469895    -0.00000000    -0.00000000  0.10D-15  0.44D-15  1728.28
   20     4     4     1.06131523    -0.41817026  -460.94599351    -0.00000000    -0.00000000  0.61D-15  0.95D-15  1728.28
   20     5     5     1.06131507    -0.41817013  -460.94599337    -0.00000000    -0.00000000  0.64D-15  0.16D-14  1728.28
   20     6     6     1.06131507    -0.41817013  -460.94599337     0.00000000    -0.00000000  0.68D-15  0.17D-14  1728.28
   20     7     7     1.06131511    -0.41817008  -460.94599333    -0.00000000    -0.00000000  0.92D-15  0.73D-14  1728.28
   20     8     8     1.06131485    -0.41816984  -460.94599309     0.00000000    -0.00000000  0.62D-15  0.25D-14  1728.28
   21     1     1     1.06004931    -0.41609697  -460.95469899    -0.00000000    -0.00000000  0.37D-16  0.14D-15  1817.16
   21     2     2     1.06004928    -0.41609694  -460.95469896    -0.00000000    -0.00000000  0.31D-16  0.97D-16  1817.16
   21     3     3     1.06004927    -0.41609694  -460.95469895     0.00000000    -0.00000000  0.30D-16  0.99D-16  1817.16
   21     4     4     1.06131523    -0.41817026  -460.94599351     0.00000000    -0.00000000  0.19D-15  0.27D-15  1817.16
   21     5     5     1.06131507    -0.41817013  -460.94599337     0.00000000    -0.00000000  0.21D-15  0.42D-15  1817.16
   21     6     6     1.06131507    -0.41817013  -460.94599337     0.00000000    -0.00000000  0.21D-15  0.44D-15  1817.16
   21     7     7     1.06131511    -0.41817008  -460.94599333     0.00000000    -0.00000000  0.48D-15  0.23D-14  1817.16
   21     8     8     1.06131485    -0.41816984  -460.94599309    -0.00000000    -0.00000000  0.24D-15  0.66D-15  1817.16
   22     1     1     1.06004931    -0.41609697  -460.95469899     0.00000000    -0.00000000  0.78D-17  0.29D-16  1907.42
   22     2     2     1.06004928    -0.41609694  -460.95469896    -0.00000000    -0.00000000  0.49D-17  0.25D-16  1907.42
   22     3     3     1.06004927    -0.41609694  -460.95469895    -0.00000000    -0.00000000  0.46D-17  0.28D-16  1907.42
   22     4     4     1.06131523    -0.41817026  -460.94599351    -0.00000000    -0.00000000  0.38D-16  0.79D-16  1907.42
   22     5     5     1.06131507    -0.41817013  -460.94599337    -0.00000000    -0.00000000  0.35D-16  0.13D-15  1907.42
   22     6     6     1.06131507    -0.41817013  -460.94599337    -0.00000000    -0.00000000  0.30D-16  0.16D-15  1907.42
   22     7     7     1.06131511    -0.41817008  -460.94599333     0.00000000    -0.00000000  0.82D-16  0.68D-15  1907.42
   22     8     8     1.06131485    -0.41816984  -460.94599309     0.00000000    -0.00000000  0.51D-16  0.19D-15  1907.42
   23     1     1     1.06004931    -0.41609697  -460.95469899    -0.00000000    -0.00000000  0.77D-17  0.29D-16  1982.14
   23     2     2     1.06004928    -0.41609694  -460.95469896     0.00000000    -0.00000000  0.46D-17  0.23D-16  1982.14
   23     3     3     1.06004927    -0.41609694  -460.95469895    -0.00000000    -0.00000000  0.49D-17  0.22D-16  1982.14
   23     4     4     1.06131523    -0.41817026  -460.94599351    -0.00000000    -0.00000000  0.64D-17  0.27D-16  1982.14
   23     5     5     1.06131507    -0.41817013  -460.94599337     0.00000000    -0.00000000  0.75D-17  0.61D-16  1982.14
   23     6     6     1.06131507    -0.41817013  -460.94599337     0.00000000    -0.00000000  0.11D-16  0.53D-16  1982.14
   23     7     7     1.06131511    -0.41817008  -460.94599333    -0.00000000    -0.00000000  0.45D-16  0.14D-15  1982.14
   23     8     8     1.06131485    -0.41816984  -460.94599309    -0.00000000    -0.00000000  0.11D-16  0.50D-16  1982.14
   24     1     1     1.06004931    -0.41609697  -460.95469899     0.00000000    -0.00000000  0.77D-17  0.29D-16  2038.45
   24     2     2     1.06004928    -0.41609694  -460.95469896    -0.00000000    -0.00000000  0.46D-17  0.23D-16  2038.45
   24     3     3     1.06004927    -0.41609694  -460.95469895     0.00000000    -0.00000000  0.49D-17  0.22D-16  2038.45
   24     4     4     1.06131523    -0.41817026  -460.94599351     0.00000000    -0.00000000  0.64D-17  0.27D-16  2038.45
   24     5     5     1.06131507    -0.41817013  -460.94599337    -0.00000000    -0.00000000  0.75D-17  0.61D-16  2038.45
   24     6     6     1.06131507    -0.41817013  -460.94599337     0.00000000    -0.00000000  0.11D-16  0.53D-16  2038.45
   24     7     7     1.06131511    -0.41817008  -460.94599333     0.00000000    -0.00000000  0.22D-17  0.14D-16  2038.45
   24     8     8     1.06131485    -0.41816984  -460.94599309     0.00000000    -0.00000000  0.11D-16  0.50D-16  2038.45


 =====================================
 Analysis of CPU times by interactions
 =====================================

       I      S      P

 I   1.2%
 S   1.2%   9.4%
 P   0.8%  63.1%  18.3%

 Initialization:   1.0%
 Other:            4.9%

 Total CPU:     2038.5 seconds
 =====================================



 Wavefunction saved on  5203.2

 Reference coefficients greater than 0.0500000
 =============================================
 220222//200/           0.0000000   0.0000001   0.0000000   0.0004695  -0.0009490   0.0002407  -0.0163821   0.7897609
 2202222///00          -0.0000001  -0.0000000  -0.0000000  -0.0002970   0.0138336  -0.0083015   0.6919650  -0.3806784
 220222/2//00           0.6843271   0.0002437   0.0015936  -0.6841002  -0.0007186   0.0002207  -0.0000539   0.0004046
 2202222//0/0           0.6843270   0.0002436   0.0015937   0.6841003   0.0007187  -0.0002207   0.0000541  -0.0004046
 220222/2/0/0          -0.0000001   0.0000001   0.0000000   0.0001725   0.0128846  -0.0080608   0.6755829   0.4090826
 220222//2/00           0.0006763  -0.6574559  -0.1898895  -0.0007488   0.6408587  -0.2388636  -0.0153895   0.0005242
 2202222//00/          -0.0006763   0.6574550   0.1898893  -0.0007488   0.6408595  -0.2388639  -0.0153896   0.0005240
 220222//20/0          -0.0014635  -0.1898906   0.6574543   0.0000443  -0.2389850  -0.6409917  -0.0029970  -0.0001540
 220222/2/00/          -0.0014635  -0.1898903   0.6574534  -0.0000444   0.2389853   0.6409927   0.0029970   0.0001541

 Coefficients of fixed reference functions:
 ==========================================

 State      Coefficients
 1           0.971182   -0.000960   -0.002077   -0.000000   -0.000000   -0.000000    0.000000   -0.000000
 2           0.000346    0.933047   -0.269488    0.000000   -0.000000   -0.000001    0.000000    0.000000
 3           0.002262    0.269487    0.933044    0.000000    0.000000   -0.000000    0.000000   -0.000001
 4           0.000000    0.000000   -0.000000   -0.000088    0.970608   -0.001062    0.000577   -0.000063
 5           0.000000    0.000001    0.000000    0.018954    0.001020    0.909257   -0.001166    0.339075
 6           0.000000   -0.000000    0.000001   -0.011608   -0.000313   -0.338902    0.000296    0.909446
 7           0.000000   -0.000000    0.000000    0.970145    0.000077   -0.021835   -0.020141    0.004252
 8          -0.000000   -0.000000    0.000000    0.020162   -0.000574    0.000744    0.970399    0.000219

 Coefficients of rotated reference functions:
 ============================================

 State      Coefficients
 1           0.971185    0.000000    0.000000   -0.000000    0.000000    0.000000    0.000000    0.000000
 2           0.000000    0.971185    0.000000    0.000000    0.000000   -0.000000   -0.000000   -0.000000
 3           0.000000    0.000000    0.971185   -0.000000    0.000000    0.000000   -0.000000   -0.000000
 4          -0.000000    0.000000   -0.000000    0.970609    0.000000   -0.000000   -0.000000   -0.000000
 5           0.000000    0.000000    0.000000    0.000000    0.970609   -0.000000   -0.000000    0.000000
 6           0.000000   -0.000000    0.000000   -0.000000   -0.000000    0.970609    0.000000   -0.000000
 7           0.000000   -0.000000   -0.000000   -0.000000   -0.000000    0.000000    0.970609   -0.000000
 8           0.000000   -0.000000   -0.000000   -0.000000    0.000000   -0.000000   -0.000000    0.970609


 RESULTS FOR STATE 1.2
 =====================

 Coefficient of reference function:   C(0) = 0.97118225 (fixed)   0.97123893 (relaxed)   0.97118494 (rotated)

 Energy contributions of configuration classes

 CLASS          SQ.NORM        ECORR1        ECORR2
 +++++++++++++++++++++++++++++++++++++++++++++++++++
 Internals    0.00016132   -0.00070902   -0.32103266
 Singles      0.02518679   -0.07579875   -0.08137828
 Pairs        0.03487220    0.00000001   -0.01368603
 Total        1.06022031   -0.07650777   -0.41609697
 +++++++++++++++++++++++++++++++++++++++++++++++++++


 Reference energy                    -460.53860202
 Nuclear energy                         0.00000000
 Kinetic energy                       469.53990386
 One electron energy                 -632.14885649
 Two electron energy                  171.19415750
 Virial quotient                       -0.98171571
 Correlation energy                    -0.41609697
 !MRCI STATE 1.2 Energy              -460.954698986278

 Properties without orbital relaxation:

 !MRCI STATE 1.2 Dipole moment          0.00000000     0.00000000     0.00000000
 Dipole moment /Debye                   0.00000000     0.00000000     0.00000000

 Cluster corrected energies          -460.97975647 (Davidson, fixed reference)
 Cluster corrected energies          -460.97970743 (Davidson, relaxed reference)
 Cluster corrected energies          -460.97975647 (Davidson, rotated reference)

 Cluster corrected energies          -460.97644173 (Pople, fixed reference)
 Cluster corrected energies          -460.97639744 (Pople, relaxed reference)
 Cluster corrected energies          -460.97644173 (Pople, rotated reference)



 RESULTS FOR STATE 2.2
 =====================

 Coefficient of reference function:   C(0) = 0.93304667 (fixed)   0.97123894 (relaxed)   0.97118495 (rotated)

 Energy contributions of configuration classes

 CLASS          SQ.NORM        ECORR1        ECORR2
[...]
                         0.134202970  -0.334735551   0.058985651  -0.134546111   0.077865259   0.307296805

   37    7.2  1.5 -1.5   0.002288759   0.035176039   0.004044429   0.350439243   0.000028488  -0.157525193
                         0.006674195  -0.021952065   0.002754795   0.269329638   0.004958271   0.146226514

   38    8.2  1.5 -1.5   0.008256177   0.383732944   0.000994194  -0.032939114  -0.000111165  -0.288946314
                        -0.005976868  -0.219220208  -0.001946687  -0.025016375  -0.000279585   0.263504603


 Composition of spin-orbit eigenvectors
 ======================================

   Nr   State  S   Sz       1        2        3        4        5        6        7        8        9       10

    1    1.2  0.5  0.5  62.328%   0.088%   4.252%   0.003%   6.301%  27.027%   0.000%   0.000%   0.000%   0.000%
    2    2.2  0.5  0.5  32.857%   0.046%  33.741%   0.023%   6.308%  27.025%   0.000%   0.000%   0.000%   0.000%
    3    3.2  0.5  0.5   0.007%   4.674%   0.043%  61.938%  27.035%   6.303%   0.000%   0.000%   0.000%   0.000%
    4    1.2  0.5 -0.5   0.088%  62.328%   0.003%   4.252%  27.027%   6.301%   0.000%   0.000%   0.000%   0.000%
    5    2.2  0.5 -0.5   0.046%  32.857%   0.023%  33.741%  27.025%   6.308%   0.000%   0.000%   0.000%   0.000%
    6    3.2  0.5 -0.5   4.674%   0.007%  61.938%   0.043%   6.303%  27.035%   0.000%   0.000%   0.000%   0.000%
    7    1.2  1.5  1.5   0.000%   0.000%   0.000%   0.000%   0.000%   0.000%   0.219%  26.842%  11.141%  15.222%
    8    2.2  1.5  1.5   0.000%   0.000%   0.000%   0.000%   0.000%   0.000%   0.555%   5.031%  15.060%  17.045%
    9    3.2  1.5  1.5   0.000%   0.000%   0.000%   0.000%   0.000%   0.000%   9.465%   0.023%   7.397%   8.617%
   10    4.2  1.5  1.5   0.000%   0.000%   0.000%   0.000%   0.000%   0.000%   0.000%   0.005%   0.144%   0.197%
   11    5.2  1.5  1.5   0.000%   0.000%   0.000%   0.000%   0.000%   0.000%   0.026%   0.460%   0.057%   0.089%
   12    6.2  1.5  1.5   0.000%   0.000%   0.000%   0.000%   0.000%   0.000%   0.052%   0.081%   0.010%   0.010%
   13    7.2  1.5  1.5   0.000%   0.000%   0.000%   0.000%   0.000%   0.000%   0.091%   0.003%   0.139%   0.099%
   14    8.2  1.5  1.5   0.000%   0.000%   0.000%   0.000%   0.000%   0.000%   0.224%   0.004%   0.065%   0.049%
   15    1.2  1.5  0.5   0.000%   0.000%   0.000%   0.000%   0.000%   0.000%  28.365%   0.507%   8.522%   6.461%
   16    2.2  1.5  0.5   0.000%   0.000%   0.000%   0.000%   0.000%   0.000%   0.001%   2.473%   3.464%   3.051%
   17    3.2  1.5  0.5   0.000%   0.000%   0.000%   0.000%   0.000%   0.000%   0.347%  24.317%   1.227%   0.940%
   18    4.2  1.5  0.5   0.000%   0.000%   0.000%   0.000%   0.000%   0.000%   0.221%   0.003%   0.020%   0.015%
   19    5.2  1.5  0.5   0.000%   0.000%   0.000%   0.000%   0.000%   0.000%   0.099%   0.049%   0.002%   0.003%
   20    6.2  1.5  0.5   0.000%   0.000%   0.000%   0.000%   0.000%   0.000%   0.001%   0.458%   0.010%   0.016%
   21    7.2  1.5  0.5   0.000%   0.000%   0.000%   0.000%   0.000%   0.000%   0.000%   0.069%   0.072%   0.096%
   22    8.2  1.5  0.5   0.000%   0.000%   0.000%   0.000%   0.000%   0.000%   0.001%   0.007%   0.325%   0.436%
   23    1.2  1.5 -0.5   0.000%   0.000%   0.000%   0.000%   0.000%   0.000%   0.507%  28.365%   6.461%   8.522%
   24    2.2  1.5 -0.5   0.000%   0.000%   0.000%   0.000%   0.000%   0.000%   2.473%   0.001%   3.051%   3.464%
   25    3.2  1.5 -0.5   0.000%   0.000%   0.000%   0.000%   0.000%   0.000%  24.317%   0.347%   0.940%   1.227%
   26    4.2  1.5 -0.5   0.000%   0.000%   0.000%   0.000%   0.000%   0.000%   0.003%   0.221%   0.015%   0.020%
   27    5.2  1.5 -0.5   0.000%   0.000%   0.000%   0.000%   0.000%   0.000%   0.049%   0.099%   0.003%   0.002%
   28    6.2  1.5 -0.5   0.000%   0.000%   0.000%   0.000%   0.000%   0.000%   0.458%   0.001%   0.016%   0.010%
   29    7.2  1.5 -0.5   0.000%   0.000%   0.000%   0.000%   0.000%   0.000%   0.069%   0.000%   0.096%   0.072%
   30    8.2  1.5 -0.5   0.000%   0.000%   0.000%   0.000%   0.000%   0.000%   0.007%   0.001%   0.436%   0.325%
   31    1.2  1.5 -1.5   0.000%   0.000%   0.000%   0.000%   0.000%   0.000%  26.842%   0.219%  15.222%  11.141%
   32    2.2  1.5 -1.5   0.000%   0.000%   0.000%   0.000%   0.000%   0.000%   5.031%   0.555%  17.045%  15.060%
   33    3.2  1.5 -1.5   0.000%   0.000%   0.000%   0.000%   0.000%   0.000%   0.023%   9.465%   8.617%   7.397%
   34    4.2  1.5 -1.5   0.000%   0.000%   0.000%   0.000%   0.000%   0.000%   0.005%   0.000%   0.197%   0.144%
   35    5.2  1.5 -1.5   0.000%   0.000%   0.000%   0.000%   0.000%   0.000%   0.460%   0.026%   0.089%   0.057%
   36    6.2  1.5 -1.5   0.000%   0.000%   0.000%   0.000%   0.000%   0.000%   0.081%   0.052%   0.010%   0.010%
   37    7.2  1.5 -1.5   0.000%   0.000%   0.000%   0.000%   0.000%   0.000%   0.003%   0.091%   0.099%   0.139%
   38    8.2  1.5 -1.5   0.000%   0.000%   0.000%   0.000%   0.000%   0.000%   0.004%   0.224%   0.049%   0.065%

   Nr   State  S   Sz      11       12       13       14       15       16       17       18       19       20

    1    1.2  0.5  0.5   0.000%   0.000%   0.000%   0.000%   0.000%   0.000%   0.000%   0.000%   0.000%   0.000%
    2    2.2  0.5  0.5   0.000%   0.000%   0.000%   0.000%   0.000%   0.000%   0.000%   0.000%   0.000%   0.000%
    3    3.2  0.5  0.5   0.000%   0.000%   0.000%   0.000%   0.000%   0.000%   0.000%   0.000%   0.000%   0.000%
    4    1.2  0.5 -0.5   0.000%   0.000%   0.000%   0.000%   0.000%   0.000%   0.000%   0.000%   0.000%   0.000%
    5    2.2  0.5 -0.5   0.000%   0.000%   0.000%   0.000%   0.000%   0.000%   0.000%   0.000%   0.000%   0.000%
    6    3.2  0.5 -0.5   0.000%   0.000%   0.000%   0.000%   0.000%   0.000%   0.000%   0.000%   0.000%   0.000%
    7    1.2  1.5  1.5   0.551%   0.007%   0.174%  18.603%   0.157%   0.779%   0.840%  24.044%   0.000%   0.000%
    8    2.2  1.5  1.5  13.942%   1.212%   0.003%  18.144%   2.680%   1.923%   0.775%  22.194%   0.000%   0.000%
    9    3.2  1.5  1.5   1.460%  13.429%   2.806%   0.635%  49.303%   3.362%   0.065%   1.852%   0.000%   0.000%
   10    4.2  1.5  1.5   0.408%   0.000%   0.003%   0.270%   0.002%   0.011%   0.001%   0.022%   0.016%   9.849%
   11    5.2  1.5  1.5   0.044%   0.007%   0.052%   0.220%   0.000%   0.014%   0.011%   0.020%   0.043%   0.072%
   12    6.2  1.5  1.5   0.004%   0.075%   0.221%   0.052%   0.013%   0.000%   0.079%   0.005%   0.192%   0.010%
   13    7.2  1.5  1.5   0.000%   0.436%   0.122%   0.003%   0.151%   0.011%   0.021%   0.001%  12.915%   0.047%
   14    8.2  1.5  1.5   0.000%   0.001%   0.161%   0.001%   0.112%   0.013%   0.068%   0.002%   0.307%   0.001%
   15    1.2  1.5  0.5   0.000%   0.313%  35.016%   0.521%   9.857%   0.603%   8.028%   0.267%   0.000%   0.000%
   16    2.2  1.5  0.5   2.993%  33.319%  15.614%   0.211%  24.095%   3.041%   7.562%   2.649%   0.000%   0.000%
   17    3.2  1.5  0.5  27.387%   3.534%   0.794%   6.048%   2.714%   0.052%   1.560%  29.704%   0.000%   0.000%
   18    4.2  1.5  0.5   0.000%   0.098%   0.013%   0.001%   0.251%   0.022%   0.067%   0.002%  40.805%   0.119%
   19    5.2  1.5  0.5   0.043%   0.234%   0.009%   0.005%   0.266%   0.007%   0.058%   0.003%   0.177%   0.054%
   20    6.2  1.5  0.5   0.367%   0.028%   0.004%   0.009%   0.008%   0.265%   0.008%   0.000%   0.023%   0.211%
   21    7.2  1.5  0.5   0.106%   0.000%   0.001%   0.161%   0.012%   0.113%   0.003%   0.068%   0.086%  35.064%
   22    8.2  1.5  0.5   0.000%   0.000%   0.002%   0.122%   0.011%   0.150%   0.001%   0.021%   0.000%   0.010%
   23    1.2  1.5 -0.5   0.313%   0.000%   0.521%  35.016%   0.603%   9.857%   0.267%   8.028%   0.000%   0.000%
   24    2.2  1.5 -0.5  33.319%   2.993%   0.211%  15.614%   3.041%  24.095%   2.649%   7.562%   0.000%   0.000%
   25    3.2  1.5 -0.5   3.534%  27.387%   6.048%   0.794%   0.052%   2.714%  29.704%   1.560%   0.000%   0.000%
   26    4.2  1.5 -0.5   0.098%   0.000%   0.001%   0.013%   0.022%   0.251%   0.002%   0.067%   0.119%  40.805%
   27    5.2  1.5 -0.5   0.234%   0.043%   0.005%   0.009%   0.007%   0.266%   0.003%   0.058%   0.054%   0.177%
   28    6.2  1.5 -0.5   0.028%   0.367%   0.009%   0.004%   0.265%   0.008%   0.000%   0.008%   0.211%   0.023%
   29    7.2  1.5 -0.5   0.000%   0.106%   0.161%   0.001%   0.113%   0.012%   0.068%   0.003%  35.064%   0.086%
   30    8.2  1.5 -0.5   0.000%   0.000%   0.122%   0.002%   0.150%   0.011%   0.021%   0.001%   0.010%   0.000%
   31    1.2  1.5 -1.5   0.007%   0.551%  18.603%   0.174%   0.779%   0.157%  24.044%   0.840%   0.000%   0.000%
   32    2.2  1.5 -1.5   1.212%  13.942%  18.144%   0.003%   1.923%   2.680%  22.194%   0.775%   0.000%   0.000%
   33    3.2  1.5 -1.5  13.429%   1.460%   0.635%   2.806%   3.362%  49.303%   1.852%   0.065%   0.000%   0.000%
   34    4.2  1.5 -1.5   0.000%   0.408%   0.270%   0.003%   0.011%   0.002%   0.022%   0.001%   9.849%   0.016%
   35    5.2  1.5 -1.5   0.007%   0.044%   0.220%   0.052%   0.014%   0.000%   0.020%   0.011%   0.072%   0.043%
   36    6.2  1.5 -1.5   0.075%   0.004%   0.052%   0.221%   0.000%   0.013%   0.005%   0.079%   0.010%   0.192%
   37    7.2  1.5 -1.5   0.436%   0.000%   0.003%   0.122%   0.011%   0.151%   0.001%   0.021%   0.047%  12.915%
   38    8.2  1.5 -1.5   0.001%   0.000%   0.001%   0.161%   0.013%   0.112%   0.002%   0.068%   0.001%   0.307%

   Nr   State  S   Sz      21       22       23       24       25       26       27       28       29       30

    1    1.2  0.5  0.5   0.000%   0.000%   0.000%   0.000%   0.000%   0.000%   0.000%   0.000%   0.000%   0.000%
    2    2.2  0.5  0.5   0.000%   0.000%   0.000%   0.000%   0.000%   0.000%   0.000%   0.000%   0.000%   0.000%
    3    3.2  0.5  0.5   0.000%   0.000%   0.000%   0.000%   0.000%   0.000%   0.000%   0.000%   0.000%   0.000%
    4    1.2  0.5 -0.5   0.000%   0.000%   0.000%   0.000%   0.000%   0.000%   0.000%   0.000%   0.000%   0.000%
    5    2.2  0.5 -0.5   0.000%   0.000%   0.000%   0.000%   0.000%   0.000%   0.000%   0.000%   0.000%   0.000%
    6    3.2  0.5 -0.5   0.000%   0.000%   0.000%   0.000%   0.000%   0.000%   0.000%   0.000%   0.000%   0.000%
    7    1.2  1.5  1.5   0.000%   0.000%   0.000%   0.000%   0.000%   0.000%   0.000%   0.000%   0.000%   0.802%
    8    2.2  1.5  1.5   0.000%   0.000%   0.000%   0.000%   0.000%   0.000%   0.178%   0.112%   0.014%   0.396%
    9    3.2  1.5  1.5   0.000%   0.000%   0.000%   0.000%   0.000%   0.000%   0.056%   0.023%   0.131%   0.035%
   10    4.2  1.5  1.5   1.981%  19.559%   0.004%   2.836%   0.045%   0.001%  19.860%   8.243%   0.009%   3.968%
   11    5.2  1.5  1.5   2.156%   8.558%   2.255%  16.945%   2.594%   3.757%   6.284%   0.862%   0.146%  25.541%
   12    6.2  1.5  1.5   0.968%   2.430%  13.948%   2.419%   0.355%  29.020%   0.986%   5.958%   1.154%   3.635%
   13    7.2  1.5  1.5   9.019%   0.912%   8.817%   0.001%   0.001%   2.167%   2.638%   6.632%   4.866%   0.022%
   14    8.2  1.5  1.5   0.445%   0.054%   1.989%   0.003%   0.001%  43.313%   0.497%   1.331%   6.308%   0.000%
   15    1.2  1.5  0.5   0.000%   0.000%   0.000%   0.000%   0.000%   0.000%   0.020%   0.053%   0.288%   0.000%
   16    2.2  1.5  0.5   0.000%   0.000%   0.000%   0.000%   0.000%   0.000%   0.291%   0.227%   0.014%   0.011%
   17    3.2  1.5  0.5   0.000%   0.000%   0.000%   0.000%   0.000%   0.000%   0.513%   0.380%   0.002%   0.160%
   18    4.2  1.5  0.5   3.892%   0.381%   0.186%   0.000%   0.000%   0.336%   3.467%   8.724%   4.688%   0.001%
   19    5.2  1.5  0.5   9.956%   8.229%  15.913%   0.465%   0.001%   8.829%   2.870%  13.592%   1.027%   4.787%
   20    6.2  1.5  0.5   7.856%  16.567%   2.333%   2.351%   0.013%   1.309%   7.947%   1.183%   0.233%  35.743%
   21    7.2  1.5  0.5   0.618%   5.703%   0.005%   3.379%   1.255%   0.006%   3.449%   1.554%   0.001%   4.177%
   22    8.2  1.5  0.5   0.058%   0.657%   0.031%  26.119%   6.992%   0.005%   1.449%   0.620%   0.002%   1.840%
   23    1.2  1.5 -0.5   0.000%   0.000%   0.000%   0.000%   0.000%   0.000%   0.053%   0.020%   0.000%   0.288%
   24    2.2  1.5 -0.5   0.000%   0.000%   0.000%   0.000%   0.000%   0.000%   0.227%   0.291%   0.011%   0.014%
   25    3.2  1.5 -0.5   0.000%   0.000%   0.000%   0.000%   0.000%   0.000%   0.380%   0.513%   0.160%   0.002%
   26    4.2  1.5 -0.5   0.381%   3.892%   0.000%   0.186%   0.336%   0.000%   8.724%   3.467%   0.001%   4.688%
   27    5.2  1.5 -0.5   8.229%   9.956%   0.465%  15.913%   8.829%   0.001%  13.592%   2.870%   4.787%   1.027%
   28    6.2  1.5 -0.5  16.567%   7.856%   2.351%   2.333%   1.309%   0.013%   1.183%   7.947%  35.743%   0.233%
   29    7.2  1.5 -0.5   5.703%   0.618%   3.379%   0.005%   0.006%   1.255%   1.554%   3.449%   4.177%   0.001%
   30    8.2  1.5 -0.5   0.657%   0.058%  26.119%   0.031%   0.005%   6.992%   0.620%   1.449%   1.840%   0.002%
   31    1.2  1.5 -1.5   0.000%   0.000%   0.000%   0.000%   0.000%   0.000%   0.000%   0.000%   0.802%   0.000%
   32    2.2  1.5 -1.5   0.000%   0.000%   0.000%   0.000%   0.000%   0.000%   0.112%   0.178%   0.396%   0.014%
   33    3.2  1.5 -1.5   0.000%   0.000%   0.000%   0.000%   0.000%   0.000%   0.023%   0.056%   0.035%   0.131%
   34    4.2  1.5 -1.5  19.559%   1.981%   2.836%   0.004%   0.001%   0.045%   8.243%  19.860%   3.968%   0.009%
   35    5.2  1.5 -1.5   8.558%   2.156%  16.945%   2.255%   3.757%   2.594%   0.862%   6.284%  25.541%   0.146%
   36    6.2  1.5 -1.5   2.430%   0.968%   2.419%  13.948%  29.020%   0.355%   5.958%   0.986%   3.635%   1.154%
   37    7.2  1.5 -1.5   0.912%   9.019%   0.001%   8.817%   2.167%   0.001%   6.632%   2.638%   0.022%   4.866%
   38    8.2  1.5 -1.5   0.054%   0.445%   0.003%   1.989%  43.313%   0.001%   1.331%   0.497%   0.000%   6.308%

   Nr   State  S   Sz      31       32       33       34       35       36       37       38

    1    1.2  0.5  0.5   0.000%   0.000%   0.000%   0.000%   0.000%   0.000%   0.000%   0.000%
    2    2.2  0.5  0.5   0.000%   0.000%   0.000%   0.000%   0.000%   0.000%   0.000%   0.000%
    3    3.2  0.5  0.5   0.000%   0.000%   0.000%   0.000%   0.000%   0.000%   0.000%   0.000%
    4    1.2  0.5 -0.5   0.000%   0.000%   0.000%   0.000%   0.000%   0.000%   0.000%   0.000%
    5    2.2  0.5 -0.5   0.000%   0.000%   0.000%   0.000%   0.000%   0.000%   0.000%   0.000%
    6    3.2  0.5 -0.5   0.000%   0.000%   0.000%   0.000%   0.000%   0.000%   0.000%   0.000%
    7    1.2  1.5  1.5   0.000%   0.217%   0.000%   0.241%   0.000%   0.045%   0.000%   0.115%
    8    2.2  1.5  1.5   0.042%   0.255%   0.009%   0.224%   0.057%   0.041%   0.000%   0.106%
    9    3.2  1.5  1.5   0.494%   0.023%   0.128%   0.017%   0.666%   0.004%   0.000%   0.009%
   10    4.2  1.5  1.5   0.005%   7.877%   0.011%  16.577%   0.001%   3.120%   0.000%   4.974%
   11    5.2  1.5  1.5   0.028%   3.247%   1.804%  14.783%   0.353%   2.774%   2.431%   4.367%
   12    6.2  1.5  1.5   0.082%   0.446%  14.778%   1.804%   2.780%   0.348%  17.481%   0.606%
   13    7.2  1.5  1.5  26.521%   0.028%   0.172%   0.005%  19.535%   0.002%   4.620%   0.002%
   14    8.2  1.5  1.5  10.038%   0.007%  19.531%   0.010%   0.171%   0.000%  15.292%   0.000%
   15    1.2  1.5  0.5   0.472%   0.000%   0.125%   0.000%   0.543%   0.000%   0.038%   0.000%
   16    2.2  1.5  0.5   0.311%   0.001%   0.559%   0.009%   0.056%   0.001%   0.036%   0.012%
   17    3.2  1.5  0.5   0.026%   0.010%   0.049%   0.072%   0.004%   0.014%   0.003%   0.142%
   18    4.2  1.5  0.5   2.047%   0.002%   3.127%   0.000%  16.588%   0.001%  14.923%   0.000%
   19    5.2  1.5  0.5   0.293%   0.209%   2.759%   0.366%  14.637%   1.945%  13.107%   0.006%
   20    6.2  1.5  0.5   0.050%   1.470%   0.356%   2.769%   1.943%  14.643%   1.821%   0.002%
   21    7.2  1.5  0.5   0.003%   9.000%   0.016%  19.526%   0.006%   0.172%   0.008%  15.270%
   22    8.2  1.5  0.5   0.021%  36.774%   0.001%   0.172%   0.002%  19.545%   0.000%   4.626%
   23    1.2  1.5 -0.5   0.000%   0.472%   0.000%   0.125%   0.000%   0.543%   0.000%   0.038%
   24    2.2  1.5 -0.5   0.001%   0.311%   0.009%   0.559%   0.001%   0.056%   0.012%   0.036%
   25    3.2  1.5 -0.5   0.010%   0.026%   0.072%   0.049%   0.014%   0.004%   0.142%   0.003%
   26    4.2  1.5 -0.5   0.002%   2.047%   0.000%   3.127%   0.001%  16.588%   0.000%  14.923%
   27    5.2  1.5 -0.5   0.209%   0.293%   0.366%   2.759%   1.945%  14.637%   0.006%  13.107%
   28    6.2  1.5 -0.5   1.470%   0.050%   2.769%   0.356%  14.643%   1.943%   0.002%   1.821%
   29    7.2  1.5 -0.5   9.000%   0.003%  19.526%   0.016%   0.172%   0.006%  15.270%   0.008%
   30    8.2  1.5 -0.5  36.774%   0.021%   0.172%   0.001%  19.545%   0.002%   4.626%   0.000%
   31    1.2  1.5 -1.5   0.217%   0.000%   0.241%   0.000%   0.045%   0.000%   0.115%   0.000%
   32    2.2  1.5 -1.5   0.255%   0.042%   0.224%   0.009%   0.041%   0.057%   0.106%   0.000%
   33    3.2  1.5 -1.5   0.023%   0.494%   0.017%   0.128%   0.004%   0.666%   0.009%   0.000%
   34    4.2  1.5 -1.5   7.877%   0.005%  16.577%   0.011%   3.120%   0.001%   4.974%   0.000%
   35    5.2  1.5 -1.5   3.247%   0.028%  14.783%   1.804%   2.774%   0.353%   4.367%   2.431%
   36    6.2  1.5 -1.5   0.446%   0.082%   1.804%  14.778%   0.348%   2.780%   0.606%  17.481%
   37    7.2  1.5 -1.5   0.028%  26.521%   0.005%   0.172%   0.002%  19.535%   0.002%   4.620%
   38    8.2  1.5 -1.5   0.007%  10.038%   0.010%  19.531%   0.000%   0.171%   0.000%  15.292%


 Property matrices transformed in SO basis (not sym. adapted)
 ============================================================

 No matrix element <i|DMX|i> larger than 5E-7
 No matrix element <i|DMX|1> larger than 5E-7

 No matrix element <i|DMY|i> larger than 5E-7
 No matrix element <i|DMY|1> larger than 5E-7

 No matrix element <i|DMZ|i> larger than 5E-7
 No matrix element <i|DMZ|1> larger than 5E-7


 **********************************************************************************************************************************
 DATASETS  * FILE   NREC   LENGTH (MB)   RECORD NAMES
              1      24       31.91       500      610      700      900      950      970     1000      129      960     1700   
                                          VAR    BASINP    GEOM    SYMINP    ZMAT    AOBASIS   BASIS     P2S    ABASIS    OPER   
                                         1101     1401     1411     1412     1650     1100     1400     1410     1200     1210   
                                          SR      EKINR    POTR     PVPR    MOLCAS      S      EKIN      POT      H0       H01  
                                         1080     1600     1380     1700(1)
                                         AOSYM     SMH     JKOP     OPER   

              2       7      347.14       700     1000      520     2100     2140     5201     5203   
                                         GEOM     BASIS   MCVARS     RHF     MCSCF    MRCI     MRCI   

 PROGRAMS   *        TOTAL        CI     LSINT        CI        CI     MULTI   RHF-SCF       INT
 CPU TIMES  *     12884.91  10209.71      1.61   2189.65    479.21      3.77      0.21      0.43
 REAL TIME  *     13060.93 SEC
 DISK USED  *       379.13 MB (local),        4.68 GB (total)
 SF USED    *         2.70 GB
 GA USED    *         0.00 MB       (max)       0.00 MB       (current)
 **********************************************************************************************************************************

 CI/aug-cc-pWCVTZ-DK energy=   -460.969537217812

              CI              CI           MULTI         RHF-SCF
   -460.94599309   -461.32989200   -460.52782324   -460.88965810
 **********************************************************************************************************************************
 Molpro calculation terminated with 1 warning(s)
