
 Working directory              : /wrk/irikura/molpro.eSRPDEW0Uy/
 Global scratch directory       : /wrk/irikura/molpro.eSRPDEW0Uy/
 Wavefunction directory         : /home/irikura/wfu/
 Main file repository           : /wrk/irikura/molpro.eSRPDEW0Uy/

 id        : nistki

 Nodes     nprocs
 comp-85      3
 GA implementation: MPI file
 GA implementation (serial work in mppx): MPI file

 Using customized tuning parameters: mindgm=1; mindgv=20; mindgc=4; mindgr=1; noblas=0; minvec=7
 default implementation of scratch files=sf  


 Variables initialized (1042), CPU time= 0.01 sec
 ***,Br SO-CI
                                                                                 ! active space (7/8)
                                                                                 ! doubly augmented using exponent ratio = 3.0
 memory,3000,M;
 
 gprint,orbitals,civector;
                                                                                 !gthresh,energy=1.d-10,coeff=1.d-8;
 gprint,basis
 
 symmetry,xyz
 geometry={Br};
 
 basis={spdfghi,br,AWCV5Z-X2C;C; spdf,1,even,nprim=1,ratio=3.0}
 
 set,dkho=101
 
 {rhf;wf,charge=-1}
 
 NSING=3
 NTRIP=8
 
 {multi
     occ,10,12
     closed,8,6
     wf,charge=0,sym=2,spin=1;state,NSING;
     wf,charge=0,sym=2,spin=3;state,NTRIP;
     expec2,lxx,lyy,lzz
 }
 table, energy, ll
 title, Energies and &lt;L**2&gt; values
 
                                                                                 ! KL-shell uncorrelated
 core,2,3
 
 {ci;wf,sym=2,spin=1;state,NSING; save,5203.2}
 hlsdiag = energd4
 {ci;wf,sym=2,spin=3;state,NTRIP; save,5303.2}
 hlsdiag(NSING+1) = energd4
 
 table,hlsdiag
 
 lsint
 {ci;hlsmat,ls,5203.2,5303.2;print,vls=0,hls=0}                                  !compute and diagonalize SO matrix
 Commands initialized (847), CPU time= 0.01 sec, 718 directives.
 Default parameters read. Elapsed time= 0.13 sec

 Checking input...
 Passed
1


                                         ***  PROGRAM SYSTEM MOLPRO  ***
                                       Copyright, TTI GmbH Stuttgart, 2015
                                    Version 2024.1 linked Mon Jun 17 07:53:25 2024


 **********************************************************************************************************************************
 LABEL *   Br SO-CI                                                                                                                                                      
  (64 PROC) 64 bit mpp version                                                           DATE: 15-Jul-24          TIME: 08:23:19  
 **********************************************************************************************************************************

 SHA1:             0134236b472f03f1f5189f93707d8671e415b05c
 **********************************************************************************************************************************

 Memory per process:      3000 MW
 Total memory per node:   9000 MW

 GA preallocation disabled
 GA check disabled

 Variable memory set to 3000.0 MW



 ZSYMEL=XYZ

 SETTING BASIS          =    USERDEF
 SETTING DKHO           =       101.00000000                                  


 Recomputing integrals since basis changed


 Using spherical harmonics

 Library entry BR     S AWCV5Z-X2C           selected for orbital group  1
 Even tempered Br S diffuse               selected for group 1    nprim= 1    centre=  0.013    ratio= 3.000    dratio= 1.000
 Library entry BR     P AWCV5Z-X2C           selected for orbital group  1
 Even tempered Br P diffuse               selected for group 1    nprim= 1    centre=  0.010    ratio= 3.000    dratio= 1.000
 Library entry BR     D AWCV5Z-X2C           selected for orbital group  1
 Even tempered Br D diffuse               selected for group 1    nprim= 1    centre=  0.026    ratio= 3.000    dratio= 1.000
 Library entry BR     F AWCV5Z-X2C           selected for orbital group  1
 Even tempered Br F diffuse               selected for group 1    nprim= 1    centre=  0.046    ratio= 3.000    dratio= 1.000
 Library entry BR     G AWCV5Z-X2C           selected for orbital group  1
 Library entry BR     H AWCV5Z-X2C           selected for orbital group  1
 Library entry BR     I AWCV5Z-X2C           selected for orbital group  1


 PROGRAM * SEWARD (Integral evaluation for generally contracted gaussian basis sets)     Author: Roland Lindh, 1990

 Geometry written to block  1 of record 700

 Orientation using atomic masses  
 Molecule type: Atom
 User-specified symmetry elements: XYZ
 Symmetry elements: XYZ
 Rotational constants:       0.0000000      0.0000000      0.0000000 GHz  (calculated with average atomic masses)

 Point group  Ci  



 ATOMIC COORDINATES

 NR  ATOM    CHARGE       X              Y              Z

   1  BR     35.00    0.000000000    0.000000000    0.000000000


 BASIS DATA

   Nr Sym  Nuc  Type         Exponents   Contraction coefficients

    1.1 Ag    1  1s   165735150.000000     0.000024   -0.000008    0.000003   -0.000001    0.000000    0.000000
                                           0.000000    0.000000
    2.1 Ag             24774379.000000     0.000060   -0.000019    0.000008   -0.000002    0.000000    0.000000
                                           0.000000    0.000000
    3.1 Ag              5628202.000000     0.000145   -0.000047    0.000019   -0.000006    0.000000    0.000000
                                           0.000000    0.000000
    4.1 Ag              1591899.700000     0.000318   -0.000103    0.000041   -0.000013    0.000000    0.000000
                                           0.000000    0.000000
    5.1 Ag               518263.800000     0.000680   -0.000221    0.000088   -0.000027    0.000000    0.000000
                                           0.000000    0.000000
    6.1 Ag               186490.920000     0.001433   -0.000467    0.000186   -0.000057    0.000000    0.000000
                                           0.000000    0.000000
    7.1 Ag                72332.493000     0.003041   -0.000994    0.000397   -0.000122    0.000000    0.000000
                                           0.000000    0.000000
    8.1 Ag                29761.135000     0.006512   -0.002137    0.000854   -0.000263    0.000000    0.000000
                                           0.000000    0.000000
                          12851.712000     0.014050   -0.004651    0.001861   -0.000573    0.000000    0.000000
                                           0.000000    0.000000
                           5780.943000     0.030166   -0.010128    0.004059   -0.001248    0.000000    0.000000
                                           0.000000    0.000000
                           2695.009800     0.063033   -0.021782    0.008765   -0.002699    0.000000    0.000000
                                           0.000000    0.000000
                           1297.660400     0.123373   -0.044875    0.018173   -0.005597    0.000000    0.000000
                                           0.000000    0.000000
                            643.634930     0.212505   -0.085477    0.035111   -0.010849    0.000000    0.000000
                                           0.000000    0.000000
                            327.951940     0.291308   -0.139710    0.058783   -0.018203    0.000000    0.000000
                                           0.000000    0.000000
                            170.922620     0.269006   -0.171416    0.075434   -0.023578    0.000000    0.000000
                                           0.000000    0.000000
                             90.250141     0.128999   -0.078536    0.036047   -0.011265    0.000000    0.000000
                                           0.000000    0.000000
                             46.292467     0.019633    0.230752   -0.129674    0.041834    0.000000    0.000000
                                           0.000000    0.000000
                             24.848661    -0.000011    0.513925   -0.387244    0.132323    0.000000    0.000000
                                           0.000000    0.000000
                             13.347137     0.000410    0.359003   -0.363572    0.128136    0.000000    0.000000
                                           0.000000    0.000000
                              6.948258    -0.000215    0.073284    0.160414   -0.066643    0.000000    0.000000
                                           0.000000    0.000000
                              3.625075     0.000059    0.002989    0.647797   -0.316011    0.000000    0.000000
                                           0.000000    0.000000
                              1.882153    -0.000055    0.001367    0.443883   -0.393940    0.000000    0.000000
                                           0.000000    0.000000
                              0.910822     0.000026   -0.000249    0.059679    0.021131    1.000000    0.000000
                                           0.000000    0.000000
                              0.463957    -0.000012    0.000084   -0.000877    0.556484    0.000000    1.000000
                                           0.000000    0.000000
                              0.216933     0.000005   -0.000056    0.001106    0.541610    0.000000    0.000000
                                           1.000000    0.000000
                              0.098406    -0.000001    0.000007   -0.000013    0.125493    0.000000    0.000000
                                           0.000000    1.000000
    9.1 Ag    1  1s           3.738700     1.000000
   10.1 Ag    1  1s           6.395600     1.000000
   11.1 Ag    1  1s          10.940700     1.000000
   12.1 Ag    1  1s          18.715900     1.000000
   13.1 Ag    1  1s           0.039106     1.000000
   14.1 Ag    1  1s           0.013035     1.000000
   15.1 Ag    1  3d0       1850.635400     0.000074
                            557.071250     0.000608
                            216.486870     0.003481
                             96.138850     0.014635
                             46.126380     0.046279
                             23.201164     0.114502
                             12.055926     0.213503
                              6.325545     0.294057
                              3.304922     0.303788
                              1.704253     0.213455
                              0.839940     0.082211
                              0.356953     0.010599
                              0.152000     0.000119
   16.1 Ag    1  3d2-      1850.635400     0.000074
                            557.071250     0.000608
                            216.486870     0.003481
                             96.138850     0.014635
                             46.126380     0.046279
                             23.201164     0.114502
                             12.055926     0.213503
                              6.325545     0.294057
                              3.304922     0.303788
                              1.704253     0.213455
                              0.839940     0.082211
                              0.356953     0.010599
                              0.152000     0.000119
   17.1 Ag    1  3d1+      1850.635400     0.000074
                            557.071250     0.000608
                            216.486870     0.003481
                             96.138850     0.014635
                             46.126380     0.046279
                             23.201164     0.114502
                             12.055926     0.213503
                              6.325545     0.294057
                              3.304922     0.303788
                              1.704253     0.213455
                              0.839940     0.082211
                              0.356953     0.010599
                              0.152000     0.000119
   18.1 Ag    1  3d2+      1850.635400     0.000074
                            557.071250     0.000608
                            216.486870     0.003481
                             96.138850     0.014635
                             46.126380     0.046279
                             23.201164     0.114502
                             12.055926     0.213503
                              6.325545     0.294057
                              3.304922     0.303788
                              1.704253     0.213455
                              0.839940     0.082211
                              0.356953     0.010599
                              0.152000     0.000119
   19.1 Ag    1  3d1-      1850.635400     0.000074
                            557.071250     0.000608
                            216.486870     0.003481
                             96.138850     0.014635
                             46.126380     0.046279
                             23.201164     0.114502
                             12.055926     0.213503
                              6.325545     0.294057
                              3.304922     0.303788
                              1.704253     0.213455
                              0.839940     0.082211
                              0.356953     0.010599
                              0.152000     0.000119
   20.1 Ag    1  3d0       1850.635400     0.000000
                            557.071250     0.000000
                            216.486870     0.000000
                             96.138850     0.000000
                             46.126380     0.000000
                             23.201164     0.000000
                             12.055926     0.000000
                              6.325545     0.000000
                              3.304922     0.000000
                              1.704253     1.000000
                              0.839940     0.000000
                              0.356953     0.000000
                              0.152000     0.000000
   21.1 Ag    1  3d2-      1850.635400     0.000000
                            557.071250     0.000000
                            216.486870     0.000000
                             96.138850     0.000000
                             46.126380     0.000000
                             23.201164     0.000000
                             12.055926     0.000000
                              6.325545     0.000000
                              3.304922     0.000000
                              1.704253     1.000000
                              0.839940     0.000000
                              0.356953     0.000000
                              0.152000     0.000000
   22.1 Ag    1  3d1+      1850.635400     0.000000
                            557.071250     0.000000
                            216.486870     0.000000
                             96.138850     0.000000
                             46.126380     0.000000
                             23.201164     0.000000
                             12.055926     0.000000
                              6.325545     0.000000
                              3.304922     0.000000
                              1.704253     1.000000
                              0.839940     0.000000
                              0.356953     0.000000
                              0.152000     0.000000
   23.1 Ag    1  3d2+      1850.635400     0.000000
                            557.071250     0.000000
                            216.486870     0.000000
                             96.138850     0.000000
                             46.126380     0.000000
                             23.201164     0.000000
                             12.055926     0.000000
                              6.325545     0.000000
                              3.304922     0.000000
                              1.704253     1.000000
                              0.839940     0.000000
                              0.356953     0.000000
                              0.152000     0.000000
   24.1 Ag    1  3d1-      1850.635400     0.000000
                            557.071250     0.000000
                            216.486870     0.000000
                             96.138850     0.000000
                             46.126380     0.000000
                             23.201164     0.000000
                             12.055926     0.000000
                              6.325545     0.000000
                              3.304922     0.000000
                              1.704253     1.000000
                              0.839940     0.000000
                              0.356953     0.000000
                              0.152000     0.000000
   25.1 Ag    1  3d0       1850.635400     0.000000
                            557.071250     0.000000
                            216.486870     0.000000
                             96.138850     0.000000
                             46.126380     0.000000
                             23.201164     0.000000
                             12.055926     0.000000
                              6.325545     0.000000
                              3.304922     0.000000
                              1.704253     0.000000
                              0.839940     1.000000
                              0.356953     0.000000
                              0.152000     0.000000
   26.1 Ag    1  3d2-      1850.635400     0.000000
                            557.071250     0.000000
                            216.486870     0.000000
                             96.138850     0.000000
                             46.126380     0.000000
                             23.201164     0.000000
                             12.055926     0.000000
                              6.325545     0.000000
                              3.304922     0.000000
                              1.704253     0.000000
                              0.839940     1.000000
                              0.356953     0.000000
                              0.152000     0.000000
   27.1 Ag    1  3d1+      1850.635400     0.000000
                            557.071250     0.000000
                            216.486870     0.000000
                             96.138850     0.000000
                             46.126380     0.000000
                             23.201164     0.000000
                             12.055926     0.000000
                              6.325545     0.000000
                              3.304922     0.000000
                              1.704253     0.000000
                              0.839940     1.000000
                              0.356953     0.000000
                              0.152000     0.000000
   28.1 Ag    1  3d2+      1850.635400     0.000000
                            557.071250     0.000000
                            216.486870     0.000000
                             96.138850     0.000000
                             46.126380     0.000000
                             23.201164     0.000000
                             12.055926     0.000000
                              6.325545     0.000000
                              3.304922     0.000000
                              1.704253     0.000000
                              0.839940     1.000000
                              0.356953     0.000000
                              0.152000     0.000000
   29.1 Ag    1  3d1-      1850.635400     0.000000
                            557.071250     0.000000
                            216.486870     0.000000
                             96.138850     0.000000
                             46.126380     0.000000
                             23.201164     0.000000
                             12.055926     0.000000
                              6.325545     0.000000
                              3.304922     0.000000
                              1.704253     0.000000
                              0.839940     1.000000
                              0.356953     0.000000
                              0.152000     0.000000
   30.1 Ag    1  3d0       1850.635400     0.000000
                            557.071250     0.000000
                            216.486870     0.000000
                             96.138850     0.000000
                             46.126380     0.000000
                             23.201164     0.000000
                             12.055926     0.000000
                              6.325545     0.000000
                              3.304922     0.000000
                              1.704253     0.000000
                              0.839940     0.000000
                              0.356953     1.000000
                              0.152000     0.000000
   31.1 Ag    1  3d2-      1850.635400     0.000000
                            557.071250     0.000000
                            216.486870     0.000000
                             96.138850     0.000000
                             46.126380     0.000000
                             23.201164     0.000000
                             12.055926     0.000000
                              6.325545     0.000000
                              3.304922     0.000000
                              1.704253     0.000000
                              0.839940     0.000000
                              0.356953     1.000000
                              0.152000     0.000000
   32.1 Ag    1  3d1+      1850.635400     0.000000
                            557.071250     0.000000
                            216.486870     0.000000
                             96.138850     0.000000
                             46.126380     0.000000
                             23.201164     0.000000
                             12.055926     0.000000
                              6.325545     0.000000
                              3.304922     0.000000
                              1.704253     0.000000
                              0.839940     0.000000
                              0.356953     1.000000
                              0.152000     0.000000
   33.1 Ag    1  3d2+      1850.635400     0.000000
                            557.071250     0.000000
                            216.486870     0.000000
                             96.138850     0.000000
                             46.126380     0.000000
                             23.201164     0.000000
                             12.055926     0.000000
                              6.325545     0.000000
                              3.304922     0.000000
                              1.704253     0.000000
                              0.839940     0.000000
                              0.356953     1.000000
                              0.152000     0.000000
   34.1 Ag    1  3d1-      1850.635400     0.000000
                            557.071250     0.000000
                            216.486870     0.000000
                             96.138850     0.000000
                             46.126380     0.000000
                             23.201164     0.000000
                             12.055926     0.000000
                              6.325545     0.000000
                              3.304922     0.000000
                              1.704253     0.000000
                              0.839940     0.000000
                              0.356953     1.000000
                              0.152000     0.000000
   35.1 Ag    1  3d0       1850.635400     0.000000
                            557.071250     0.000000
                            216.486870     0.000000
                             96.138850     0.000000
                             46.126380     0.000000
                             23.201164     0.000000
                             12.055926     0.000000
                              6.325545     0.000000
                              3.304922     0.000000
                              1.704253     0.000000
                              0.839940     0.000000
                              0.356953     0.000000
                              0.152000     1.000000
   36.1 Ag    1  3d2-      1850.635400     0.000000
                            557.071250     0.000000
                            216.486870     0.000000
                             96.138850     0.000000
                             46.126380     0.000000
                             23.201164     0.000000
                             12.055926     0.000000
                              6.325545     0.000000
                              3.304922     0.000000
                              1.704253     0.000000
                              0.839940     0.000000
                              0.356953     0.000000
                              0.152000     1.000000
   37.1 Ag    1  3d1+      1850.635400     0.000000
                            557.071250     0.000000
                            216.486870     0.000000
                             96.138850     0.000000
                             46.126380     0.000000
                             23.201164     0.000000
                             12.055926     0.000000
                              6.325545     0.000000
                              3.304922     0.000000
                              1.704253     0.000000
                              0.839940     0.000000
                              0.356953     0.000000
                              0.152000     1.000000
   38.1 Ag    1  3d2+      1850.635400     0.000000
                            557.071250     0.000000
                            216.486870     0.000000
                             96.138850     0.000000
                             46.126380     0.000000
                             23.201164     0.000000
                             12.055926     0.000000
                              6.325545     0.000000
                              3.304922     0.000000
                              1.704253     0.000000
                              0.839940     0.000000
                              0.356953     0.000000
                              0.152000     1.000000
   39.1 Ag    1  3d1-      1850.635400     0.000000
                            557.071250     0.000000
                            216.486870     0.000000
                             96.138850     0.000000
                             46.126380     0.000000
                             23.201164     0.000000
                             12.055926     0.000000
                              6.325545     0.000000
                              3.304922     0.000000
                              1.704253     0.000000
                              0.839940     0.000000
                              0.356953     0.000000
                              0.152000     1.000000
   40.1 Ag    1  3d0          3.365400     1.000000
   41.1 Ag    1  3d2-         3.365400     1.000000
   42.1 Ag    1  3d1+         3.365400     1.000000
   43.1 Ag    1  3d2+         3.365400     1.000000
   44.1 Ag    1  3d1-         3.365400     1.000000
   45.1 Ag    1  3d0          6.143600     1.000000
   46.1 Ag    1  3d2-         6.143600     1.000000
   47.1 Ag    1  3d1+         6.143600     1.000000
   48.1 Ag    1  3d2+         6.143600     1.000000
   49.1 Ag    1  3d1-         6.143600     1.000000
   50.1 Ag    1  3d0         11.215400     1.000000
   51.1 Ag    1  3d2-        11.215400     1.000000
   52.1 Ag    1  3d1+        11.215400     1.000000
   53.1 Ag    1  3d2+        11.215400     1.000000
   54.1 Ag    1  3d1-        11.215400     1.000000
   55.1 Ag    1  3d0         20.474000     1.000000
   56.1 Ag    1  3d2-        20.474000     1.000000
   57.1 Ag    1  3d1+        20.474000     1.000000
   58.1 Ag    1  3d2+        20.474000     1.000000
   59.1 Ag    1  3d1-        20.474000     1.000000
   60.1 Ag    1  3d0          0.078100     1.000000
   61.1 Ag    1  3d2-         0.078100     1.000000
   62.1 Ag    1  3d1+         0.078100     1.000000
   63.1 Ag    1  3d2+         0.078100     1.000000
   64.1 Ag    1  3d1-         0.078100     1.000000
   65.1 Ag    1  3d0          0.026033     1.000000
   66.1 Ag    1  3d2-         0.026033     1.000000
   67.1 Ag    1  3d1+         0.026033     1.000000
   68.1 Ag    1  3d2+         0.026033     1.000000
   69.1 Ag    1  3d1-         0.026033     1.000000
   70.1 Ag    1  5g0          0.439000     1.000000
   71.1 Ag    1  5g2-         0.439000     1.000000
   72.1 Ag    1  5g1+         0.439000     1.000000
   73.1 Ag    1  5g4+         0.439000     1.000000
   74.1 Ag    1  5g1-         0.439000     1.000000
   75.1 Ag    1  5g2+         0.439000     1.000000
   76.1 Ag    1  5g4-         0.439000     1.000000
   77.1 Ag    1  5g3+         0.439000     1.000000
   78.1 Ag    1  5g3-         0.439000     1.000000
   79.1 Ag    1  5g0          0.976800     1.000000
   80.1 Ag    1  5g2-         0.976800     1.000000
   81.1 Ag    1  5g1+         0.976800     1.000000
   82.1 Ag    1  5g4+         0.976800     1.000000
   83.1 Ag    1  5g1-         0.976800     1.000000
   84.1 Ag    1  5g2+         0.976800     1.000000
   85.1 Ag    1  5g4-         0.976800     1.000000
   86.1 Ag    1  5g3+         0.976800     1.000000
   87.1 Ag    1  5g3-         0.976800     1.000000
   88.1 Ag    1  5g0          2.434800     1.000000
   89.1 Ag    1  5g2-         2.434800     1.000000
   90.1 Ag    1  5g1+         2.434800     1.000000
   91.1 Ag    1  5g4+         2.434800     1.000000
   92.1 Ag    1  5g1-         2.434800     1.000000
   93.1 Ag    1  5g2+         2.434800     1.000000
   94.1 Ag    1  5g4-         2.434800     1.000000
   95.1 Ag    1  5g3+         2.434800     1.000000
   96.1 Ag    1  5g3-         2.434800     1.000000
   97.1 Ag    1  5g0          5.542900     1.000000
   98.1 Ag    1  5g2-         5.542900     1.000000
   99.1 Ag    1  5g1+         5.542900     1.000000
  100.1 Ag    1  5g4+         5.542900     1.000000
  101.1 Ag    1  5g1-         5.542900     1.000000
  102.1 Ag    1  5g2+         5.542900     1.000000
  103.1 Ag    1  5g4-         5.542900     1.000000
  104.1 Ag    1  5g3+         5.542900     1.000000
  105.1 Ag    1  5g3-         5.542900     1.000000
  106.1 Ag    1  5g0         12.619000     1.000000
  107.1 Ag    1  5g2-        12.619000     1.000000
  108.1 Ag    1  5g1+        12.619000     1.000000
  109.1 Ag    1  5g4+        12.619000     1.000000
  110.1 Ag    1  5g1-        12.619000     1.000000
  111.1 Ag    1  5g2+        12.619000     1.000000
  112.1 Ag    1  5g4-        12.619000     1.000000
  113.1 Ag    1  5g3+        12.619000     1.000000
  114.1 Ag    1  5g3-        12.619000     1.000000
  115.1 Ag    1  5g0          0.219000     1.000000
  116.1 Ag    1  5g2-         0.219000     1.000000
  117.1 Ag    1  5g1+         0.219000     1.000000
  118.1 Ag    1  5g4+         0.219000     1.000000
  119.1 Ag    1  5g1-         0.219000     1.000000
  120.1 Ag    1  5g2+         0.219000     1.000000
  121.1 Ag    1  5g4-         0.219000     1.000000
  122.1 Ag    1  5g3+         0.219000     1.000000
  123.1 Ag    1  5g3-         0.219000     1.000000
  124.1 Ag    1  7i6+         2.832200     1.000000
  125.1 Ag    1  7i2-         2.832200     1.000000
  126.1 Ag    1  7i5+         2.832200     1.000000
  127.1 Ag    1  7i4+         2.832200     1.000000
  128.1 Ag    1  7i5-         2.832200     1.000000
  129.1 Ag    1  7i2+         2.832200     1.000000
  130.1 Ag    1  7i6-         2.832200     1.000000
  131.1 Ag    1  7i3+         2.832200     1.000000
  132.1 Ag    1  7i4-         2.832200     1.000000
  133.1 Ag    1  7i0          2.832200     1.000000
  134.1 Ag    1  7i3-         2.832200     1.000000
  135.1 Ag    1  7i1-         2.832200     1.000000
  136.1 Ag    1  7i1+         2.832200     1.000000
    1.2 Au    1  2px      39391.530000     0.000143
                           9325.222500     0.000569
                           3028.994300     0.002378
                           1159.514500     0.008760
                            492.681310     0.028986
                            225.174510     0.081571
                            108.593260     0.184827
                             54.336079     0.311863
                             27.936650     0.341535
                             14.539626     0.189886
                              7.421307     0.038923
                              3.730389     0.002193
                              1.854127     0.000666
                              0.845337    -0.000077
                              0.392152     0.000038
                              0.172767    -0.000029
                              0.072908     0.000003
    2.2 Au    1  2py      39391.530000     0.000143
                           9325.222500     0.000569
                           3028.994300     0.002378
                           1159.514500     0.008760
                            492.681310     0.028986
                            225.174510     0.081571
                            108.593260     0.184827
                             54.336079     0.311863
                             27.936650     0.341535
                             14.539626     0.189886
                              7.421307     0.038923
                              3.730389     0.002193
                              1.854127     0.000666
                              0.845337    -0.000077
                              0.392152     0.000038
                              0.172767    -0.000029
                              0.072908     0.000003
    3.2 Au    1  2pz      39391.530000     0.000143
                           9325.222500     0.000569
                           3028.994300     0.002378
                           1159.514500     0.008760
                            492.681310     0.028986
                            225.174510     0.081571
                            108.593260     0.184827
                             54.336079     0.311863
                             27.936650     0.341535
                             14.539626     0.189886
                              7.421307     0.038923
                              3.730389     0.002193
                              1.854127     0.000666
                              0.845337    -0.000077
                              0.392152     0.000038
                              0.172767    -0.000029
                              0.072908     0.000003
    4.2 Au    1  2px      39391.530000    -0.000058
                           9325.222500    -0.000230
                           3028.994300    -0.000964
                           1159.514500    -0.003573
                            492.681310    -0.011979
                            225.174510    -0.034534
                            108.593260    -0.081416
                             54.336079    -0.144489
                             27.936650    -0.162796
                             14.539626    -0.003033
                              7.421307     0.311184
                              3.730389     0.479450
                              1.854127     0.287405
                              0.845337     0.044966
                              0.392152    -0.000176
                              0.172767     0.001426
                              0.072908    -0.000042
    5.2 Au    1  2py      39391.530000    -0.000058
                           9325.222500    -0.000230
                           3028.994300    -0.000964
                           1159.514500    -0.003573
                            492.681310    -0.011979
                            225.174510    -0.034534
                            108.593260    -0.081416
                             54.336079    -0.144489
                             27.936650    -0.162796
                             14.539626    -0.003033
                              7.421307     0.311184
                              3.730389     0.479450
                              1.854127     0.287405
                              0.845337     0.044966
                              0.392152    -0.000176
                              0.172767     0.001426
                              0.072908    -0.000042
    6.2 Au    1  2pz      39391.530000    -0.000058
                           9325.222500    -0.000230
                           3028.994300    -0.000964
                           1159.514500    -0.003573
                            492.681310    -0.011979
                            225.174510    -0.034534
                            108.593260    -0.081416
                             54.336079    -0.144489
                             27.936650    -0.162796
                             14.539626    -0.003033
                              7.421307     0.311184
                              3.730389     0.479450
                              1.854127     0.287405
                              0.845337     0.044966
                              0.392152    -0.000176
                              0.172767     0.001426
                              0.072908    -0.000042
    7.2 Au    1  2px      39391.530000     0.000000
                           9325.222500     0.000000
                           3028.994300     0.000000
                           1159.514500     0.000000
                            492.681310     0.000000
                            225.174510     0.000000
                            108.593260     0.000000
                             54.336079     0.000000
                             27.936650     0.000000
                             14.539626     1.000000
                              7.421307     0.000000
                              3.730389     0.000000
                              1.854127     0.000000
                              0.845337     0.000000
                              0.392152     0.000000
                              0.172767     0.000000
                              0.072908     0.000000
    8.2 Au    1  2py      39391.530000     0.000000
                           9325.222500     0.000000
                           3028.994300     0.000000
                           1159.514500     0.000000
                            492.681310     0.000000
                            225.174510     0.000000
                            108.593260     0.000000
                             54.336079     0.000000
                             27.936650     0.000000
                             14.539626     1.000000
                              7.421307     0.000000
                              3.730389     0.000000
                              1.854127     0.000000
                              0.845337     0.000000
                              0.392152     0.000000
                              0.172767     0.000000
                              0.072908     0.000000
    9.2 Au    1  2pz      39391.530000     0.000000
                           9325.222500     0.000000
                           3028.994300     0.000000
                           1159.514500     0.000000
                            492.681310     0.000000
                            225.174510     0.000000
                            108.593260     0.000000
                             54.336079     0.000000
                             27.936650     0.000000
                             14.539626     1.000000
                              7.421307     0.000000
                              3.730389     0.000000
                              1.854127     0.000000
                              0.845337     0.000000
                              0.392152     0.000000
                              0.172767     0.000000
                              0.072908     0.000000
   10.2 Au    1  2px      39391.530000     0.000000
                           9325.222500     0.000000
                           3028.994300     0.000000
                           1159.514500     0.000000
                            492.681310     0.000000
                            225.174510     0.000000
                            108.593260     0.000000
                             54.336079     0.000000
                             27.936650     0.000000
                             14.539626     0.000000
                              7.421307     1.000000
                              3.730389     0.000000
                              1.854127     0.000000
                              0.845337     0.000000
                              0.392152     0.000000
                              0.172767     0.000000
                              0.072908     0.000000
   11.2 Au    1  2py      39391.530000     0.000000
                           9325.222500     0.000000
                           3028.994300     0.000000
                           1159.514500     0.000000
                            492.681310     0.000000
                            225.174510     0.000000
                            108.593260     0.000000
                             54.336079     0.000000
                             27.936650     0.000000
                             14.539626     0.000000
                              7.421307     1.000000
                              3.730389     0.000000
                              1.854127     0.000000
                              0.845337     0.000000
                              0.392152     0.000000
                              0.172767     0.000000
                              0.072908     0.000000
   12.2 Au    1  2pz      39391.530000     0.000000
                           9325.222500     0.000000
                           3028.994300     0.000000
                           1159.514500     0.000000
                            492.681310     0.000000
                            225.174510     0.000000
                            108.593260     0.000000
                             54.336079     0.000000
                             27.936650     0.000000
                             14.539626     0.000000
                              7.421307     1.000000
                              3.730389     0.000000
                              1.854127     0.000000
                              0.845337     0.000000
                              0.392152     0.000000
                              0.172767     0.000000
                              0.072908     0.000000
   13.2 Au    1  2px      39391.530000     0.000000
                           9325.222500     0.000000
                           3028.994300     0.000000
                           1159.514500     0.000000
                            492.681310     0.000000
                            225.174510     0.000000
                            108.593260     0.000000
                             54.336079     0.000000
                             27.936650     0.000000
                             14.539626     0.000000
                              7.421307     0.000000
                              3.730389     1.000000
                              1.854127     0.000000
                              0.845337     0.000000
                              0.392152     0.000000
                              0.172767     0.000000
                              0.072908     0.000000
   14.2 Au    1  2py      39391.530000     0.000000
                           9325.222500     0.000000
                           3028.994300     0.000000
                           1159.514500     0.000000
                            492.681310     0.000000
                            225.174510     0.000000
                            108.593260     0.000000
                             54.336079     0.000000
                             27.936650     0.000000
                             14.539626     0.000000
                              7.421307     0.000000
                              3.730389     1.000000
                              1.854127     0.000000
                              0.845337     0.000000
                              0.392152     0.000000
                              0.172767     0.000000
                              0.072908     0.000000
   15.2 Au    1  2pz      39391.530000     0.000000
                           9325.222500     0.000000
                           3028.994300     0.000000
                           1159.514500     0.000000
                            492.681310     0.000000
                            225.174510     0.000000
                            108.593260     0.000000
                             54.336079     0.000000
                             27.936650     0.000000
                             14.539626     0.000000
                              7.421307     0.000000
                              3.730389     1.000000
                              1.854127     0.000000
                              0.845337     0.000000
                              0.392152     0.000000
                              0.172767     0.000000
                              0.072908     0.000000
   16.2 Au    1  2px      39391.530000     0.000000
                           9325.222500     0.000000
                           3028.994300     0.000000
                           1159.514500     0.000000
                            492.681310     0.000000
                            225.174510     0.000000
                            108.593260     0.000000
                             54.336079     0.000000
                             27.936650     0.000000
                             14.539626     0.000000
                              7.421307     0.000000
                              3.730389     0.000000
                              1.854127     1.000000
                              0.845337     0.000000
                              0.392152     0.000000
                              0.172767     0.000000
                              0.072908     0.000000
   17.2 Au    1  2py      39391.530000     0.000000
                           9325.222500     0.000000
                           3028.994300     0.000000
                           1159.514500     0.000000
                            492.681310     0.000000
                            225.174510     0.000000
                            108.593260     0.000000
                             54.336079     0.000000
                             27.936650     0.000000
                             14.539626     0.000000
                              7.421307     0.000000
                              3.730389     0.000000
                              1.854127     1.000000
                              0.845337     0.000000
                              0.392152     0.000000
                              0.172767     0.000000
                              0.072908     0.000000
   18.2 Au    1  2pz      39391.530000     0.000000
                           9325.222500     0.000000
                           3028.994300     0.000000
                           1159.514500     0.000000
                            492.681310     0.000000
                            225.174510     0.000000
                            108.593260     0.000000
                             54.336079     0.000000
                             27.936650     0.000000
                             14.539626     0.000000
                              7.421307     0.000000
                              3.730389     0.000000
                              1.854127     1.000000
                              0.845337     0.000000
                              0.392152     0.000000
                              0.172767     0.000000
                              0.072908     0.000000
   19.2 Au    1  2px      39391.530000     0.000000
                           9325.222500     0.000000
                           3028.994300     0.000000
                           1159.514500     0.000000
                            492.681310     0.000000
                            225.174510     0.000000
                            108.593260     0.000000
                             54.336079     0.000000
                             27.936650     0.000000
                             14.539626     0.000000
                              7.421307     0.000000
                              3.730389     0.000000
                              1.854127     0.000000
                              0.845337     1.000000
                              0.392152     0.000000
                              0.172767     0.000000
                              0.072908     0.000000
   20.2 Au    1  2py      39391.530000     0.000000
                           9325.222500     0.000000
                           3028.994300     0.000000
                           1159.514500     0.000000
                            492.681310     0.000000
                            225.174510     0.000000
                            108.593260     0.000000
                             54.336079     0.000000
                             27.936650     0.000000
                             14.539626     0.000000
                              7.421307     0.000000
                              3.730389     0.000000
                              1.854127     0.000000
                              0.845337     1.000000
                              0.392152     0.000000
                              0.172767     0.000000
                              0.072908     0.000000
   21.2 Au    1  2pz      39391.530000     0.000000
                           9325.222500     0.000000
                           3028.994300     0.000000
                           1159.514500     0.000000
                            492.681310     0.000000
                            225.174510     0.000000
                            108.593260     0.000000
                             54.336079     0.000000
                             27.936650     0.000000
                             14.539626     0.000000
                              7.421307     0.000000
                              3.730389     0.000000
                              1.854127     0.000000
                              0.845337     1.000000
                              0.392152     0.000000
                              0.172767     0.000000
                              0.072908     0.000000
   22.2 Au    1  2px      39391.530000     0.000000
                           9325.222500     0.000000
                           3028.994300     0.000000
                           1159.514500     0.000000
                            492.681310     0.000000
                            225.174510     0.000000
                            108.593260     0.000000
                             54.336079     0.000000
                             27.936650     0.000000
                             14.539626     0.000000
                              7.421307     0.000000
                              3.730389     0.000000
                              1.854127     0.000000
                              0.845337     0.000000
                              0.392152     1.000000
                              0.172767     0.000000
                              0.072908     0.000000
   23.2 Au    1  2py      39391.530000     0.000000
                           9325.222500     0.000000
                           3028.994300     0.000000
                           1159.514500     0.000000
                            492.681310     0.000000
                            225.174510     0.000000
                            108.593260     0.000000
                             54.336079     0.000000
                             27.936650     0.000000
                             14.539626     0.000000
                              7.421307     0.000000
                              3.730389     0.000000
                              1.854127     0.000000
                              0.845337     0.000000
                              0.392152     1.000000
                              0.172767     0.000000
                              0.072908     0.000000
   24.2 Au    1  2pz      39391.530000     0.000000
                           9325.222500     0.000000
                           3028.994300     0.000000
                           1159.514500     0.000000
                            492.681310     0.000000
                            225.174510     0.000000
                            108.593260     0.000000
                             54.336079     0.000000
                             27.936650     0.000000
                             14.539626     0.000000
                              7.421307     0.000000
                              3.730389     0.000000
                              1.854127     0.000000
                              0.845337     0.000000
                              0.392152     1.000000
                              0.172767     0.000000
                              0.072908     0.000000
   25.2 Au    1  2px      39391.530000     0.000000
                           9325.222500     0.000000
                           3028.994300     0.000000
                           1159.514500     0.000000
                            492.681310     0.000000
                            225.174510     0.000000
                            108.593260     0.000000
                             54.336079     0.000000
                             27.936650     0.000000
                             14.539626     0.000000
                              7.421307     0.000000
                              3.730389     0.000000
                              1.854127     0.000000
                              0.845337     0.000000
                              0.392152     0.000000
                              0.172767     1.000000
                              0.072908     0.000000
   26.2 Au    1  2py      39391.530000     0.000000
                           9325.222500     0.000000
                           3028.994300     0.000000
                           1159.514500     0.000000
                            492.681310     0.000000
                            225.174510     0.000000
                            108.593260     0.000000
                             54.336079     0.000000
                             27.936650     0.000000
                             14.539626     0.000000
                              7.421307     0.000000
                              3.730389     0.000000
                              1.854127     0.000000
                              0.845337     0.000000
                              0.392152     0.000000
                              0.172767     1.000000
                              0.072908     0.000000
   27.2 Au    1  2pz      39391.530000     0.000000
                           9325.222500     0.000000
                           3028.994300     0.000000
                           1159.514500     0.000000
                            492.681310     0.000000
                            225.174510     0.000000
                            108.593260     0.000000
                             54.336079     0.000000
                             27.936650     0.000000
                             14.539626     0.000000
                              7.421307     0.000000
                              3.730389     0.000000
                              1.854127     0.000000
                              0.845337     0.000000
                              0.392152     0.000000
                              0.172767     1.000000
                              0.072908     0.000000
   28.2 Au    1  2px      39391.530000     0.000000
                           9325.222500     0.000000
                           3028.994300     0.000000
                           1159.514500     0.000000
                            492.681310     0.000000
                            225.174510     0.000000
                            108.593260     0.000000
                             54.336079     0.000000
                             27.936650     0.000000
                             14.539626     0.000000
                              7.421307     0.000000
                              3.730389     0.000000
                              1.854127     0.000000
                              0.845337     0.000000
                              0.392152     0.000000
                              0.172767     0.000000
                              0.072908     1.000000
   29.2 Au    1  2py      39391.530000     0.000000
                           9325.222500     0.000000
                           3028.994300     0.000000
                           1159.514500     0.000000
                            492.681310     0.000000
                            225.174510     0.000000
                            108.593260     0.000000
                             54.336079     0.000000
                             27.936650     0.000000
                             14.539626     0.000000
                              7.421307     0.000000
                              3.730389     0.000000
                              1.854127     0.000000
                              0.845337     0.000000
                              0.392152     0.000000
                              0.172767     0.000000
                              0.072908     1.000000
   30.2 Au    1  2pz      39391.530000     0.000000
                           9325.222500     0.000000
                           3028.994300     0.000000
                           1159.514500     0.000000
                            492.681310     0.000000
                            225.174510     0.000000
                            108.593260     0.000000
                             54.336079     0.000000
                             27.936650     0.000000
                             14.539626     0.000000
                              7.421307     0.000000
                              3.730389     0.000000
                              1.854127     0.000000
                              0.845337     0.000000
                              0.392152     0.000000
                              0.172767     0.000000
                              0.072908     1.000000
   31.2 Au    1  2px          0.029052     1.000000
   32.2 Au    1  2py          0.029052     1.000000
   33.2 Au    1  2pz          0.029052     1.000000
   34.2 Au    1  2px          0.009684     1.000000
   35.2 Au    1  2py          0.009684     1.000000
   36.2 Au    1  2pz          0.009684     1.000000
   37.2 Au    1  4f1+         0.255000     1.000000
   38.2 Au    1  4f1-         0.255000     1.000000
   39.2 Au    1  4f0          0.255000     1.000000
   40.2 Au    1  4f3+         0.255000     1.000000
   41.2 Au    1  4f2-         0.255000     1.000000
   42.2 Au    1  4f3-         0.255000     1.000000
   43.2 Au    1  4f2+         0.255000     1.000000
   44.2 Au    1  4f1+         0.495500     1.000000
   45.2 Au    1  4f1-         0.495500     1.000000
   46.2 Au    1  4f0          0.495500     1.000000
   47.2 Au    1  4f3+         0.495500     1.000000
   48.2 Au    1  4f2-         0.495500     1.000000
   49.2 Au    1  4f3-         0.495500     1.000000
   50.2 Au    1  4f2+         0.495500     1.000000
   51.2 Au    1  4f1+         0.962700     1.000000
   52.2 Au    1  4f1-         0.962700     1.000000
   53.2 Au    1  4f0          0.962700     1.000000
   54.2 Au    1  4f3+         0.962700     1.000000
   55.2 Au    1  4f2-         0.962700     1.000000
   56.2 Au    1  4f3-         0.962700     1.000000
   57.2 Au    1  4f2+         0.962700     1.000000
   58.2 Au    1  4f1+         2.225100     1.000000
   59.2 Au    1  4f1-         2.225100     1.000000
   60.2 Au    1  4f0          2.225100     1.000000
   61.2 Au    1  4f3+         2.225100     1.000000
   62.2 Au    1  4f2-         2.225100     1.000000
   63.2 Au    1  4f3-         2.225100     1.000000
   64.2 Au    1  4f2+         2.225100     1.000000
   65.2 Au    1  4f1+         4.873000     1.000000
   66.2 Au    1  4f1-         4.873000     1.000000
   67.2 Au    1  4f0          4.873000     1.000000
   68.2 Au    1  4f3+         4.873000     1.000000
   69.2 Au    1  4f2-         4.873000     1.000000
   70.2 Au    1  4f3-         4.873000     1.000000
   71.2 Au    1  4f2+         4.873000     1.000000
   72.2 Au    1  4f1+        10.672000     1.000000
   73.2 Au    1  4f1-        10.672000     1.000000
   74.2 Au    1  4f0         10.672000     1.000000
   75.2 Au    1  4f3+        10.672000     1.000000
   76.2 Au    1  4f2-        10.672000     1.000000
   77.2 Au    1  4f3-        10.672000     1.000000
   78.2 Au    1  4f2+        10.672000     1.000000
   79.2 Au    1  4f1+        23.371900     1.000000
   80.2 Au    1  4f1-        23.371900     1.000000
   81.2 Au    1  4f0         23.371900     1.000000
   82.2 Au    1  4f3+        23.371900     1.000000
   83.2 Au    1  4f2-        23.371900     1.000000
   84.2 Au    1  4f3-        23.371900     1.000000
   85.2 Au    1  4f2+        23.371900     1.000000
   86.2 Au    1  4f1+         0.138800     1.000000
   87.2 Au    1  4f1-         0.138800     1.000000
   88.2 Au    1  4f0          0.138800     1.000000
   89.2 Au    1  4f3+         0.138800     1.000000
   90.2 Au    1  4f2-         0.138800     1.000000
   91.2 Au    1  4f3-         0.138800     1.000000
   92.2 Au    1  4f2+         0.138800     1.000000
   93.2 Au    1  4f1+         0.046267     1.000000
   94.2 Au    1  4f1-         0.046267     1.000000
   95.2 Au    1  4f0          0.046267     1.000000
   96.2 Au    1  4f3+         0.046267     1.000000
   97.2 Au    1  4f2-         0.046267     1.000000
   98.2 Au    1  4f3-         0.046267     1.000000
   99.2 Au    1  4f2+         0.046267     1.000000
  100.2 Au    1  6h1+         0.819300     1.000000
  101.2 Au    1  6h1-         0.819300     1.000000
  102.2 Au    1  6h2+         0.819300     1.000000
  103.2 Au    1  6h3+         0.819300     1.000000
  104.2 Au    1  6h4-         0.819300     1.000000
  105.2 Au    1  6h3-         0.819300     1.000000
  106.2 Au    1  6h4+         0.819300     1.000000
  107.2 Au    1  6h5-         0.819300     1.000000
  108.2 Au    1  6h0          0.819300     1.000000
  109.2 Au    1  6h5+         0.819300     1.000000
  110.2 Au    1  6h2-         0.819300     1.000000
  111.2 Au    1  6h1+         2.751500     1.000000
  112.2 Au    1  6h1-         2.751500     1.000000
  113.2 Au    1  6h2+         2.751500     1.000000
  114.2 Au    1  6h3+         2.751500     1.000000
  115.2 Au    1  6h4-         2.751500     1.000000
  116.2 Au    1  6h3-         2.751500     1.000000
  117.2 Au    1  6h4+         2.751500     1.000000
  118.2 Au    1  6h5-         2.751500     1.000000
  119.2 Au    1  6h0          2.751500     1.000000
  120.2 Au    1  6h5+         2.751500     1.000000
  121.2 Au    1  6h2-         2.751500     1.000000
  122.2 Au    1  6h1+        11.955300     1.000000
  123.2 Au    1  6h1-        11.955300     1.000000
  124.2 Au    1  6h2+        11.955300     1.000000
  125.2 Au    1  6h3+        11.955300     1.000000
  126.2 Au    1  6h4-        11.955300     1.000000
  127.2 Au    1  6h3-        11.955300     1.000000
  128.2 Au    1  6h4+        11.955300     1.000000
  129.2 Au    1  6h5-        11.955300     1.000000
  130.2 Au    1  6h0         11.955300     1.000000
  131.2 Au    1  6h5+        11.955300     1.000000
  132.2 Au    1  6h2-        11.955300     1.000000
  133.2 Au    1  6h1+         0.491000     1.000000
  134.2 Au    1  6h1-         0.491000     1.000000
  135.2 Au    1  6h2+         0.491000     1.000000
  136.2 Au    1  6h3+         0.491000     1.000000
  137.2 Au    1  6h4-         0.491000     1.000000
  138.2 Au    1  6h3-         0.491000     1.000000
  139.2 Au    1  6h4+         0.491000     1.000000
  140.2 Au    1  6h5-         0.491000     1.000000
  141.2 Au    1  6h0          0.491000     1.000000
  142.2 Au    1  6h5+         0.491000     1.000000
  143.2 Au    1  6h2-         0.491000     1.000000

 NUCLEAR CHARGE:                   35
 NUMBER OF PRIMITIVE AOS:         495
 NUMBER OF SYMMETRY AOS:          358
 NUMBER OF CONTRACTIONS:          279   (  136Ag  +  143Au  )
 NUMBER OF INNER CORE ORBITALS:     5   (    2Ag  +    3Au  )
 NUMBER OF OUTER CORE ORBITALS:     9   (    6Ag  +    3Au  )
 NUMBER OF VALENCE ORBITALS:        4   (    1Ag  +    3Au  )


 NUCLEAR REPULSION ENERGY    0.00000000

 One-electron integrals computed with SEWARD

 eXact-2-Component (X2C) method activated

 Computing Douglas-Kroll / X2C integrals

 AO integral compression algorithm  1   Integral accuracy      1.0D-11

     596.378 MB (compressed) written to integral file ( 11.8%)

     Node minimum: 165.937 MB, node maximum: 238.551 MB


 NUMBER OF SORTED TWO-ELECTRON INTEGRALS:  128056815.     BUFFER LENGTH:  32768
 NUMBER OF SEGMENTS:   9  SEGMENT LENGTH:   15997860      RECORD LENGTH: 524288

 Memory used in sort:      16.55 MW

 SORT1 READ   629150724. AND WROTE    21313506. INTEGRALS IN     66 RECORDS. CPU TIME:     2.18 SEC, REAL TIME:     2.42 SEC
 SORT2 READ    65863461. AND WROTE   384160150. INTEGRALS IN   2196 RECORDS. CPU TIME:     1.29 SEC, REAL TIME:     1.47 SEC

 Node minimum:   128050278.  Node maximum:   128056815. integrals

 OPERATOR DM      FOR CENTER  0  COORDINATES:    0.000000    0.000000    0.000000

 EXTRA SYMMETRY OF AOS IN SYMMETRY 1:   1 1 1 1 1 1 1 1 1 1   1 1 1 1 2 3 4 5 6 2   3 4 5 6 2 3 4 5 6 2   3 4 5 6 2 3 4 5 6 2
                                        3 4 5 6 2 3 4 5 6 2   3 4 5 6 2 3 4 5 6 2   3 4 5 6 2 3 4 5 6 7   8 9101112131415 7 8
                                        9101112131415 7 8 9  101112131415 7 8 910  1112131415 7 8 91011  12131415 7 8 9101112
                                       13141516171819202122  232425262728
 EXTRA SYMMETRY OF AOS IN SYMMETRY 2:   1 2 3 1 2 3 1 2 3 1   2 3 1 2 3 1 2 3 1 2   3 1 2 3 1 2 3 1 2 3   1 2 3 1 2 3 4 5 6 7
                                        8 910 4 5 6 7 8 910   4 5 6 7 8 910 4 5 6   7 8 910 4 5 6 7 8 9  10 4 5 6 7 8 910 4 5
                                        6 7 8 910 4 5 6 7 8   910 4 5 6 7 8 91011  12131415161718192021  11121314151617181920
                                       21111213141516171819  20211112131415161718  192021

 Eigenvalues of metric

         1 0.118E-05 0.333E-04 0.233E-03 0.901E-03 0.901E-03 0.901E-03 0.901E-03 0.901E-03
         2 0.114E-04 0.114E-04 0.114E-04 0.255E-02 0.255E-02 0.255E-02 0.959E-02 0.959E-02


 **********************************************************************************************************************************
 DATASETS  * FILE   NREC   LENGTH (MB)   RECORD NAMES
              1      22       31.52       500      610      700      900      950      970     1000      129      960     1700   
                                          VAR    BASINP    GEOM    SYMINP    ZMAT    AOBASIS   BASIS     P2S    ABASIS    OPER   
                                         1101     1401     1411     1412     1650     1100     1400     1410     1200     1210   
                                          SR      EKINR    POTR     PVPR    MOLCAS      S      EKIN      POT      H0       H01  
                                         1080     1600   
                                         AOSYM     SMH  

 PROGRAMS   *        TOTAL       INT
 CPU TIMES  *        21.45     21.30
 REAL TIME  *        23.59 SEC
 DISK USED  *        31.94 MB (local),        1.34 GB (total)
 GA USED    *         0.00 MB       (max)       0.00 MB       (current)
 **********************************************************************************************************************************


 Program * Restricted Hartree-Fock


   Atom=BR basis=MINAO             lmin=0  lmax=2

 Orbital guess generated from atomic densities.

 Initial occupancy:   9   9

 NELEC=   36   SYM=1   MS2= 0   THRE=1.0D-08   THRD=3.2D-06   THRG=3.2D-06  HFMA2=F  DIIS_START=2   DIIS_MAX=10   DIIS_INCORE=F

 Level shifts:    0.00 (CLOSED)    0.00 (OPEN)    0.30 (GAP_MIN)

 ITER           ETOT              DE          GRAD        DDIFF     DIIS  NEXP   TIME(IT)  TIME(TOT)  DIAG
   1    -2604.54887172   -2604.54887172     0.00D+00     0.58D-01     0     0       0.52      1.02    start
   2    -2604.59564337      -0.04677165     0.14D-01     0.65D-02     1     0       0.53      1.55    diag
   3    -2604.60865284      -0.01300947     0.66D-02     0.17D-02     2     0       0.52      2.07    diag
   4    -2604.60941416      -0.00076132     0.13D-02     0.43D-03     3     0       0.53      2.60    diag
   5    -2604.60950315      -0.00008899     0.99D-04     0.16D-03     4     0       0.52      3.12    diag
   6    -2604.60951090      -0.00000775     0.27D-04     0.59D-04     5     0       0.52      3.64    diag
   7    -2604.60951119      -0.00000029     0.54D-05     0.12D-04     6     0       0.52      4.16    diag
   8    -2604.60951122      -0.00000003     0.16D-05     0.40D-05     7     0       0.53      4.69    fixocc
   9    -2604.60951122      -0.00000000     0.28D-06     0.85D-06     8     0       0.53      5.22    diag
  10    -2604.60951122      -0.00000000     0.44D-07     0.19D-06     0     0       0.52      5.74    diag/orth

 Final occupancy:   9   9

 !RHF STATE 1.1 Energy              -2604.609511222640
  RHF One-electron energy           -3634.578912756826
  RHF Two-electron energy            1029.969401534186
  RHF Kinetic energy                 2787.090440971770
  RHF Nuclear energy                    0.000000000000
  RHF Virial quotient                  -0.934526369483

 !RHF STATE 1.1 Dipole moment           0.00000000     0.00000000     0.00000000
 Dipole moment /Debye                   0.00000000     0.00000000     0.00000000

 ELECTRON ORBITALS
 =================

  Orbital  Occupation    Energy    Cen Mu Typ  Coefficients
    1.1     2.00000  -497.89797     1  1  s    1.00000
    2.1     2.00000   -66.75889     1  2  s    1.00029
    3.1     2.00000    -9.85679     1  3  s    0.99893
    4.1     2.00000    -2.81602     1  1  d0   0.99986
    5.1     2.00000    -2.81602     1  1  d2+  0.99986
    6.1     2.00000    -2.81602     1  1  d2-  0.99987
    7.1     2.00000    -2.81602     1  1  d1-  0.99987
    8.1     2.00000    -2.81602     1  1  d1+  0.99987
    9.1     2.00000    -0.71233     1  4  s    0.97399
    1.2     2.00000   -58.65725     1  1  px   1.00000
    2.2     2.00000   -58.65725     1  1  py   1.00000
    3.2     2.00000   -58.65725     1  1  pz   1.00000
    4.2     2.00000    -7.20982     1  2  px   1.00049
    5.2     2.00000    -7.20982     1  2  pz   1.00049
    6.2     2.00000    -7.20982     1  2  py   1.00049
    7.2     2.00000    -0.13760     1  2  pz  -0.27567    1  8  pz   0.39914    1  9  pz   0.39084
    8.2     2.00000    -0.13760     1  2  py  -0.27567    1  8  py   0.39914    1  9  py   0.39084
    9.2     2.00000    -0.13760     1  2  px  -0.27577    1  8  px   0.39930    1  9  px   0.39099


 HOMO      9.2    -0.137597 =      -3.7442eV
 LUMO     10.2     0.105175 =       2.8620eV
 LUMO-HOMO         0.242773 =       6.6062eV

 Orbitals saved in record  2100.2


 **********************************************************************************************************************************
 DATASETS  * FILE   NREC   LENGTH (MB)   RECORD NAMES
              1      22       31.52       500      610      700      900      950      970     1000      129      960     1700   
                                          VAR    BASINP    GEOM    SYMINP    ZMAT    AOBASIS   BASIS     P2S    ABASIS    OPER   
                                         1101     1401     1411     1412     1650     1100     1400     1410     1200     1210   
                                          SR      EKINR    POTR     PVPR    MOLCAS      S      EKIN      POT      H0       H01  
                                         1080     1600   
                                         AOSYM     SMH  

              2       4        1.03       700     1000      520     2100   
                                         GEOM     BASIS   MCVARS     RHF  

 PROGRAMS   *        TOTAL   RHF-SCF       INT
 CPU TIMES  *        27.20      5.75     21.30
 REAL TIME  *        29.72 SEC
 DISK USED  *        35.22 MB (local),        1.35 GB (total)
 GA USED    *         0.00 MB       (max)       0.00 MB       (current)
 **********************************************************************************************************************************
 SETTING NSING          =         3.00000000                                  
 SETTING NTRIP          =         8.00000000                                  

 PROGRAM * MULTI (Direct Multiconfiguration SCF)       Authors: P.J. Knowles, H.-J. Werner (1984)
                                                                D.A. Kreplin, P.J. Knowles, H.-J. Werner (2019)

 Number of closed-shell orbitals:  14 (    8    6)
 Number of active  orbitals:        8 (    2    6)
 Number of external orbitals:     257 (  126  131)

 State symmetry 1

 Number of active electrons:   7    Spin symmetry=Doublet   Space symmetry=2
 Number of states:             3
 Number of CSFs:            1204   (1980 determinants, 3920 intermediate states)

 State symmetry 2

 Number of active electrons:   7    Spin symmetry=Quartet   Space symmetry=2
 Number of states:             8
 Number of CSFs:             656   (776 determinants, 1568 intermediate states)

 Molecular orbitals read from record     2100.2  Type=RHF/CANONICAL  
 *** IN SYMMETRY 1 ORBITAL  4 SYMMETRY CONTAMINATION OF 0.206D-02 HAS BEEN REMOVED
 *** IN SYMMETRY 1 ORBITAL  5 SYMMETRY CONTAMINATION OF 0.244D-02 HAS BEEN REMOVED
 *** IN SYMMETRY 1 ORBITAL  6 SYMMETRY CONTAMINATION OF 0.175D-02 HAS BEEN REMOVED
 *** IN SYMMETRY 1 ORBITAL  7 SYMMETRY CONTAMINATION OF 0.141D-02 HAS BEEN REMOVED
 *** IN SYMMETRY 1 ORBITAL  8 SYMMETRY CONTAMINATION OF 0.621D-03 HAS BEEN REMOVED

 EXTRA SYMMETRY OF MOS IN SYMMETRY 1:   1 1 1 2 5 3 6 4 1 1   5 3 2 6 4 1 5 2 3 6   4 1 2 5 3 6 41415 7  12 8131011 9 2 5 3 6
                                        4 112 81514 7131011   9 2 5 3 6 4 112 811   914151013 7 2 5 3 6   4 112 81514131011 7
                                        9 6 5 3 4 225271622  282117232620182419 1  121415 81013 7 911 2   5 3 6 4 11514 81213
                                       10 911 7 4 6 3 5 2 1   2 4 6 3 5 1
 *** IN SYMMETRY 2 ORBITAL  2 SYMMETRY CONTAMINATION OF 0.579D-03 HAS BEEN REMOVED
 *** IN SYMMETRY 2 ORBITAL  3 SYMMETRY CONTAMINATION OF 0.579D-03 HAS BEEN REMOVED
 *** IN SYMMETRY 2 ORBITAL  5 SYMMETRY CONTAMINATION OF 0.499D-04 HAS BEEN REMOVED
 *** IN SYMMETRY 2 ORBITAL  6 SYMMETRY CONTAMINATION OF 0.499D-04 HAS BEEN REMOVED
 *** IN SYMMETRY 2 ORBITAL  7 SYMMETRY CONTAMINATION OF 0.269D-01 HAS BEEN REMOVED
 *** IN SYMMETRY 2 ORBITAL  8 SYMMETRY CONTAMINATION OF 0.269D-01 HAS BEEN REMOVED
 *** IN SYMMETRY 2 ORBITAL 10 SYMMETRY CONTAMINATION OF 0.474D-02 HAS BEEN REMOVED
 *** IN SYMMETRY 2 ORBITAL 11 SYMMETRY CONTAMINATION OF 0.474D-02 HAS BEEN REMOVED
 EXTRA SYMMETRY OF MOS IN SYMMETRY 2:   1 2 3 1 3 2 3 2 1 3   2 1 2 1 310 8 5 4 7   9 6 2 1 3 6 7 910 8   5 4 2 1 3 810 6 5 4
                                        9 7 810 6 4 5 9 716  14182017151211132119   2 1 3 6 4 5 8 9 710  16141318201221191115
                                       17 2 1 3 6 5 4 9 710   8121118201321191517  1416 6 5 4 9 710 8 1   2 3 6 810 7 9 4 517
                                       15161421131118201219   1 2 3 810 6 4 5 7 9   2 1 3

 Wavefunction dump at record             2140.2

 Convergence thresholds  0.10E-04 (gradient)  0.10E-05 (energy)

 Weight factors for state symmetry  1:    0.09091   0.09091   0.09091
 Weight factors for state symmetry  2:    0.09091   0.09091   0.09091   0.09091   0.09091   0.09091   0.09091   0.09091
 
 Number of orbital rotations:  2884  ( 52 closed/active, 1794 closed/virtual, 0 active/active, 1038 active/virtual )
 Total number of variables:    15032
 
 Second-order MCSCF: L-BFGS accelerated
 
 ITER  MIC  NCI  NEG     ENERGY(VAR)    ENERGY(PROJ) ENERGY CHANGE       GRAD(0)  GRAD(ORB)   GRAD(CI)      STEP      TIME
   1   31   86    0  -2604.15315541   -2604.32227656   -0.16912115    0.45961023 0.00483985 0.00191953  0.15E+01      5.96
   2    9   37    0  -2604.27136710   -2604.29146163   -0.02009454    0.75007271 0.00022063 0.00064556  0.48E+00     10.79
   3    8   32    0  -2604.29159048   -2604.29159383   -0.00000336    0.00668203 0.00000207 0.00000886  0.71E-02     15.58
   4    7   23    0  -2604.29159383   -2604.29159383   -0.00000000    0.00000141 0.00000001 0.00000023  0.11E-03     19.85

 CONVERGENCE REACHED!  Final gradient:    0.00000007 ( 0.71E-07)
                       Final energy:  -2604.29159383
 
 Results for state 1.2 Doublet
 =============================
 !MCSCF STATE 1.2 Doublet Energy             -2604.511499662481
 Nuclear energy                                  0.00000000
 Kinetic energy                               2787.75407448
 One electron energy                         -3624.56602672
 Two electron energy                          1020.05452705
 Virial ratio                                    1.93426874
 
 !MCSCF STATE 1.2 Doublet Dipole moment          0.00000000     0.00000000     0.00000000
 Dipole moment /Debye                            0.00000000     0.00000000     0.00000000
 
 Results for state 2.2 Doublet
 =============================
 !MCSCF STATE 2.2 Doublet Energy             -2604.511499662466
 Nuclear energy                                  0.00000000
 Kinetic energy                               2787.75407448
 One electron energy                         -3624.56602672
 Two electron energy                          1020.05452705
 Virial ratio                                    1.93426874
 
 !MCSCF STATE 2.2 Doublet Dipole moment          0.00000000     0.00000000     0.00000000
 Dipole moment /Debye                            0.00000000     0.00000000     0.00000000
 
 Results for state 3.2 Doublet
 =============================
 !MCSCF STATE 3.2 Doublet Energy             -2604.511499662464
 Nuclear energy                                  0.00000000
 Kinetic energy                               2787.75407448
 One electron energy                         -3624.56602672
 Two electron energy                          1020.05452705
 Virial ratio                                    1.93426874
 
 !MCSCF STATE 3.2 Doublet Dipole moment          0.00000000     0.00000000     0.00000000
 Dipole moment /Debye                            0.00000000     0.00000000     0.00000000
 
 Results for state 1.2 Quartet
 =============================
 !MCSCF STATE 1.2 Quartet Energy             -2604.213262064670
 Nuclear energy                                  0.00000000
 Kinetic energy                               2786.42327197
 One electron energy                         -3613.24485141
 Two electron energy                          1009.03158935
 Virial ratio                                    1.93460792
 
 !MCSCF STATE 1.2 Quartet Dipole moment          0.00000000     0.00000000     0.00000000
 Dipole moment /Debye                            0.00000000     0.00000000     0.00000000
 
 Results for state 2.2 Quartet
 =============================
 !MCSCF STATE 2.2 Quartet Energy             -2604.213262064660
 Nuclear energy                                  0.00000000
 Kinetic energy                               2786.42327197
 One electron energy                         -3613.24485141
 Two electron energy                          1009.03158935
 Virial ratio                                    1.93460792
 
 !MCSCF STATE 2.2 Quartet Dipole moment          0.00000000     0.00000000     0.00000000
 Dipole moment /Debye                            0.00000000     0.00000000     0.00000000
 
 Results for state 3.2 Quartet
[...]

   36    6.2  1.5 -1.5   0.011905262   0.025388570  -0.192998521  -0.003052640  -0.025326455   0.028077579
                         0.140423907  -0.010095706   0.337356103   0.000499953   0.000116400  -0.214503535

   37    7.2  1.5 -1.5  -0.002062627   0.002934592   0.000196840   0.000393276   0.000006698   0.000023883
                        -0.010741193  -0.148233929  -0.000569993   0.386687970   0.204555813   0.000065965

   38    8.2  1.5 -1.5   0.005248709  -0.007528834  -0.000119926   0.000194270  -0.000004234   0.000018459
                         0.027502621   0.385585072   0.000185327   0.148658797  -0.382041478  -0.000028220


 Composition of spin-orbit eigenvectors
 ======================================

   Nr   State  S   Sz       1        2        3        4        5        6        7        8        9       10

    1    1.2  0.5  0.5  26.357%  21.872%   7.393%  11.038%  12.906%  20.424%   0.000%   0.000%   0.000%   0.000%
    2    2.2  0.5  0.5   1.527%   0.292%  64.616%   0.226%   0.346%  32.984%   0.000%   0.000%   0.000%   0.000%
    3    3.2  0.5  0.5  32.529%  17.445%   1.871%  14.817%  20.078%  13.252%   0.000%   0.000%   0.000%   0.000%
    4    1.2  0.5 -0.5  21.856%  26.347%  11.050%   7.408%  20.424%  12.906%   0.000%   0.000%   0.000%   0.000%
    5    2.2  0.5 -0.5   0.291%   1.518%   0.226%  64.626%  32.984%   0.346%   0.000%   0.000%   0.000%   0.000%
    6    3.2  0.5 -0.5  17.431%  32.518%  14.835%   1.877%  13.252%  20.078%   0.000%   0.000%   0.000%   0.000%
    7    1.2  1.5  1.5   0.000%   0.000%   0.000%   0.000%   0.000%   0.000%   9.607%   0.025%   0.000%  28.866%
    8    2.2  1.5  1.5   0.000%   0.000%   0.000%   0.000%   0.000%   0.000%  13.130%   0.032%   0.002%  30.907%
    9    3.2  1.5  1.5   0.001%   0.000%   0.001%   0.000%   0.000%   0.000%   0.042%  17.415%  14.933%   0.003%
   10    4.2  1.5  1.5   0.000%   0.000%   0.000%   0.000%   0.000%   0.000%   1.463%   0.004%   0.001%   2.809%
   11    5.2  1.5  1.5   0.000%   0.000%   0.000%   0.000%   0.000%   0.002%   0.002%   0.025%   0.017%   0.002%
   12    6.2  1.5  1.5   0.000%   0.000%   0.000%   0.000%   0.000%   0.000%   0.563%   0.001%   0.000%   2.288%
   13    7.2  1.5  1.5   0.000%   0.000%   0.001%   0.000%   0.000%   0.000%   0.007%   3.186%   2.755%   0.002%
   14    8.2  1.5  1.5   0.001%   0.000%   0.000%   0.000%   0.000%   0.001%   0.003%   1.286%   1.075%   0.001%
   15    1.2  1.5  0.5   0.000%   0.000%   0.002%   0.000%   0.000%   0.000%   0.037%  16.658%  13.941%   0.006%
   16    2.2  1.5  0.5   0.002%   0.000%   0.000%   0.000%   0.000%   0.000%   0.022%   9.907%   8.759%   0.027%
   17    3.2  1.5  0.5   0.000%   0.000%   0.000%   0.000%   0.001%   0.000%   0.823%   0.002%   0.010%   0.104%
   18    4.2  1.5  0.5   0.000%   0.000%   0.000%   0.000%   0.000%   0.001%   0.001%   0.335%   0.264%   0.003%
   19    5.2  1.5  0.5   0.000%   0.000%   0.000%   0.000%   0.000%   0.000%   0.257%   0.001%   0.000%   8.197%
   20    6.2  1.5  0.5   0.000%   0.000%   0.000%   0.000%   0.000%   0.001%   0.001%   0.015%   0.019%   0.053%
   21    7.2  1.5  0.5   0.000%   0.001%   0.000%   0.000%   0.001%   0.000%   1.378%   0.003%   0.000%   0.112%
   22    8.2  1.5  0.5   0.000%   0.000%   0.000%   0.001%   0.000%   0.000%   6.334%   0.015%   0.000%   0.548%
   23    1.2  1.5 -0.5   0.000%   0.000%   0.000%   0.002%   0.000%   0.000%  21.812%   0.050%   0.001%   6.190%
   24    2.2  1.5 -0.5   0.000%   0.002%   0.000%   0.000%   0.000%   0.000%  14.161%   0.031%   0.004%   7.903%
   25    3.2  1.5 -0.5   0.000%   0.000%   0.000%   0.000%   0.000%   0.001%   0.001%   0.873%   0.599%   0.057%
   26    4.2  1.5 -0.5   0.000%   0.000%   0.000%   0.000%   0.001%   0.000%   0.398%   0.001%   0.001%   0.032%
   27    5.2  1.5 -0.5   0.000%   0.000%   0.000%   0.000%   0.000%   0.000%   0.000%   0.005%   8.377%   0.002%
   28    6.2  1.5 -0.5   0.000%   0.000%   0.000%   0.000%   0.001%   0.000%   0.036%   0.000%   0.038%   0.112%
   29    7.2  1.5 -0.5   0.001%   0.000%   0.000%   0.000%   0.000%   0.001%   0.003%   1.489%   0.065%   0.002%
   30    8.2  1.5 -0.5   0.000%   0.000%   0.001%   0.000%   0.000%   0.000%   0.016%   6.825%   0.040%   0.000%
   31    1.2  1.5 -1.5   0.000%   0.000%   0.000%   0.000%   0.000%   0.000%   0.044%  16.832%  24.714%   0.003%
   32    2.2  1.5 -1.5   0.000%   0.000%   0.000%   0.000%   0.000%   0.000%   0.051%  21.550%  20.470%   0.008%
   33    3.2  1.5 -1.5   0.000%   0.001%   0.000%   0.001%   0.000%   0.000%  23.702%   0.058%   0.001%   9.361%
   34    4.2  1.5 -1.5   0.000%   0.000%   0.000%   0.000%   0.000%   0.000%   0.005%   2.284%   1.415%   0.004%
   35    5.2  1.5 -1.5   0.000%   0.000%   0.000%   0.000%   0.002%   0.000%   0.024%   0.003%   0.006%   0.003%
   36    6.2  1.5 -1.5   0.000%   0.000%   0.000%   0.000%   0.000%   0.000%   0.002%   1.077%   2.493%   0.003%
   37    7.2  1.5 -1.5   0.000%   0.000%   0.000%   0.001%   0.000%   0.000%   4.397%   0.010%   0.000%   1.928%
   38    8.2  1.5 -1.5   0.000%   0.001%   0.000%   0.000%   0.001%   0.000%   1.679%   0.004%   0.000%   0.465%

   Nr   State  S   Sz      11       12       13       14       15       16       17       18       19       20

    1    1.2  0.5  0.5   0.000%   0.000%   0.000%   0.000%   0.000%   0.000%   0.000%   0.000%   0.000%   0.000%
    2    2.2  0.5  0.5   0.000%   0.000%   0.000%   0.000%   0.000%   0.000%   0.000%   0.000%   0.000%   0.000%
    3    3.2  0.5  0.5   0.000%   0.000%   0.000%   0.000%   0.000%   0.000%   0.000%   0.000%   0.000%   0.000%
    4    1.2  0.5 -0.5   0.000%   0.000%   0.000%   0.000%   0.000%   0.000%   0.000%   0.000%   0.000%   0.000%
    5    2.2  0.5 -0.5   0.000%   0.000%   0.000%   0.000%   0.000%   0.000%   0.000%   0.000%   0.000%   0.000%
    6    3.2  0.5 -0.5   0.000%   0.000%   0.000%   0.000%   0.000%   0.000%   0.000%   0.000%   0.000%   0.000%
    7    1.2  1.5  1.5   0.026%   7.364%   0.000%   0.000%   0.000%   0.000%   0.000%   0.000%   0.000%   0.000%
    8    2.2  1.5  1.5   0.043%   1.775%   0.000%   0.000%   0.000%   0.000%   0.000%   0.000%   0.000%   0.000%
    9    3.2  1.5  1.5   0.976%   0.004%   0.000%   0.000%   0.000%   0.000%   0.000%   0.000%   0.000%   0.000%
   10    4.2  1.5  1.5   0.006%   2.462%   0.001%   0.004%  10.389%   0.036%   3.754%   0.041%   0.058%  20.001%
   11    5.2  1.5  1.5   1.376%   0.016%  16.703%   0.031%   0.058%  13.013%   0.105%  19.452%   1.898%   0.100%
   12    6.2  1.5  1.5   0.001%   3.873%   0.110%   7.153%   8.734%   0.071%   3.571%   0.087%   0.082%  14.532%
   13    7.2  1.5  1.5   0.988%   0.001%   0.542%   0.000%   0.048%  22.145%   0.023%   0.143%  10.735%   0.030%
   14    8.2  1.5  1.5   0.638%   0.000%  33.763%   0.004%   0.001%   3.024%   0.035%   9.225%   0.295%   0.000%
   15    1.2  1.5  0.5   6.904%   0.001%   0.000%   0.000%   0.000%   0.000%   0.000%   0.000%   0.000%   0.000%
   16    2.2  1.5  0.5  18.825%   0.007%   0.000%   0.000%   0.000%   0.000%   0.000%   0.000%   0.000%   0.000%
   17    3.2  1.5  0.5   0.007%  49.113%   0.000%   0.000%   0.000%   0.000%   0.000%   0.000%   0.000%   0.000%
   18    4.2  1.5  0.5   2.593%   0.000%   0.078%   0.000%   0.086%  12.703%   0.187%  25.962%   6.678%   0.017%
   19    5.2  1.5  0.5   0.041%   0.005%   0.050%   0.009%   1.027%   0.039%   0.767%   0.017%   0.229%  26.489%
   20    6.2  1.5  0.5   3.125%   0.000%  19.892%   0.007%   0.015%   9.514%   0.001%   2.425%  13.574%   0.221%
   21    7.2  1.5  0.5   0.000%   1.509%   0.003%   6.741%   5.712%   0.072%  30.362%   0.164%   0.009%   3.278%
   22    8.2  1.5  0.5   0.001%   0.043%   0.011%  14.922%  13.274%   0.006%   3.703%   0.000%   0.007%   1.747%
   23    1.2  1.5 -0.5   0.003%   9.490%   0.000%   0.000%   0.000%   0.000%   0.000%   0.000%   0.000%   0.000%
   24    2.2  1.5 -0.5   0.019%  15.427%   0.000%   0.000%   0.000%   0.000%   0.000%   0.000%   0.000%   0.000%
   25    3.2  1.5 -0.5  48.525%   0.004%   0.000%   0.000%   0.000%   0.000%   0.000%   0.000%   0.000%   0.000%
   26    4.2  1.5 -0.5   0.000%   2.763%   0.000%   0.080%  12.560%   0.086%  26.103%   0.186%   0.017%   6.678%
   27    5.2  1.5 -0.5   0.096%   0.021%   0.008%   0.050%   0.039%   1.019%   0.017%   0.773%  26.492%   0.229%
   28    6.2  1.5 -0.5   0.002%   3.025%   0.007%  19.887%   9.548%   0.015%   2.382%   0.001%   0.221%  13.588%
   29    7.2  1.5 -0.5   1.443%   0.000%   6.732%   0.003%   0.072%   5.813%   0.164%  30.273%   3.275%   0.009%
   30    8.2  1.5 -0.5   0.059%   0.000%  14.916%   0.011%   0.006%  13.217%   0.000%   3.762%   1.751%   0.007%
   31    1.2  1.5 -1.5   4.293%   0.003%   0.000%   0.000%   0.000%   0.000%   0.000%   0.000%   0.000%   0.000%
   32    2.2  1.5 -1.5   3.802%   0.007%   0.000%   0.000%   0.000%   0.000%   0.000%   0.000%   0.000%   0.000%
   33    3.2  1.5 -1.5   0.012%   0.239%   0.000%   0.000%   0.000%   0.000%   0.000%   0.000%   0.000%   0.000%
   34    4.2  1.5 -1.5   3.035%   0.001%   0.004%   0.001%   0.036%  10.433%   0.041%   3.708%  20.004%   0.058%
   35    5.2  1.5 -1.5   0.014%   1.389%   0.031%  16.693%  13.132%   0.058%  19.342%   0.105%   0.100%   1.898%
   36    6.2  1.5 -1.5   3.146%   0.004%   7.145%   0.110%   0.072%   8.687%   0.087%   3.617%  14.543%   0.082%
   37    7.2  1.5 -1.5   0.003%   0.601%   0.000%   0.544%  22.126%   0.049%   0.157%   0.024%   0.030%  10.739%
   38    8.2  1.5 -1.5   0.000%   0.854%   0.004%  33.749%   3.064%   0.001%   9.198%   0.035%   0.000%   0.296%

   Nr   State  S   Sz      21       22       23       24       25       26       27       28       29       30

    1    1.2  0.5  0.5   0.000%   0.000%   0.000%   0.000%   0.000%   0.000%   0.000%   0.000%   0.000%   0.000%
    2    2.2  0.5  0.5   0.000%   0.000%   0.000%   0.001%   0.000%   0.000%   0.000%   0.000%   0.000%   0.000%
    3    3.2  0.5  0.5   0.000%   0.000%   0.000%   0.000%   0.000%   0.000%   0.000%   0.000%   0.000%   0.000%
    4    1.2  0.5 -0.5   0.000%   0.000%   0.000%   0.000%   0.000%   0.000%   0.000%   0.000%   0.000%   0.000%
    5    2.2  0.5 -0.5   0.000%   0.000%   0.001%   0.000%   0.000%   0.000%   0.000%   0.000%   0.000%   0.000%
    6    3.2  0.5 -0.5   0.000%   0.000%   0.000%   0.000%   0.000%   0.000%   0.000%   0.000%   0.000%   0.000%
    7    1.2  1.5  1.5   0.000%  15.022%   2.144%   0.000%   0.000%  23.481%   0.000%   1.828%   0.735%   0.018%
    8    2.2  1.5  1.5   0.000%  15.021%   2.145%   0.000%   0.000%  23.481%   0.000%   2.676%   0.861%   0.022%
    9    3.2  1.5  1.5   1.406%   0.000%   0.000%  50.091%   0.000%   0.000%   4.864%   0.000%   0.003%   0.266%
   10    4.2  1.5  1.5   0.000%   2.481%   0.353%   0.000%   0.000%   0.304%   0.000%   7.958%  15.891%   0.060%
   11    5.2  1.5  1.5   2.752%   0.008%   0.001%   0.077%   1.211%   0.001%   0.167%   0.008%   0.040%   6.751%
   12    6.2  1.5  1.5   0.009%   2.472%   0.354%   0.000%   0.004%   0.303%   0.001%   2.453%  15.039%   0.105%
   13    7.2  1.5  1.5   0.289%   0.000%   0.000%   2.543%   0.271%   0.000%  22.606%   0.000%   0.017%   5.713%
   14    8.2  1.5  1.5   2.541%   0.000%   0.000%   0.290%   0.944%   0.000%   9.058%   0.000%   0.002%   2.835%
   15    1.2  1.5  0.5  16.270%   0.000%   0.000%  23.781%   7.827%   0.000%   4.629%   0.000%   0.001%   1.195%
   16    2.2  1.5  0.5  29.191%   0.000%   0.000%  10.862%   7.827%   0.000%   2.785%   0.000%   0.004%   3.947%
   17    3.2  1.5  0.5   0.000%   5.008%   0.715%   0.000%   0.000%  31.308%   0.000%   0.242%   9.564%   0.001%
   18    4.2  1.5  0.5   0.078%   0.000%   0.000%   2.758%   0.912%   0.000%   2.329%   0.000%   0.000%  12.616%
   19    5.2  1.5  0.5   0.000%   0.353%   2.472%   0.009%   0.003%   0.000%   0.000%   1.286%   0.793%   0.022%
   20    6.2  1.5  0.5   0.077%   0.001%   0.008%   2.750%   0.909%   0.000%   0.118%   0.004%   0.000%  16.039%
   21    7.2  1.5  0.5   0.000%   2.784%   0.048%   0.000%   0.000%   0.944%   0.000%   6.553%   7.160%   0.001%
   22    8.2  1.5  0.5   0.000%   0.048%   2.783%   0.000%   0.000%   0.271%   0.000%  32.109%   0.314%   0.010%
   23    1.2  1.5 -0.5   0.000%   9.064%  30.987%   0.000%   0.000%   7.827%   0.000%   4.494%   1.262%   0.003%
   24    2.2  1.5 -0.5   0.000%  35.280%   4.773%   0.000%   0.000%   7.827%   0.000%   2.648%   3.879%   0.007%
   25    3.2  1.5 -0.5   5.566%   0.000%   0.000%   0.156%  31.308%   0.000%   0.233%   0.000%   0.001%   9.485%
   26    4.2  1.5 -0.5   0.000%   0.355%   2.481%   0.000%   0.000%   0.912%   0.000%   2.311%  12.811%   0.000%
   27    5.2  1.5 -0.5   0.077%   0.001%   0.008%   2.748%   0.000%   0.003%   1.783%   0.000%   0.000%   1.204%
   28    6.2  1.5 -0.5   0.000%   0.353%   2.475%   0.009%   0.000%   0.909%   0.006%   0.099%  16.010%   0.000%
   29    7.2  1.5 -0.5   2.542%   0.000%   0.000%   0.290%   0.944%   0.000%   6.451%   0.000%   0.000%   6.824%
   30    8.2  1.5 -0.5   0.290%   0.000%   0.000%   2.541%   0.271%   0.000%  31.486%   0.000%   0.005%   0.430%
   31    1.2  1.5 -1.5  16.698%   0.000%   0.000%   0.469%  23.481%   0.000%   1.634%   0.000%   0.007%   0.577%
   32    2.2  1.5 -1.5  16.697%   0.000%   0.000%   0.469%  23.481%   0.000%   2.423%   0.000%   0.010%   1.037%
   33    3.2  1.5 -1.5   0.000%   6.434%  45.063%   0.000%   0.000%   0.000%   0.000%   4.680%   0.239%   0.007%
   34    4.2  1.5 -1.5   2.757%   0.000%   0.000%   0.077%   0.304%   0.000%   7.269%   0.000%   0.032%  16.882%
   35    5.2  1.5 -1.5   0.009%   2.476%   0.353%   0.000%   0.001%   1.211%   0.007%   0.174%   6.831%   0.038%
   36    6.2  1.5 -1.5   2.748%   0.008%   0.001%   0.078%   0.303%   0.004%   2.150%   0.001%   0.062%  13.861%
   37    7.2  1.5 -1.5   0.000%   0.048%   2.785%   0.000%   0.000%   0.271%   0.000%  21.677%   5.448%   0.039%
   38    8.2  1.5 -1.5   0.000%   2.783%   0.048%   0.000%   0.000%   0.944%   0.000%   8.798%   2.979%   0.006%

   Nr   State  S   Sz      31       32       33       34       35       36       37       38

    1    1.2  0.5  0.5   0.000%   0.000%   0.003%   0.001%   0.000%   0.000%   0.001%   0.002%
    2    2.2  0.5  0.5   0.000%   0.000%   0.002%   0.000%   0.003%   0.000%   0.000%   0.003%
    3    3.2  0.5  0.5   0.000%   0.000%   0.001%   0.003%   0.000%   0.000%   0.002%   0.001%
    4    1.2  0.5 -0.5   0.000%   0.000%   0.000%   0.001%   0.002%   0.002%   0.002%   0.001%
    5    2.2  0.5 -0.5   0.000%   0.000%   0.000%   0.001%   0.000%   0.004%   0.003%   0.000%
    6    3.2  0.5 -0.5   0.000%   0.000%   0.000%   0.001%   0.002%   0.001%   0.001%   0.002%
    7    1.2  1.5  1.5   6.530%   0.000%   0.016%   2.774%   0.000%   0.044%   1.519%   0.000%
    8    2.2  1.5  1.5   5.549%   0.002%   0.015%   2.775%   0.000%   0.044%   1.519%   0.000%
    9    3.2  1.5  1.5   0.001%   1.493%   7.465%   0.040%   0.995%   0.000%   0.000%   0.000%
   10    4.2  1.5  1.5  10.034%   0.025%   0.089%  16.812%   0.000%   0.265%   4.696%   0.000%
   11    5.2  1.5  1.5   0.148%   0.131%   1.986%   0.075%  15.105%   0.001%   0.016%  18.720%
   12    6.2  1.5  1.5  16.259%   0.021%   0.101%  16.751%   0.052%   0.264%   4.680%   0.064%
   13    7.2  1.5  1.5   0.022%   6.584%   7.595%   0.039%   9.529%   0.000%   0.000%   4.184%
   14    8.2  1.5  1.5   0.008%   3.214%   9.477%   0.051%   7.633%   0.000%   0.000%  14.596%
   15    1.2  1.5  0.5   0.003%   1.627%   0.837%   0.004%   5.771%   0.000%   0.000%   0.506%
   16    2.2  1.5  0.5   0.014%   0.705%   5.021%   0.027%   1.564%   0.000%   0.000%   0.506%
   17    3.2  1.5  0.5   0.120%   0.012%   0.005%   0.926%   0.000%   0.015%   2.025%   0.000%
   18    4.2  1.5  0.5   0.040%   1.106%  15.076%   0.079%   2.009%   0.000%   0.000%  14.089%
   19    5.2  1.5  0.5  40.710%   0.004%   0.055%   0.261%   0.007%  16.847%   0.000%   0.048%
   20    6.2  1.5  0.5   0.021%   0.000%  15.027%   0.081%   2.002%   0.058%   0.000%  14.039%
   21    7.2  1.5  0.5   1.394%   0.009%   0.078%  14.875%   0.000%   2.209%  14.599%   0.000%
   22    8.2  1.5  0.5   2.509%   0.001%   0.012%   2.197%   0.000%  14.951%   4.183%   0.000%
   23    1.2  1.5 -0.5   1.696%   0.001%   0.016%   2.941%   0.000%   3.655%   0.506%   0.000%
   24    2.2  1.5 -0.5   0.914%   0.006%   0.024%   4.546%   0.000%   2.042%   0.506%   0.000%
   25    3.2  1.5 -0.5   0.031%   0.190%   0.110%   0.001%   0.834%   0.000%   0.000%   2.025%
   26    4.2  1.5 -0.5   0.954%   0.016%   0.002%   0.263%   0.000%  16.900%  14.089%   0.000%
   27    5.2  1.5 -0.5   0.007%  39.821%  15.027%   0.082%   2.002%   0.058%   0.048%   0.000%
   28    6.2  1.5 -0.5   0.018%   0.050%   0.055%   0.261%   0.007%  16.845%  14.039%   0.000%
   29    7.2  1.5 -0.5   0.021%   1.821%   9.476%   0.051%   7.635%   0.000%   0.000%  14.599%
   30    8.2  1.5 -0.5   0.002%   3.019%   7.595%   0.039%   9.527%   0.000%   0.000%   4.183%
   31    1.2  1.5 -1.5   0.001%   6.893%   0.330%   0.002%   2.502%   0.000%   0.000%   1.519%
   32    2.2  1.5 -1.5   0.005%   5.636%   0.330%   0.002%   2.502%   0.000%   0.000%   1.519%
   33    3.2  1.5 -1.5   1.702%   0.001%   0.001%   0.130%   0.000%   8.370%   0.000%   0.000%
   34    4.2  1.5 -1.5   0.062%   9.724%   1.997%   0.012%  15.159%   0.000%   0.000%   4.696%
   35    5.2  1.5 -1.5   0.079%   0.116%   0.102%  16.749%   0.052%   0.264%  18.720%   0.016%
   36    6.2  1.5 -1.5   0.045%  17.760%   1.986%   0.075%  15.106%   0.001%   0.064%   4.680%
   37    7.2  1.5 -1.5   7.769%   0.009%   0.012%   2.198%   0.000%  14.953%   4.184%   0.000%
   38    8.2  1.5 -1.5   3.331%   0.003%   0.078%  14.873%   0.000%   2.210%  14.596%   0.000%


 Property matrices transformed in SO basis (not sym. adapted)
 ============================================================

 No matrix element <i|DMX|i> larger than 5E-7
 No matrix element <i|DMX|1> larger than 5E-7

 No matrix element <i|DMY|i> larger than 5E-7
 No matrix element <i|DMY|1> larger than 5E-7

 No matrix element <i|DMZ|i> larger than 5E-7
 No matrix element <i|DMZ|1> larger than 5E-7


 **********************************************************************************************************************************
 DATASETS  * FILE   NREC   LENGTH (MB)   RECORD NAMES
              1      24     7032.30       500      610      700      900      950      970     1000      129      960     1700   
                                          VAR    BASINP    GEOM    SYMINP    ZMAT    AOBASIS   BASIS     P2S    ABASIS    OPER   
                                         1101     1401     1411     1412     1650     1100     1400     1410     1200     1210   
                                          SR      EKINR    POTR     PVPR    MOLCAS      S      EKIN      POT      H0       H01  
                                         1080     1600     1380     1700(1)
                                         AOSYM     SMH     JKOP     OPER   

              2       7     7675.15       700     1000      520     2100     2140     5203     5303   
                                         GEOM     BASIS   MCVARS     RHF     MCSCF    MRCI     MRCI   

 PROGRAMS   *        TOTAL        CI     LSINT        CI        CI     MULTI   RHF-SCF       INT
 CPU TIMES  *    501760.11 358333.88    137.46 115299.72  27941.78     19.95      5.75     21.30
 REAL TIME  *    508286.86 SEC
 DISK USED  *         7.64 GB (local),       47.02 GB (total)
 SF USED    *        60.09 GB
 GA USED    *         0.00 MB       (max)       0.00 MB       (current)
 **********************************************************************************************************************************

 CI/USERDEF energy=  -2605.278394877552

              CI              CI           MULTI         RHF-SCF
  -2605.22762093  -2605.55982678  -2604.20664940  -2604.60951122
 **********************************************************************************************************************************
 Molpro calculation terminated with 1 warning(s)
