
 Working directory              : /wrk/irikura/molpro.3PiapY0RBp/
 Global scratch directory       : /wrk/irikura/molpro.3PiapY0RBp/
 Wavefunction directory         : /home/irikura/wfu/
 Main file repository           : /wrk/irikura/molpro.3PiapY0RBp/

 id        : nistki

 Nodes     nprocs
 comp-83      3
 GA implementation: MPI file
 GA implementation (serial work in mppx): MPI file

 Using customized tuning parameters: mindgm=1; mindgv=20; mindgc=4; mindgr=1; noblas=0; minvec=7
 default implementation of scratch files=sf  


 Variables initialized (1042), CPU time= 0.00 sec
 ***,Br SO-CI
                                                                                 ! active space (7/8)
                                                                                 ! doubly augmented using exponent ratio = 3.0
 memory,3000,M;
 
 gprint,orbitals,civector;
                                                                                 !gthresh,energy=1.d-10,coeff=1.d-8;
 gprint,basis
 
 symmetry,xyz
 geometry={Br};
 
 basis={spdfgh,br,AWCVQZ-X2C;C; spdf,1,even,nprim=1,ratio=3.0}
 
 set,dkho=101
 
 {rhf;wf,charge=-1}
 
 NSING=3
 NTRIP=8
 
 {multi
     occ,10,12
     closed,8,6
     wf,charge=0,sym=2,spin=1;state,NSING;
     wf,charge=0,sym=2,spin=3;state,NTRIP;
     expec2,lxx,lyy,lzz
 }
 table, energy, ll
 title, Energies and &lt;L**2&gt; values
 
                                                                                 ! KL-shell uncorrelated
 core,2,3
 
 {ci;wf,sym=2,spin=1;state,NSING; save,5203.2}
 hlsdiag = energd4
 {ci;wf,sym=2,spin=3;state,NTRIP; save,5303.2}
 hlsdiag(NSING+1) = energd4
 
 table,hlsdiag
 
 lsint
 {ci;hlsmat,ls,5203.2,5303.2;print,vls=0,hls=0}                                  !compute and diagonalize SO matrix
 Commands initialized (847), CPU time= 0.01 sec, 718 directives.
 Default parameters read. Elapsed time= 0.13 sec

 Checking input...
 Passed
1


                                         ***  PROGRAM SYSTEM MOLPRO  ***
                                       Copyright, TTI GmbH Stuttgart, 2015
                                    Version 2024.1 linked Mon Jun 17 07:53:25 2024


 **********************************************************************************************************************************
 LABEL *   Br SO-CI                                                                                                                                                      
  (64 PROC) 64 bit mpp version                                                           DATE: 15-Jul-24          TIME: 08:19:59  
 **********************************************************************************************************************************

 SHA1:             0134236b472f03f1f5189f93707d8671e415b05c
 **********************************************************************************************************************************

 Memory per process:      3000 MW
 Total memory per node:   9000 MW

 GA preallocation disabled
 GA check disabled

 Variable memory set to 3000.0 MW



 ZSYMEL=XYZ

 SETTING BASIS          =    USERDEF
 SETTING DKHO           =       101.00000000                                  


 Recomputing integrals since basis changed


 Using spherical harmonics

 Library entry BR     S AWCVQZ-X2C           selected for orbital group  1
 Even tempered Br S diffuse               selected for group 1    nprim= 1    centre=  0.015    ratio= 3.000    dratio= 1.000
 Library entry BR     P AWCVQZ-X2C           selected for orbital group  1
 Even tempered Br P diffuse               selected for group 1    nprim= 1    centre=  0.010    ratio= 3.000    dratio= 1.000
 Library entry BR     D AWCVQZ-X2C           selected for orbital group  1
 Even tempered Br D diffuse               selected for group 1    nprim= 1    centre=  0.028    ratio= 3.000    dratio= 1.000
 Library entry BR     F AWCVQZ-X2C           selected for orbital group  1
 Even tempered Br F diffuse               selected for group 1    nprim= 1    centre=  0.058    ratio= 3.000    dratio= 1.000
 Library entry BR     G AWCVQZ-X2C           selected for orbital group  1
 Library entry BR     H AWCVQZ-X2C           selected for orbital group  1


 PROGRAM * SEWARD (Integral evaluation for generally contracted gaussian basis sets)     Author: Roland Lindh, 1990

 Geometry written to block  1 of record 700

 Orientation using atomic masses  
 Molecule type: Atom
 User-specified symmetry elements: XYZ
 Symmetry elements: XYZ
 Rotational constants:       0.0000000      0.0000000      0.0000000 GHz  (calculated with average atomic masses)

 Point group  Ci  



 ATOMIC COORDINATES

 NR  ATOM    CHARGE       X              Y              Z

   1  BR     35.00    0.000000000    0.000000000    0.000000000


 BASIS DATA

   Nr Sym  Nuc  Type         Exponents   Contraction coefficients

    1.1 Ag    1  1s    16475000.000000     0.000119   -0.000039    0.000015   -0.000005    0.000000    0.000000
                                           0.000000
    2.1 Ag              2466600.000000     0.000313   -0.000102    0.000041   -0.000012    0.000000    0.000000
                                           0.000000
    3.1 Ag               561310.000000     0.000812   -0.000264    0.000105   -0.000032    0.000000    0.000000
                                           0.000000
    4.1 Ag               158990.000000     0.001972   -0.000643    0.000257   -0.000079    0.000000    0.000000
                                           0.000000
    5.1 Ag                51869.000000     0.004783   -0.001565    0.000625   -0.000192    0.000000    0.000000
                                           0.000000
    6.1 Ag                18726.000000     0.011546   -0.003805    0.001521   -0.000467    0.000000    0.000000
                                           0.000000
    7.1 Ag                 7303.600000     0.027649   -0.009236    0.003700   -0.001140    0.000000    0.000000
                                           0.000000
                           3029.100000     0.063990   -0.021980    0.008834   -0.002713    0.000000    0.000000
                                           0.000000
                           1320.800000     0.137078   -0.049802    0.020178   -0.006234    0.000000    0.000000
                                           0.000000
                            600.030000     0.250369   -0.102035    0.041952   -0.012907    0.000000    0.000000
                                           0.000000
                            281.900000     0.336902   -0.171161    0.072719   -0.022701    0.000000    0.000000
                                           0.000000
                            135.540000     0.257687   -0.180234    0.080606   -0.024899    0.000000    0.000000
                                           0.000000
                             64.870000     0.069528    0.047479   -0.025283    0.007278    0.000000    0.000000
                                           0.000000
                             32.129000     0.000797    0.488027   -0.320024    0.108411    0.000000    0.000000
                                           0.000000
                             16.037000     0.001447    0.500565   -0.479442    0.164989    0.000000    0.000000
                                           0.000000
                              7.784900    -0.000700    0.120783    0.057449   -0.020175    0.000000    0.000000
                                           0.000000
                              3.724700     0.000292    0.003206    0.725374   -0.364544    0.000000    0.000000
                                           0.000000
                              1.758300    -0.000145    0.001595    0.458729   -0.396652    0.000000    0.000000
                                           0.000000
                              0.583310     0.000060   -0.000361    0.027921    0.372005    1.000000    0.000000
                                           0.000000
                              0.278560    -0.000034    0.000162   -0.005196    0.660191    0.000000    1.000000
                                           0.000000
                              0.118290     0.000009   -0.000053    0.001291    0.235649    0.000000    0.000000
                                           1.000000
    8.1 Ag    1  1s           3.117500     1.000000
    9.1 Ag    1  1s           6.375000     1.000000
   10.1 Ag    1  1s          13.036300     1.000000
   11.1 Ag    1  1s           0.044270     1.000000
   12.1 Ag    1  1s           0.014757     1.000000
   13.1 Ag    1  3d0       1289.600000     0.000152
                            389.750000     0.001261
                            151.760000     0.007015
                             67.223000     0.027575
                             31.913000     0.080900
                             15.857000     0.178666
                              8.054500     0.282611
                              4.088700     0.325988
                              2.055600     0.259235
                              0.995090     0.115616
                              0.423130     0.018000
                              0.177900     0.000255
   14.1 Ag    1  3d2-      1289.600000     0.000152
                            389.750000     0.001261
                            151.760000     0.007015
                             67.223000     0.027575
                             31.913000     0.080900
                             15.857000     0.178666
                              8.054500     0.282611
                              4.088700     0.325988
                              2.055600     0.259235
                              0.995090     0.115616
                              0.423130     0.018000
                              0.177900     0.000255
   15.1 Ag    1  3d1+      1289.600000     0.000152
                            389.750000     0.001261
                            151.760000     0.007015
                             67.223000     0.027575
                             31.913000     0.080900
                             15.857000     0.178666
                              8.054500     0.282611
                              4.088700     0.325988
                              2.055600     0.259235
                              0.995090     0.115616
                              0.423130     0.018000
                              0.177900     0.000255
   16.1 Ag    1  3d2+      1289.600000     0.000152
                            389.750000     0.001261
                            151.760000     0.007015
                             67.223000     0.027575
                             31.913000     0.080900
                             15.857000     0.178666
                              8.054500     0.282611
                              4.088700     0.325988
                              2.055600     0.259235
                              0.995090     0.115616
                              0.423130     0.018000
                              0.177900     0.000255
   17.1 Ag    1  3d1-      1289.600000     0.000152
                            389.750000     0.001261
                            151.760000     0.007015
                             67.223000     0.027575
                             31.913000     0.080900
                             15.857000     0.178666
                              8.054500     0.282611
                              4.088700     0.325988
                              2.055600     0.259235
                              0.995090     0.115616
                              0.423130     0.018000
                              0.177900     0.000255
   18.1 Ag    1  3d0       1289.600000     0.000000
                            389.750000     0.000000
                            151.760000     0.000000
                             67.223000     0.000000
                             31.913000     0.000000
                             15.857000     0.000000
                              8.054500     0.000000
                              4.088700     0.000000
                              2.055600     0.000000
                              0.995090     1.000000
                              0.423130     0.000000
                              0.177900     0.000000
   19.1 Ag    1  3d2-      1289.600000     0.000000
                            389.750000     0.000000
                            151.760000     0.000000
                             67.223000     0.000000
                             31.913000     0.000000
                             15.857000     0.000000
                              8.054500     0.000000
                              4.088700     0.000000
                              2.055600     0.000000
                              0.995090     1.000000
                              0.423130     0.000000
                              0.177900     0.000000
   20.1 Ag    1  3d1+      1289.600000     0.000000
                            389.750000     0.000000
                            151.760000     0.000000
                             67.223000     0.000000
                             31.913000     0.000000
                             15.857000     0.000000
                              8.054500     0.000000
                              4.088700     0.000000
                              2.055600     0.000000
                              0.995090     1.000000
                              0.423130     0.000000
                              0.177900     0.000000
   21.1 Ag    1  3d2+      1289.600000     0.000000
                            389.750000     0.000000
                            151.760000     0.000000
                             67.223000     0.000000
                             31.913000     0.000000
                             15.857000     0.000000
                              8.054500     0.000000
                              4.088700     0.000000
                              2.055600     0.000000
                              0.995090     1.000000
                              0.423130     0.000000
                              0.177900     0.000000
   22.1 Ag    1  3d1-      1289.600000     0.000000
                            389.750000     0.000000
                            151.760000     0.000000
                             67.223000     0.000000
                             31.913000     0.000000
                             15.857000     0.000000
                              8.054500     0.000000
                              4.088700     0.000000
                              2.055600     0.000000
                              0.995090     1.000000
                              0.423130     0.000000
                              0.177900     0.000000
   23.1 Ag    1  3d0       1289.600000     0.000000
                            389.750000     0.000000
                            151.760000     0.000000
                             67.223000     0.000000
                             31.913000     0.000000
                             15.857000     0.000000
                              8.054500     0.000000
                              4.088700     0.000000
                              2.055600     0.000000
                              0.995090     0.000000
                              0.423130     1.000000
                              0.177900     0.000000
   24.1 Ag    1  3d2-      1289.600000     0.000000
                            389.750000     0.000000
                            151.760000     0.000000
                             67.223000     0.000000
                             31.913000     0.000000
                             15.857000     0.000000
                              8.054500     0.000000
                              4.088700     0.000000
                              2.055600     0.000000
                              0.995090     0.000000
                              0.423130     1.000000
                              0.177900     0.000000
   25.1 Ag    1  3d1+      1289.600000     0.000000
                            389.750000     0.000000
                            151.760000     0.000000
                             67.223000     0.000000
                             31.913000     0.000000
                             15.857000     0.000000
                              8.054500     0.000000
                              4.088700     0.000000
                              2.055600     0.000000
                              0.995090     0.000000
                              0.423130     1.000000
                              0.177900     0.000000
   26.1 Ag    1  3d2+      1289.600000     0.000000
                            389.750000     0.000000
                            151.760000     0.000000
                             67.223000     0.000000
                             31.913000     0.000000
                             15.857000     0.000000
                              8.054500     0.000000
                              4.088700     0.000000
                              2.055600     0.000000
                              0.995090     0.000000
                              0.423130     1.000000
                              0.177900     0.000000
   27.1 Ag    1  3d1-      1289.600000     0.000000
                            389.750000     0.000000
                            151.760000     0.000000
                             67.223000     0.000000
                             31.913000     0.000000
                             15.857000     0.000000
                              8.054500     0.000000
                              4.088700     0.000000
                              2.055600     0.000000
                              0.995090     0.000000
                              0.423130     1.000000
                              0.177900     0.000000
   28.1 Ag    1  3d0       1289.600000     0.000000
                            389.750000     0.000000
                            151.760000     0.000000
                             67.223000     0.000000
                             31.913000     0.000000
                             15.857000     0.000000
                              8.054500     0.000000
                              4.088700     0.000000
                              2.055600     0.000000
                              0.995090     0.000000
                              0.423130     0.000000
                              0.177900     1.000000
   29.1 Ag    1  3d2-      1289.600000     0.000000
                            389.750000     0.000000
                            151.760000     0.000000
                             67.223000     0.000000
                             31.913000     0.000000
                             15.857000     0.000000
                              8.054500     0.000000
                              4.088700     0.000000
                              2.055600     0.000000
                              0.995090     0.000000
                              0.423130     0.000000
                              0.177900     1.000000
   30.1 Ag    1  3d1+      1289.600000     0.000000
                            389.750000     0.000000
                            151.760000     0.000000
                             67.223000     0.000000
                             31.913000     0.000000
                             15.857000     0.000000
                              8.054500     0.000000
                              4.088700     0.000000
                              2.055600     0.000000
                              0.995090     0.000000
                              0.423130     0.000000
                              0.177900     1.000000
   31.1 Ag    1  3d2+      1289.600000     0.000000
                            389.750000     0.000000
                            151.760000     0.000000
                             67.223000     0.000000
                             31.913000     0.000000
                             15.857000     0.000000
                              8.054500     0.000000
                              4.088700     0.000000
                              2.055600     0.000000
                              0.995090     0.000000
                              0.423130     0.000000
                              0.177900     1.000000
   32.1 Ag    1  3d1-      1289.600000     0.000000
                            389.750000     0.000000
                            151.760000     0.000000
                             67.223000     0.000000
                             31.913000     0.000000
                             15.857000     0.000000
                              8.054500     0.000000
                              4.088700     0.000000
                              2.055600     0.000000
                              0.995090     0.000000
                              0.423130     0.000000
                              0.177900     1.000000
   33.1 Ag    1  3d0          2.292600     1.000000
   34.1 Ag    1  3d2-         2.292600     1.000000
   35.1 Ag    1  3d1+         2.292600     1.000000
   36.1 Ag    1  3d2+         2.292600     1.000000
   37.1 Ag    1  3d1-         2.292600     1.000000
   38.1 Ag    1  3d0          4.803100     1.000000
   39.1 Ag    1  3d2-         4.803100     1.000000
   40.1 Ag    1  3d1+         4.803100     1.000000
   41.1 Ag    1  3d2+         4.803100     1.000000
   42.1 Ag    1  3d1-         4.803100     1.000000
   43.1 Ag    1  3d0         10.063000     1.000000
   44.1 Ag    1  3d2-        10.063000     1.000000
   45.1 Ag    1  3d1+        10.063000     1.000000
   46.1 Ag    1  3d2+        10.063000     1.000000
   47.1 Ag    1  3d1-        10.063000     1.000000
   48.1 Ag    1  3d0          0.082900     1.000000
   49.1 Ag    1  3d2-         0.082900     1.000000
   50.1 Ag    1  3d1+         0.082900     1.000000
   51.1 Ag    1  3d2+         0.082900     1.000000
   52.1 Ag    1  3d1-         0.082900     1.000000
   53.1 Ag    1  3d0          0.027633     1.000000
   54.1 Ag    1  3d2-         0.027633     1.000000
   55.1 Ag    1  3d1+         0.027633     1.000000
   56.1 Ag    1  3d2+         0.027633     1.000000
   57.1 Ag    1  3d1-         0.027633     1.000000
   58.1 Ag    1  5g0          0.649100     1.000000
   59.1 Ag    1  5g2-         0.649100     1.000000
   60.1 Ag    1  5g1+         0.649100     1.000000
   61.1 Ag    1  5g4+         0.649100     1.000000
   62.1 Ag    1  5g1-         0.649100     1.000000
   63.1 Ag    1  5g2+         0.649100     1.000000
   64.1 Ag    1  5g4-         0.649100     1.000000
   65.1 Ag    1  5g3+         0.649100     1.000000
   66.1 Ag    1  5g3-         0.649100     1.000000
   67.1 Ag    1  5g0          2.329400     1.000000
   68.1 Ag    1  5g2-         2.329400     1.000000
   69.1 Ag    1  5g1+         2.329400     1.000000
   70.1 Ag    1  5g4+         2.329400     1.000000
   71.1 Ag    1  5g1-         2.329400     1.000000
   72.1 Ag    1  5g2+         2.329400     1.000000
   73.1 Ag    1  5g4-         2.329400     1.000000
   74.1 Ag    1  5g3+         2.329400     1.000000
   75.1 Ag    1  5g3-         2.329400     1.000000
   76.1 Ag    1  5g0          9.241300     1.000000
   77.1 Ag    1  5g2-         9.241300     1.000000
   78.1 Ag    1  5g1+         9.241300     1.000000
   79.1 Ag    1  5g4+         9.241300     1.000000
   80.1 Ag    1  5g1-         9.241300     1.000000
   81.1 Ag    1  5g2+         9.241300     1.000000
   82.1 Ag    1  5g4-         9.241300     1.000000
   83.1 Ag    1  5g3+         9.241300     1.000000
   84.1 Ag    1  5g3-         9.241300     1.000000
   85.1 Ag    1  5g0          0.311000     1.000000
   86.1 Ag    1  5g2-         0.311000     1.000000
   87.1 Ag    1  5g1+         0.311000     1.000000
   88.1 Ag    1  5g4+         0.311000     1.000000
   89.1 Ag    1  5g1-         0.311000     1.000000
   90.1 Ag    1  5g2+         0.311000     1.000000
   91.1 Ag    1  5g4-         0.311000     1.000000
   92.1 Ag    1  5g3+         0.311000     1.000000
   93.1 Ag    1  5g3-         0.311000     1.000000
    1.2 Au    1  2px      26607.000000     0.000226
                           6298.200000     0.000979
                           2045.200000     0.004264
                            782.160000     0.015976
                            331.630000     0.051813
                            151.110000     0.136342
                             72.392000     0.271723
                             35.862000     0.366220
                             18.134000     0.265515
                              9.043000     0.073629
                              4.450000     0.004483
                              2.166100     0.001209
                              0.996280    -0.000222
                              0.454430     0.000125
                              0.194040    -0.000066
                              0.078997     0.000013
    2.2 Au    1  2py      26607.000000     0.000226
                           6298.200000     0.000979
                           2045.200000     0.004264
                            782.160000     0.015976
                            331.630000     0.051813
                            151.110000     0.136342
                             72.392000     0.271723
                             35.862000     0.366220
                             18.134000     0.265515
                              9.043000     0.073629
                              4.450000     0.004483
                              2.166100     0.001209
                              0.996280    -0.000222
                              0.454430     0.000125
                              0.194040    -0.000066
                              0.078997     0.000013
    3.2 Au    1  2pz      26607.000000     0.000226
                           6298.200000     0.000979
                           2045.200000     0.004264
                            782.160000     0.015976
                            331.630000     0.051813
                            151.110000     0.136342
                             72.392000     0.271723
                             35.862000     0.366220
                             18.134000     0.265515
                              9.043000     0.073629
                              4.450000     0.004483
                              2.166100     0.001209
                              0.996280    -0.000222
                              0.454430     0.000125
                              0.194040    -0.000066
                              0.078997     0.000013
    4.2 Au    1  2px      26607.000000    -0.000091
                           6298.200000    -0.000396
                           2045.200000    -0.001731
                            782.160000    -0.006554
                            331.630000    -0.021607
                            151.110000    -0.058955
                             72.392000    -0.122813
                             35.862000    -0.176100
                             18.134000    -0.085372
                              9.043000     0.226441
                              4.450000     0.485928
                              2.166100     0.365109
                              0.996280     0.074859
                              0.454430     0.000750
                              0.194040     0.001719
                              0.078997    -0.000048
    5.2 Au    1  2py      26607.000000    -0.000091
                           6298.200000    -0.000396
                           2045.200000    -0.001731
                            782.160000    -0.006554
                            331.630000    -0.021607
                            151.110000    -0.058955
                             72.392000    -0.122813
                             35.862000    -0.176100
                             18.134000    -0.085372
                              9.043000     0.226441
                              4.450000     0.485928
                              2.166100     0.365109
                              0.996280     0.074859
                              0.454430     0.000750
                              0.194040     0.001719
                              0.078997    -0.000048
    6.2 Au    1  2pz      26607.000000    -0.000091
                           6298.200000    -0.000396
                           2045.200000    -0.001731
                            782.160000    -0.006554
                            331.630000    -0.021607
                            151.110000    -0.058955
                             72.392000    -0.122813
                             35.862000    -0.176100
                             18.134000    -0.085372
                              9.043000     0.226441
                              4.450000     0.485928
                              2.166100     0.365109
                              0.996280     0.074859
                              0.454430     0.000750
                              0.194040     0.001719
                              0.078997    -0.000048
    7.2 Au    1  2px      26607.000000     0.000024
                           6298.200000     0.000102
                           2045.200000     0.000448
                            782.160000     0.001697
                            331.630000     0.005605
                            151.110000     0.015370
                             72.392000     0.032200
                             35.862000     0.046655
                             18.134000     0.020278
                              9.043000    -0.074201
                              4.450000    -0.163062
                              2.166100    -0.145470
                              0.996280     0.111746
                              0.454430     0.435701
                              0.194040     0.465022
                              0.078997     0.168421
    8.2 Au    1  2py      26607.000000     0.000024
                           6298.200000     0.000102
                           2045.200000     0.000448
                            782.160000     0.001697
                            331.630000     0.005605
                            151.110000     0.015370
                             72.392000     0.032200
                             35.862000     0.046655
                             18.134000     0.020278
                              9.043000    -0.074201
                              4.450000    -0.163062
                              2.166100    -0.145470
                              0.996280     0.111746
                              0.454430     0.435701
                              0.194040     0.465022
                              0.078997     0.168421
    9.2 Au    1  2pz      26607.000000     0.000024
                           6298.200000     0.000102
                           2045.200000     0.000448
                            782.160000     0.001697
                            331.630000     0.005605
                            151.110000     0.015370
                             72.392000     0.032200
                             35.862000     0.046655
                             18.134000     0.020278
                              9.043000    -0.074201
                              4.450000    -0.163062
                              2.166100    -0.145470
                              0.996280     0.111746
                              0.454430     0.435701
                              0.194040     0.465022
                              0.078997     0.168421
   10.2 Au    1  2px      26607.000000     0.000000
                           6298.200000     0.000000
                           2045.200000     0.000000
                            782.160000     0.000000
                            331.630000     0.000000
                            151.110000     0.000000
                             72.392000     0.000000
                             35.862000     0.000000
                             18.134000     0.000000
                              9.043000     0.000000
                              4.450000     0.000000
                              2.166100     0.000000
                              0.996280     0.000000
                              0.454430     1.000000
                              0.194040     0.000000
                              0.078997     0.000000
   11.2 Au    1  2py      26607.000000     0.000000
                           6298.200000     0.000000
                           2045.200000     0.000000
                            782.160000     0.000000
                            331.630000     0.000000
                            151.110000     0.000000
                             72.392000     0.000000
                             35.862000     0.000000
                             18.134000     0.000000
                              9.043000     0.000000
                              4.450000     0.000000
                              2.166100     0.000000
                              0.996280     0.000000
                              0.454430     1.000000
                              0.194040     0.000000
                              0.078997     0.000000
   12.2 Au    1  2pz      26607.000000     0.000000
                           6298.200000     0.000000
                           2045.200000     0.000000
                            782.160000     0.000000
                            331.630000     0.000000
                            151.110000     0.000000
                             72.392000     0.000000
                             35.862000     0.000000
                             18.134000     0.000000
                              9.043000     0.000000
                              4.450000     0.000000
                              2.166100     0.000000
                              0.996280     0.000000
                              0.454430     1.000000
                              0.194040     0.000000
                              0.078997     0.000000
   13.2 Au    1  2px      26607.000000     0.000000
                           6298.200000     0.000000
                           2045.200000     0.000000
                            782.160000     0.000000
                            331.630000     0.000000
                            151.110000     0.000000
                             72.392000     0.000000
                             35.862000     0.000000
                             18.134000     0.000000
                              9.043000     0.000000
                              4.450000     0.000000
                              2.166100     0.000000
                              0.996280     0.000000
                              0.454430     0.000000
                              0.194040     1.000000
                              0.078997     0.000000
   14.2 Au    1  2py      26607.000000     0.000000
                           6298.200000     0.000000
                           2045.200000     0.000000
                            782.160000     0.000000
                            331.630000     0.000000
                            151.110000     0.000000
                             72.392000     0.000000
                             35.862000     0.000000
                             18.134000     0.000000
                              9.043000     0.000000
                              4.450000     0.000000
                              2.166100     0.000000
                              0.996280     0.000000
                              0.454430     0.000000
                              0.194040     1.000000
                              0.078997     0.000000
   15.2 Au    1  2pz      26607.000000     0.000000
                           6298.200000     0.000000
                           2045.200000     0.000000
                            782.160000     0.000000
                            331.630000     0.000000
                            151.110000     0.000000
                             72.392000     0.000000
                             35.862000     0.000000
                             18.134000     0.000000
                              9.043000     0.000000
                              4.450000     0.000000
                              2.166100     0.000000
                              0.996280     0.000000
                              0.454430     0.000000
                              0.194040     1.000000
                              0.078997     0.000000
   16.2 Au    1  2px      26607.000000     0.000000
                           6298.200000     0.000000
                           2045.200000     0.000000
                            782.160000     0.000000
                            331.630000     0.000000
                            151.110000     0.000000
                             72.392000     0.000000
                             35.862000     0.000000
                             18.134000     0.000000
                              9.043000     0.000000
                              4.450000     0.000000
                              2.166100     0.000000
                              0.996280     0.000000
                              0.454430     0.000000
                              0.194040     0.000000
                              0.078997     1.000000
   17.2 Au    1  2py      26607.000000     0.000000
                           6298.200000     0.000000
                           2045.200000     0.000000
                            782.160000     0.000000
                            331.630000     0.000000
                            151.110000     0.000000
                             72.392000     0.000000
                             35.862000     0.000000
                             18.134000     0.000000
                              9.043000     0.000000
                              4.450000     0.000000
                              2.166100     0.000000
                              0.996280     0.000000
                              0.454430     0.000000
                              0.194040     0.000000
                              0.078997     1.000000
   18.2 Au    1  2pz      26607.000000     0.000000
                           6298.200000     0.000000
                           2045.200000     0.000000
                            782.160000     0.000000
                            331.630000     0.000000
                            151.110000     0.000000
                             72.392000     0.000000
                             35.862000     0.000000
                             18.134000     0.000000
                              9.043000     0.000000
                              4.450000     0.000000
                              2.166100     0.000000
                              0.996280     0.000000
                              0.454430     0.000000
                              0.194040     0.000000
                              0.078997     1.000000
   19.2 Au    1  2px          2.466500     1.000000
   20.2 Au    1  2py          2.466500     1.000000
   21.2 Au    1  2pz          2.466500     1.000000
   22.2 Au    1  2px          5.556300     1.000000
   23.2 Au    1  2py          5.556300     1.000000
   24.2 Au    1  2pz          5.556300     1.000000
   25.2 Au    1  2px         12.516800     1.000000
   26.2 Au    1  2py         12.516800     1.000000
   27.2 Au    1  2pz         12.516800     1.000000
   28.2 Au    1  2px          0.030513     1.000000
   29.2 Au    1  2py          0.030513     1.000000
   30.2 Au    1  2pz          0.030513     1.000000
   31.2 Au    1  2px          0.010171     1.000000
   32.2 Au    1  2py          0.010171     1.000000
   33.2 Au    1  2pz          0.010171     1.000000
   34.2 Au    1  4f1+         0.340700     1.000000
   35.2 Au    1  4f1-         0.340700     1.000000
   36.2 Au    1  4f0          0.340700     1.000000
   37.2 Au    1  4f3+         0.340700     1.000000
   38.2 Au    1  4f2-         0.340700     1.000000
   39.2 Au    1  4f3-         0.340700     1.000000
   40.2 Au    1  4f2+         0.340700     1.000000
   41.2 Au    1  4f1+         0.825700     1.000000
   42.2 Au    1  4f1-         0.825700     1.000000
   43.2 Au    1  4f0          0.825700     1.000000
   44.2 Au    1  4f3+         0.825700     1.000000
   45.2 Au    1  4f2-         0.825700     1.000000
   46.2 Au    1  4f3-         0.825700     1.000000
   47.2 Au    1  4f2+         0.825700     1.000000
   48.2 Au    1  4f1+         2.111600     1.000000
   49.2 Au    1  4f1-         2.111600     1.000000
   50.2 Au    1  4f0          2.111600     1.000000
   51.2 Au    1  4f3+         2.111600     1.000000
   52.2 Au    1  4f2-         2.111600     1.000000
   53.2 Au    1  4f3-         2.111600     1.000000
   54.2 Au    1  4f2+         2.111600     1.000000
   55.2 Au    1  4f1+         5.295000     1.000000
   56.2 Au    1  4f1-         5.295000     1.000000
   57.2 Au    1  4f0          5.295000     1.000000
   58.2 Au    1  4f3+         5.295000     1.000000
   59.2 Au    1  4f2-         5.295000     1.000000
   60.2 Au    1  4f3-         5.295000     1.000000
   61.2 Au    1  4f2+         5.295000     1.000000
   62.2 Au    1  4f1+        13.278000     1.000000
   63.2 Au    1  4f1-        13.278000     1.000000
   64.2 Au    1  4f0         13.278000     1.000000
   65.2 Au    1  4f3+        13.278000     1.000000
   66.2 Au    1  4f2-        13.278000     1.000000
   67.2 Au    1  4f3-        13.278000     1.000000
   68.2 Au    1  4f2+        13.278000     1.000000
   69.2 Au    1  4f1+         0.174800     1.000000
   70.2 Au    1  4f1-         0.174800     1.000000
   71.2 Au    1  4f0          0.174800     1.000000
   72.2 Au    1  4f3+         0.174800     1.000000
   73.2 Au    1  4f2-         0.174800     1.000000
   74.2 Au    1  4f3-         0.174800     1.000000
   75.2 Au    1  4f2+         0.174800     1.000000
   76.2 Au    1  4f1+         0.058267     1.000000
   77.2 Au    1  4f1-         0.058267     1.000000
   78.2 Au    1  4f0          0.058267     1.000000
   79.2 Au    1  4f3+         0.058267     1.000000
   80.2 Au    1  4f2-         0.058267     1.000000
   81.2 Au    1  4f3-         0.058267     1.000000
   82.2 Au    1  4f2+         0.058267     1.000000
   83.2 Au    1  6h1+         2.564700     1.000000
   84.2 Au    1  6h1-         2.564700     1.000000
   85.2 Au    1  6h2+         2.564700     1.000000
   86.2 Au    1  6h3+         2.564700     1.000000
   87.2 Au    1  6h4-         2.564700     1.000000
   88.2 Au    1  6h3-         2.564700     1.000000
   89.2 Au    1  6h4+         2.564700     1.000000
   90.2 Au    1  6h5-         2.564700     1.000000
   91.2 Au    1  6h0          2.564700     1.000000
   92.2 Au    1  6h5+         2.564700     1.000000
   93.2 Au    1  6h2-         2.564700     1.000000

 NUCLEAR CHARGE:                   35
 NUMBER OF PRIMITIVE AOS:         342
 NUMBER OF SYMMETRY AOS:          270
 NUMBER OF CONTRACTIONS:          186   (   93Ag  +   93Au  )
 NUMBER OF INNER CORE ORBITALS:     5   (    2Ag  +    3Au  )
 NUMBER OF OUTER CORE ORBITALS:     9   (    6Ag  +    3Au  )
 NUMBER OF VALENCE ORBITALS:        4   (    1Ag  +    3Au  )


 NUCLEAR REPULSION ENERGY    0.00000000

 One-electron integrals computed with SEWARD

 eXact-2-Component (X2C) method activated

 Computing Douglas-Kroll / X2C integrals

 AO integral compression algorithm  1   Integral accuracy      1.0D-11

     140.247 MB (compressed) written to integral file ( 12.8%)

     Node minimum: 30.147 MB, node maximum: 66.847 MB


 NUMBER OF SORTED TWO-ELECTRON INTEGRALS:   25478559.     BUFFER LENGTH:  32768
 NUMBER OF SEGMENTS:   2  SEGMENT LENGTH:   15997860      RECORD LENGTH: 524288

 Memory used in sort:      16.55 MW

 SORT1 READ   136462603. AND WROTE     4557153. INTEGRALS IN     14 RECORDS. CPU TIME:     0.52 SEC, REAL TIME:     0.56 SEC
 SORT2 READ    14107411. AND WROTE    76426935. INTEGRALS IN    495 RECORDS. CPU TIME:     0.31 SEC, REAL TIME:     0.35 SEC

 Node minimum:    25472731.  Node maximum:    25478559. integrals

 OPERATOR DM      FOR CENTER  0  COORDINATES:    0.000000    0.000000    0.000000

 EXTRA SYMMETRY OF AOS IN SYMMETRY 1:   1 1 1 1 1 1 1 1 1 1   1 1 2 3 4 5 6 2 3 4   5 6 2 3 4 5 6 2 3 4   5 6 2 3 4 5 6 2 3 4
                                        5 6 2 3 4 5 6 2 3 4   5 6 2 3 4 5 6 7 8 9  101112131415 7 8 910  1112131415 7 8 91011
                                       12131415 7 8 9101112  131415
 EXTRA SYMMETRY OF AOS IN SYMMETRY 2:   1 2 3 1 2 3 1 2 3 1   2 3 1 2 3 1 2 3 1 2   3 1 2 3 1 2 3 1 2 3   1 2 3 4 5 6 7 8 910
                                        4 5 6 7 8 910 4 5 6   7 8 910 4 5 6 7 8 9  10 4 5 6 7 8 910 4 5   6 7 8 910 4 5 6 7 8
                                        9101112131415161718  192021

 Eigenvalues of metric

         1 0.264E-05 0.207E-03 0.275E-02 0.698E-02 0.791E-02 0.791E-02 0.791E-02 0.791E-02
         2 0.121E-04 0.121E-04 0.121E-04 0.377E-03 0.377E-03 0.377E-03 0.225E-01 0.225E-01


 **********************************************************************************************************************************
 DATASETS  * FILE   NREC   LENGTH (MB)   RECORD NAMES
              1      22       30.04       500      610      700      900      950      970     1000      129      960     1700   
                                          VAR    BASINP    GEOM    SYMINP    ZMAT    AOBASIS   BASIS     P2S    ABASIS    OPER   
                                         1101     1401     1411     1412     1650     1100     1400     1410     1200     1210   
                                          SR      EKINR    POTR     PVPR    MOLCAS      S      EKIN      POT      H0       H01  
                                         1080     1600   
                                         AOSYM     SMH  

 PROGRAMS   *        TOTAL       INT
 CPU TIMES  *         6.43      6.28
 REAL TIME  *         7.93 SEC
 DISK USED  *        30.42 MB (local),      375.43 MB (total)
 GA USED    *         0.00 MB       (max)       0.00 MB       (current)
 **********************************************************************************************************************************


 Program * Restricted Hartree-Fock


   Atom=BR basis=MINAO             lmin=0  lmax=2

 Orbital guess generated from atomic densities.

 Initial occupancy:   9   9

 NELEC=   36   SYM=1   MS2= 0   THRE=1.0D-08   THRD=3.2D-06   THRG=3.2D-06  HFMA2=F  DIIS_START=2   DIIS_MAX=10   DIIS_INCORE=F

 Level shifts:    0.00 (CLOSED)    0.00 (OPEN)    0.30 (GAP_MIN)

 ITER           ETOT              DE          GRAD        DDIFF     DIIS  NEXP   TIME(IT)  TIME(TOT)  DIAG
   1    -2604.54703423   -2604.54703423     0.00D+00     0.92D-01     0     0       0.11      0.23    start
   2    -2604.59362138      -0.04658715     0.17D-01     0.13D-01     1     0       0.10      0.33    diag
   3    -2604.60690019      -0.01327880     0.82D-02     0.54D-02     2     0       0.12      0.45    diag
   4    -2604.60756065      -0.00066047     0.13D-02     0.93D-03     3     0       0.10      0.55    diag
   5    -2604.60764533      -0.00008468     0.12D-03     0.39D-03     4     0       0.11      0.66    diag
   6    -2604.60765245      -0.00000712     0.34D-04     0.11D-03     5     0       0.11      0.77    diag
   7    -2604.60765271      -0.00000026     0.67D-05     0.21D-04     6     0       0.11      0.88    diag
   8    -2604.60765274      -0.00000003     0.18D-05     0.75D-05     7     0       0.11      0.99    fixocc
   9    -2604.60765274      -0.00000000     0.31D-06     0.17D-05     8     0       0.10      1.09    diag
  10    -2604.60765274      -0.00000000     0.46D-07     0.32D-06     0     0       0.11      1.20    diag/orth

 Final occupancy:   9   9

 !RHF STATE 1.1 Energy              -2604.607652738952
  RHF One-electron energy           -3634.576423726819
  RHF Two-electron energy            1029.968770987868
  RHF Kinetic energy                 2786.640194251970
  RHF Nuclear energy                    0.000000000000
  RHF Virial quotient                  -0.934676697089

 !RHF STATE 1.1 Dipole moment           0.00000000     0.00000000     0.00000000
 Dipole moment /Debye                   0.00000000     0.00000000     0.00000000

 ELECTRON ORBITALS
 =================

  Orbital  Occupation    Energy    Cen Mu Typ  Coefficients
    1.1     2.00000  -497.89738     1  1  s    0.99998
    2.1     2.00000   -66.75885     1  2  s    0.99986
    3.1     2.00000    -9.85678     1  3  s    0.99990
    4.1     2.00000    -2.81603     1  1  d2+  0.99967
    5.1     2.00000    -2.81603     1  1  d2-  0.99971
    6.1     2.00000    -2.81603     1  1  d1+  0.99971
    7.1     2.00000    -2.81603     1  1  d1-  0.99899
    8.1     2.00000    -2.81603     1  1  d0   0.99913
    9.1     2.00000    -0.71233     1  4  s    0.96109
    1.2     2.00000   -58.65722     1  1  px   1.00014
    2.2     2.00000   -58.65722     1  1  py   1.00014
    3.2     2.00000   -58.65722     1  1  pz   1.00014
    4.2     2.00000    -7.20983     1  2  px   0.99933
    5.2     2.00000    -7.20983     1  2  pz   0.99920
    6.2     2.00000    -7.20983     1  2  py   0.99920
    7.2     2.00000    -0.13760     1  3  pz   0.91630
    8.2     2.00000    -0.13760     1  3  px   0.91630
    9.2     2.00000    -0.13760     1  3  py   0.91630


 HOMO      9.2    -0.137601 =      -3.7443eV
 LUMO     10.2     0.108823 =       2.9612eV
 LUMO-HOMO         0.246423 =       6.7055eV

 Orbitals saved in record  2100.2


 **********************************************************************************************************************************
 DATASETS  * FILE   NREC   LENGTH (MB)   RECORD NAMES
              1      22       30.04       500      610      700      900      950      970     1000      129      960     1700   
                                          VAR    BASINP    GEOM    SYMINP    ZMAT    AOBASIS   BASIS     P2S    ABASIS    OPER   
                                         1101     1401     1411     1412     1650     1100     1400     1410     1200     1210   
                                          SR      EKINR    POTR     PVPR    MOLCAS      S      EKIN      POT      H0       H01  
                                         1080     1600   
                                         AOSYM     SMH  

              2       4        0.67       700     1000      520     2100   
                                         GEOM     BASIS   MCVARS     RHF  

 PROGRAMS   *        TOTAL   RHF-SCF       INT
 CPU TIMES  *         7.63      1.20      6.28
 REAL TIME  *         9.24 SEC
 DISK USED  *        31.95 MB (local),      380.03 MB (total)
 GA USED    *         0.00 MB       (max)       0.00 MB       (current)
 **********************************************************************************************************************************
 SETTING NSING          =         3.00000000                                  
 SETTING NTRIP          =         8.00000000                                  

 PROGRAM * MULTI (Direct Multiconfiguration SCF)       Authors: P.J. Knowles, H.-J. Werner (1984)
                                                                D.A. Kreplin, P.J. Knowles, H.-J. Werner (2019)

 Number of closed-shell orbitals:  14 (    8    6)
 Number of active  orbitals:        8 (    2    6)
 Number of external orbitals:     164 (   83   81)

 State symmetry 1

 Number of active electrons:   7    Spin symmetry=Doublet   Space symmetry=2
 Number of states:             3
 Number of CSFs:            1204   (1980 determinants, 3920 intermediate states)

 State symmetry 2

 Number of active electrons:   7    Spin symmetry=Quartet   Space symmetry=2
 Number of states:             8
 Number of CSFs:             656   (776 determinants, 1568 intermediate states)

 Molecular orbitals read from record     2100.2  Type=RHF/CANONICAL  
 *** IN SYMMETRY 1 ORBITAL  4 SYMMETRY CONTAMINATION OF 0.338D-01 HAS BEEN REMOVED
 *** IN SYMMETRY 1 ORBITAL  5 SYMMETRY CONTAMINATION OF 0.276D-01 HAS BEEN REMOVED
 *** IN SYMMETRY 1 ORBITAL  6 SYMMETRY CONTAMINATION OF 0.284D-01 HAS BEEN REMOVED
 *** IN SYMMETRY 1 ORBITAL  7 SYMMETRY CONTAMINATION OF 0.629D-01 HAS BEEN REMOVED
 *** IN SYMMETRY 1 ORBITAL  8 SYMMETRY CONTAMINATION OF 0.417D-01 HAS BEEN REMOVED

 EXTRA SYMMETRY OF MOS IN SYMMETRY 1:   1 1 1 5 3 4 6 2 1 1   5 3 4 6 2 1 3 5 2 6   4 1 4 6 2 3 5 2 5 3   4 6 7151412 8 91113
                                       10 111 912 8 7101315  14 5 3 4 6 2 1 2 5 3   4 612 8111013 9 714  15 1 2 4 6 5 3151411
                                       10 913 812 7 6 4 3 5   2 1 1
 *** IN SYMMETRY 2 ORBITAL  1 SYMMETRY CONTAMINATION OF 0.445D-03 HAS BEEN REMOVED
 *** IN SYMMETRY 2 ORBITAL  2 SYMMETRY CONTAMINATION OF 0.319D-03 HAS BEEN REMOVED
 *** IN SYMMETRY 2 ORBITAL  3 SYMMETRY CONTAMINATION OF 0.460D-03 HAS BEEN REMOVED
 *** IN SYMMETRY 2 ORBITAL  5 SYMMETRY CONTAMINATION OF 0.162D-01 HAS BEEN REMOVED
 *** IN SYMMETRY 2 ORBITAL  6 SYMMETRY CONTAMINATION OF 0.162D-01 HAS BEEN REMOVED
 *** IN SYMMETRY 2 ORBITAL  7 SYMMETRY CONTAMINATION OF 0.346D-03 HAS BEEN REMOVED
 *** IN SYMMETRY 2 ORBITAL  9 SYMMETRY CONTAMINATION OF 0.346D-03 HAS BEEN REMOVED
 *** IN SYMMETRY 2 ORBITAL 10 SYMMETRY CONTAMINATION OF 0.129D-03 HAS BEEN REMOVED
 *** IN SYMMETRY 2 ORBITAL 11 SYMMETRY CONTAMINATION OF 0.204D-03 HAS BEEN REMOVED
 *** IN SYMMETRY 2 ORBITAL 12 SYMMETRY CONTAMINATION OF 0.108D-03 HAS BEEN REMOVED
 EXTRA SYMMETRY OF MOS IN SYMMETRY 2:   1 2 3 1 3 2 3 1 2 3   1 2 3 1 2 6 4 510 8   9 7 3 1 2 7 9 6 4 5   810 3 1 2 7 9 4 5 6
                                       10 8 9 7 5 4 610 8 3   2 1 9 710 8 6 5 4 3   1 21614121119132117  152018 9 710 8 6 5 4
                                        3 1 2 810 6 5 4 9 7   3 1 2

 Wavefunction dump at record             2140.2

 Convergence thresholds  0.10E-04 (gradient)  0.10E-05 (energy)

 Weight factors for state symmetry  1:    0.09091   0.09091   0.09091
 Weight factors for state symmetry  2:    0.09091   0.09091   0.09091   0.09091   0.09091   0.09091   0.09091   0.09091
 
 Number of orbital rotations:  1854  ( 52 closed/active, 1150 closed/virtual, 0 active/active, 652 active/virtual )
 Total number of variables:    14002
 
 Second-order MCSCF: L-BFGS accelerated
 
 ITER  MIC  NCI  NEG     ENERGY(VAR)    ENERGY(PROJ) ENERGY CHANGE       GRAD(0)  GRAD(ORB)   GRAD(CI)      STEP      TIME
   1   24   94    0  -2604.15261293   -2604.32122575   -0.16861282    0.45881269 0.00558912 0.00243373  0.15E+01      2.75
   2    8   33    0  -2604.26914659   -2604.28958192   -0.02043533    0.75869787 0.00022225 0.00073862  0.46E+00      4.61
   3    8   33    0  -2604.28971882   -2604.28972245   -0.00000363    0.00694753 0.00000254 0.00001039  0.79E-02      6.46
   4    5   23    0  -2604.28972245   -2604.28972245   -0.00000000    0.00000158 0.00000001 0.00000027  0.12E-03      7.98

 CONVERGENCE REACHED!  Final gradient:    0.00000008 ( 0.84E-07)
                       Final energy:  -2604.28972245
 
 Results for state 1.2 Doublet
 =============================
 !MCSCF STATE 1.2 Doublet Energy             -2604.509628495783
 Nuclear energy                                  0.00000000
 Kinetic energy                               2787.30236359
 One electron energy                         -3624.56423790
 Two electron energy                          1020.05460940
 Virial ratio                                    1.93441948
 
 !MCSCF STATE 1.2 Doublet Dipole moment          0.00000000     0.00000000     0.00000000
 Dipole moment /Debye                            0.00000000     0.00000000     0.00000000
 
 Results for state 2.2 Doublet
 =============================
 !MCSCF STATE 2.2 Doublet Energy             -2604.509628495774
 Nuclear energy                                  0.00000000
 Kinetic energy                               2787.30236359
 One electron energy                         -3624.56423790
 Two electron energy                          1020.05460940
 Virial ratio                                    1.93441948
 
 !MCSCF STATE 2.2 Doublet Dipole moment          0.00000000     0.00000000     0.00000000
 Dipole moment /Debye                            0.00000000     0.00000000     0.00000000
 
 Results for state 3.2 Doublet
 =============================
 !MCSCF STATE 3.2 Doublet Energy             -2604.509628495759
 Nuclear energy                                  0.00000000
 Kinetic energy                               2787.30236359
 One electron energy                         -3624.56423790
 Two electron energy                          1020.05460940
 Virial ratio                                    1.93441948
 
 !MCSCF STATE 3.2 Doublet Dipole moment          0.00000000     0.00000000     0.00000000
 Dipole moment /Debye                            0.00000000     0.00000000     0.00000000
 
 Results for state 1.2 Quartet
 =============================
 !MCSCF STATE 1.2 Quartet Energy             -2604.211387543447
 Nuclear energy                                  0.00000000
 Kinetic energy                               2785.97122317
 One electron energy                         -3613.23896548
 Two electron energy                          1009.02757794
 Virial ratio                                    1.93475890
 
 !MCSCF STATE 1.2 Quartet Dipole moment          0.00000000     0.00000000     0.00000000
 Dipole moment /Debye                            0.00000000     0.00000000     0.00000000
 
 Results for state 2.2 Quartet
 =============================
 !MCSCF STATE 2.2 Quartet Energy             -2604.211387543441
 Nuclear energy                                  0.00000000
 Kinetic energy                               2785.97122317
 One electron energy                         -3613.23896548
 Two electron energy                          1009.02757794
 Virial ratio                                    1.93475890
 
 !MCSCF STATE 2.2 Quartet Dipole moment          0.00000000     0.00000000     0.00000000
 Dipole moment /Debye                            0.00000000     0.00000000     0.00000000
 
 Results for state 3.2 Quartet
 =============================
 !MCSCF STATE 3.2 Quartet Energy             -2604.211387543424
 Nuclear energy                                  0.00000000
 Kinetic energy                               2785.97122317
 One electron energy                         -3613.23896548
 Two electron energy                          1009.02757794
 Virial ratio                                    1.93475890
 
 !MCSCF STATE 3.2 Quartet Dipole moment          0.00000000     0.00000000     0.00000000
 Dipole moment /Debye                            0.00000000     0.00000000     0.00000000
 
 Results for state 4.2 Quartet
 =============================
 !MCSCF STATE 4.2 Quartet Energy             -2604.204779775274
 Nuclear energy                                  0.00000000
 Kinetic energy                               2785.98859529
 One electron energy                         -3613.28985990
 Two electron energy                          1009.08508012
 Virial ratio                                    1.93475070
 
 !MCSCF STATE 4.2 Quartet Dipole moment          0.00000000     0.00000000     0.00000000
 Dipole moment /Debye                            0.00000000     0.00000000     0.00000000
 
 Results for state 5.2 Quartet
 =============================
 !MCSCF STATE 5.2 Quartet Energy             -2604.204779775267
 Nuclear energy                                  0.00000000
 Kinetic energy                               2785.98859529
 One electron energy                         -3613.28985990
 Two electron energy                          1009.08508012
 Virial ratio                                    1.93475070
 
 !MCSCF STATE 5.2 Quartet Dipole moment          0.00000000     0.00000000     0.00000000
 Dipole moment /Debye                            0.00000000     0.00000000     0.00000000
 
 Results for state 6.2 Quartet
 =============================
 !MCSCF STATE 6.2 Quartet Energy             -2604.204779775261
 Nuclear energy                                  0.00000000
 Kinetic energy                               2785.98859529
 One electron energy                         -3613.28985990
 Two electron energy                          1009.08508012
 Virial ratio                                    1.93475070
 
 !MCSCF STATE 6.2 Quartet Dipole moment          0.00000000     0.00000000     0.00000000
 Dipole moment /Debye                            0.00000000     0.00000000     0.00000000
 
 Results for state 7.2 Quartet
 =============================
 !MCSCF STATE 7.2 Quartet Energy             -2604.204779775243
 Nuclear energy                                  0.00000000
 Kinetic energy                               2785.98859529
 One electron energy                         -3613.28985990
 Two electron energy                          1009.08508012
 Virial ratio                                    1.93475070
 
 !MCSCF STATE 7.2 Quartet Dipole moment          0.00000000     0.00000000     0.00000000
 Dipole moment /Debye                            0.00000000     0.00000000     0.00000000
 
 Results for state 8.2 Quartet
 =============================
 !MCSCF STATE 8.2 Quartet Energy             -2604.204779775241
 Nuclear energy                                  0.00000000
 Kinetic energy                               2785.98859529
 One electron energy                         -3613.28985990
 Two electron energy                          1009.08508012
 Virial ratio                                    1.93475070
 
 !MCSCF STATE 8.2 Quartet Dipole moment          0.00000000     0.00000000     0.00000000
 Dipole moment /Debye                            0.00000000     0.00000000     0.00000000
 
 State-averaged charge density matrix saved on record 2140.2 (density set 1)
 
 No non-zero expectation values
 
 Expectation values for two-electron operators:
 
 ? Warning
 ? Transition properties are only calculated between states of the same symmetry
 ? The problem occurs in mu_properties_expec2

 !MCSCF expec      <1.2 Doublet|LXLX|1.2 Doublet>     0.999999868030
 !MCSCF expec      <2.2 Doublet|LXLX|2.2 Doublet>     0.000000637311
 !MCSCF expec      <3.2 Doublet|LXLX|3.2 Doublet>     0.999999494658
 !MCSCF expec      <1.2 Quartet|LXLX|1.2 Quartet>     0.999996752338
 !MCSCF expec      <2.2 Quartet|LXLX|2.2 Quartet>     0.000003266619
 !MCSCF expec      <3.2 Quartet|LXLX|3.2 Quartet>     0.999999981043
 !MCSCF expec      <4.2 Quartet|LXLX|4.2 Quartet>     2.582560519135
 !MCSCF expec      <5.2 Quartet|LXLX|5.2 Quartet>     1.000000949889
 !MCSCF expec      <6.2 Quartet|LXLX|6.2 Quartet>     3.999998769488
 !MCSCF expec      <7.2 Quartet|LXLX|7.2 Quartet>     1.417439715882
 !MCSCF expec      <8.2 Quartet|LXLX|8.2 Quartet>     1.000000045606
 
 !MCSCF expec      <1.2 Doublet|LYLY|1.2 Doublet>     0.000001283112
 !MCSCF expec      <2.2 Doublet|LYLY|2.2 Doublet>     0.999999868584
 !MCSCF expec      <3.2 Doublet|LYLY|3.2 Doublet>     0.999998848304
 !MCSCF expec      <1.2 Quartet|LYLY|1.2 Quartet>     0.000003553300
 !MCSCF expec      <2.2 Quartet|LYLY|2.2 Quartet>     0.999996752065
 !MCSCF expec      <3.2 Quartet|LYLY|3.2 Quartet>     0.999999694635
 !MCSCF expec      <4.2 Quartet|LYLY|4.2 Quartet>     3.365664771676
 !MCSCF expec      <5.2 Quartet|LYLY|5.2 Quartet>     3.999997687899
 !MCSCF expec      <6.2 Quartet|LYLY|6.2 Quartet>     1.000000536188
 !MCSCF expec      <7.2 Quartet|LYLY|7.2 Quartet>     0.634335690476
 !MCSCF expec      <8.2 Quartet|LYLY|8.2 Quartet>     1.000001313760
 
 !MCSCF expec      <1.2 Doublet|LZLZ|1.2 Doublet>     0.999998848857
 !MCSCF expec      <2.2 Doublet|LZLZ|2.2 Doublet>     0.999999494105
 !MCSCF expec      <3.2 Doublet|LZLZ|3.2 Doublet>     0.000001657038
 !MCSCF expec      <1.2 Quartet|LZLZ|1.2 Quartet>     0.999999694362
 !MCSCF expec      <2.2 Quartet|LZLZ|2.2 Quartet>     0.999999981316
 !MCSCF expec      <3.2 Quartet|LZLZ|3.2 Quartet>     0.000000324322
 !MCSCF expec      <4.2 Quartet|LZLZ|4.2 Quartet>     0.051774709189
 !MCSCF expec      <5.2 Quartet|LZLZ|5.2 Quartet>     1.000001362211
 !MCSCF expec      <6.2 Quartet|LZLZ|6.2 Quartet>     1.000000694324
 !MCSCF expec      <7.2 Quartet|LZLZ|7.2 Quartet>     3.948224593642
 !MCSCF expec      <8.2 Quartet|LZLZ|8.2 Quartet>     3.999998640634
 
 !MCSCF expec      <1.2 Doublet|L**2|1.2 Doublet>     2.000000000000
 !MCSCF expec      <2.2 Doublet|L**2|2.2 Doublet>     2.000000000000
 !MCSCF expec      <3.2 Doublet|L**2|3.2 Doublet>     2.000000000000
 !MCSCF expec      <1.2 Quartet|L**2|1.2 Quartet>     2.000000000000
 !MCSCF expec      <2.2 Quartet|L**2|2.2 Quartet>     2.000000000000
 !MCSCF expec      <3.2 Quartet|L**2|3.2 Quartet>     2.000000000000
 !MCSCF expec      <4.2 Quartet|L**2|4.2 Quartet>     6.000000000000
 !MCSCF expec      <5.2 Quartet|L**2|5.2 Quartet>     6.000000000000
 !MCSCF expec      <6.2 Quartet|L**2|6.2 Quartet>     6.000000000000
 !MCSCF expec      <7.2 Quartet|L**2|7.2 Quartet>     6.000000000000
 !MCSCF expec      <8.2 Quartet|L**2|8.2 Quartet>     6.000000000000
 
 EXTRA SYMMETRY OF MOS IN SYMMETRY 1:   1 1 1 5 3 4 6 2 1 1   1 5 3 6 4 2 5 3 2 6   4 1 6 4 2 5 3 2 5 3   6 41415 7 81211 913
                                       10 11013 71112 8 914  15 5 3 4 6 2 1 2 5 3   4 61013 812151411 9   7 1 2 6 4 5 3151411
                                        812 91013 7 6 4 3 5   2 1 1
 EXTRA SYMMETRY OF MOS IN SYMMETRY 2:   2 1 3 1 3 2 3 1 2 3   1 2 3 2 1 6 5 4 810   9 7 3 2 1 7 9 6 5 4   810 3 1 2 7 9 5 4 6
                                        810 9 7 5 4 6 810 3   1 2 9 7 810 6 5 4 3   1 21614201815171221  131911 9 7 810 5 4 6
                                        3 1 2 810 6 5 4 7 9   3 2 1
 
  NATURAL ORBITALS (STATE AVERAGED)
  =================================

  Orbital  Occupation    Energy    Cen Mu Typ  Coefficients
    1.1     2.00000  -498.42989     1  1  s    0.99999
    2.1     2.00000   -67.28923     1  2  s    0.99969
    3.1     2.00000   -10.38026     1  3  s    1.00050
    4.1     2.00000    -3.34372     1  1  d2+  1.00036
    5.1     2.00000    -3.34372     1  1  d2-  1.00036
    6.1     2.00000    -3.34372     1  1  d1+  1.00036
    7.1     2.00000    -3.34372     1  1  d1-  1.00036
    8.1     2.00000    -3.34372     1  1  d0   1.00036
    9.1     1.99789    -1.17711     1  4  s    1.02801
   10.1     0.00243     0.58649     1  3  s   -0.27019    1  4  s   -1.95121    1  5  s   -1.44799    1  6  s    1.85196
                                    1  7  s    1.47974
    1.2     2.00000   -59.18698     1  1  py   1.00020
    2.2     2.00000   -59.18698     1  1  px   1.00020
    3.2     2.00000   -59.18698     1  1  pz   1.00020
    4.2     2.00000    -7.73677     1  2  px   1.00016
    5.2     2.00000    -7.73677     1  2  pz   1.00016
    6.2     2.00000    -7.73677     1  2  py   1.00016
    7.2     1.42212    -0.48995     1  3  pz   1.04044
    8.2     1.42212    -0.48995     1  3  px   1.04044
    9.2     1.42212    -0.48995     1  3  py   1.04044
   10.2     0.24445     0.02726     1  3  pz  -0.29707    1 10  pz   0.66942    1 11  pz   0.43883
   11.2     0.24445     0.02726     1  3  px  -0.29707    1 10  px   0.66942    1 11  px   0.43883
   12.2     0.24445     0.02726     1  3  py  -0.29707    1 10  py   0.66942    1 11  py   0.43883
 
 Natural orbital dump (state averaged) at molpro section 2140.2 (Orbital set 2)
 
 Transform the CI vectors
 
 CI Coefficients of symmetry 2 (Doublet)
 =======================================
 
 20 2a2000     -0.00036017      0.99144364     -0.00070479
 20 22a000      0.99144332      0.00035941     -0.00106399
 20 a22000      0.00106373      0.00070518      0.99144313
 20 2aa00b     -0.00002197      0.06046733     -0.00004298
 20 aa2b00      0.00002197     -0.06046733      0.00004298
 20 2aa0b0     -0.06046731     -0.00002192      0.00006489
 20 a2ab00     -0.06046731     -0.00002192      0.00006489
 20 a2a00b      0.00006488      0.00004301      0.06046729
 20 aa20b0      0.00006488      0.00004301      0.06046729
 
 Energy:    -2604.50962850  -2604.50962850  -2604.50962850
 
 
 CI Coefficients of symmetry 2 (Quartet)
 =======================================

 State:              1               2               3               4               5               6               7
 20 2aaa00      0.00000000     -0.00000000     -0.00000000      0.80957769     -0.00009546      0.00034113     -0.09270752
 20 aa200a      0.00000000      0.00000000     -0.00000000     -0.32450162     -0.00002845     -0.00055041      0.74746854
 20 a2a00a     -0.00039016      0.00009647      0.70573118      0.00003433     -0.00047181      0.00000855     -0.00011485
 20 aa20a0     -0.00039016      0.00009647      0.70573118     -0.00003433      0.00047181     -0.00000855      0.00011485
 20 2aa00a      0.00127182     -0.70573014      0.00009717     -0.00025035     -0.00040050      0.70569663      0.00041095
 20 aa2a00     -0.00127182      0.70573014     -0.00009717     -0.00025035     -0.00040050      0.70569663      0.00041095
 20 2aa0a0      0.70573004      0.00127187      0.00038999     -0.00009068     -0.70569663     -0.00040050     -0.00006643
 20 a2aa00      0.70573004      0.00127187      0.00038999      0.00009068      0.70569663      0.00040050      0.00006643
 20 a2a0a0      0.00000000     -0.00000000     -0.00000000      0.48507606     -0.00012390     -0.00020928      0.65476102
 
 Energy:    -2604.21138754  -2604.21138754  -2604.21138754  -2604.20477978  -2604.20477978  -2604.20477978  -2604.20477978

 State:              8
 20 2aaa00      0.00005454
 20 aa200a     -0.00013742
 20 a2a00a     -0.70569674
 20 aa20a0      0.70569674
 20 2aa00a      0.00000873
 20 aa2a00      0.00000873
 20 2aa0a0      0.00047181
 20 a2aa00     -0.00047181
 20 a2a0a0     -0.00008288
 
 Energy:    -2604.20477978
 


 **********************************************************************************************************************************
 DATASETS  * FILE   NREC   LENGTH (MB)   RECORD NAMES
              1      24       80.89       500      610      700      900      950      970     1000      129      960     1700   
                                          VAR    BASINP    GEOM    SYMINP    ZMAT    AOBASIS   BASIS     P2S    ABASIS    OPER   
                                         1101     1401     1411     1412     1650     1100     1400     1410     1200     1210   
                                          SR      EKINR    POTR     PVPR    MOLCAS      S      EKIN      POT      H0       H01  
                                         1080     1600     1380     1700(1)
                                         AOSYM     SMH     JKOP     OPER   

              2       5        1.44       700     1000      520     2100     2140   
                                         GEOM     BASIS   MCVARS     RHF     MCSCF   

 PROGRAMS   *        TOTAL     MULTI   RHF-SCF       INT
 CPU TIMES  *        14.96      7.32      1.20      6.28
 REAL TIME  *        18.48 SEC
 DISK USED  *        82.44 MB (local),      531.48 MB (total)
 SF USED    *       130.12 MB
 GA USED    *         0.00 MB       (max)       0.00 MB       (current)
 **********************************************************************************************************************************

 Energies and &lt;L**2&gt; values

          ENERGY    LL
    -2604.509628   2.0
    -2604.509628   2.0
    -2604.509628   2.0
    -2604.211388   2.0
    -2604.211388   2.0
    -2604.211388   2.0
    -2604.204780   6.0
    -2604.204780   6.0
    -2604.204780   6.0
    -2604.204780   6.0
    -2604.204780   6.0
                                                  


 PROGRAM * CI (Multireference internally contracted CI)     Authors: H.-J. Werner, P.J. Knowles, 1987


 Convergence thresholds:  THRVAR = 1.00D-08  THRDEN = 1.00D-06

 Number of optimized states: 3  Roots:    1   2   3
 Number of reference states: 3  Roots:    1   2   3

 Reference symmetry:                   2   Doublet 
 Number of electrons:                 35
 Maximum number of shells:             7
 Maximum number of spin couplings:   429

 Reference space:      554 conf     1204 CSFs
 N elec internal:    56699 conf   278292 CSFs
 N-1 el internal:    59743 conf   501108 CSFs
 N-2 el internal:    32490 conf   411156 CSFs

 Number of electrons in valence space:                     25
 Maximum number of open shell orbitals in reference space:  7
 Maximum number of open shell orbitals in internal spaces: 13


 Number of core orbitals:           5 (   2   3 )
 Number of closed-shell orbitals:   9 (   6   3 )
 Number of active  orbitals:        8 (   2   6 )
 Number of external orbitals:     164 (  83  81 )

 Molecular orbitals read from record     2140.2  Type=MCSCF/NATURAL (state averaged)

 Integral transformation finished. Total CPU:   0.57 sec, npass=  1  Memory used:   3.27 MW


 Number of p-space configurations:  30

 Reference wavefunction optimized for reference space (refopt=1)

 State     Reference Energy 
     1     -2604.50962850
     2     -2604.50962850
     3     -2604.50962850

 Number of blocks in overlap matrix:   383   Smallest eigenvalue:  0.18D-06
 Number of N-2 electron functions:     867
 Number of N-1 electron functions:  501108

 Number of internal configurations:               139300
 Number of singly external configurations:      41090308
 Number of doubly external configurations:       5833893
 Total number of contracted configurations:     47063501
 Total number of uncontracted configurations: 2800766564

 Diagonal Coupling coefficients finished.               Storage:  64529615 words, CPU-Time:    188.47 seconds.
 Energy denominators for pairs finished in 1 passes.    Storage:   5779166 words, CPU-time:      0.40 seconds.

  ITER. STATE  ROOT     SQ.NORM     CORR.ENERGY   TOTAL ENERGY   ENERGY CHANGE       DEN1      VAR(S)    VAR(P)      TIME
    1     1     1     1.00000000     0.00000000 -2604.50962850     0.00000000    -1.14013422  0.41D-01  0.67D-01   223.38
    1     2     2     1.00000000     0.00000000 -2604.50962850    -0.00000000    -1.14014914  0.41D-01  0.67D-01   223.38
    1     3     3     1.00000000     0.00000000 -2604.50962850    -0.00000000    -1.14012716  0.41D-01  0.67D-01   223.38
    2     1     1     1.07662363    -0.95756777 -2605.46719627    -0.95756777    -0.02513506  0.46D-02  0.10D-02  3217.28
    2     2     2     1.07662952    -0.95756241 -2605.46719091    -0.95756241    -0.02514029  0.46D-02  0.10D-02  3217.28
    2     3     3     1.07662630    -0.95756241 -2605.46719090    -0.95756241    -0.02513711  0.46D-02  0.10D-02  3217.28
    3     1     1     1.06537267    -0.98111484 -2605.49074333    -0.02354706    -0.00061674  0.58D-04  0.61D-04  6210.35
    3     2     2     1.06537480    -0.98111467 -2605.49074317    -0.02355226    -0.00061679  0.58D-04  0.61D-04  6210.35
    3     3     3     1.06537517    -0.98111465 -2605.49074315    -0.02355225    -0.00061680  0.58D-04  0.61D-04  6210.35
    4     1     1     1.06559715    -0.98178006 -2605.49140855    -0.00066522    -0.00003438  0.11D-05  0.47D-05  9204.49
    4     2     2     1.06559754    -0.98178002 -2605.49140851    -0.00066535    -0.00003440  0.11D-05  0.47D-05  9204.49
    4     3     3     1.06559766    -0.98178001 -2605.49140851    -0.00066536    -0.00003441  0.11D-05  0.47D-05  9204.49
    5     1     1     1.06598717    -0.98182004 -2605.49144854    -0.00003999    -0.00000223  0.85D-07  0.29D-06 12203.87
    5     2     2     1.06598703    -0.98182004 -2605.49144854    -0.00004002    -0.00000223  0.85D-07  0.29D-06 12203.87
    5     3     3     1.06598698    -0.98182004 -2605.49144854    -0.00004003    -0.00000223  0.85D-07  0.29D-06 12203.87
    6     1     1     1.06603986    -0.98182270 -2605.49145120    -0.00000266    -0.00000016  0.88D-08  0.19D-07 15209.90
    6     2     2     1.06603985    -0.98182270 -2605.49145120    -0.00000266    -0.00000016  0.88D-08  0.19D-07 15209.90
    6     3     3     1.06603988    -0.98182270 -2605.49145120    -0.00000266    -0.00000016  0.88D-08  0.19D-07 15209.90
    7     1     1     1.06604680    -0.98182288 -2605.49145138    -0.00000019    -0.00000001  0.61D-09  0.16D-08 18211.03
    7     2     2     1.06604680    -0.98182288 -2605.49145138    -0.00000019    -0.00000001  0.61D-09  0.16D-08 18211.03
    7     3     3     1.06604681    -0.98182288 -2605.49145138    -0.00000019    -0.00000001  0.61D-09  0.16D-08 18211.03


 =====================================
 Analysis of CPU times by interactions
 =====================================

       I      S      P

 I   0.5%
 S   0.3%  49.3%
 P   0.2%  42.8%   5.0%

 Initialization:   1.0%
 Other:            0.8%

 Total CPU:    18211.0 seconds
 =====================================



 Wavefunction saved on  5203.2

 Reference coefficients greater than 0.0500000
 =============================================
 22222220222/22000          -0.2261133   0.1377187   0.9250994
 222222202222/2000          -0.3968635   0.8476940  -0.2231971
 2222222022222/000           0.8469207   0.4339944   0.1423965
 22222220222/2/00\          -0.0148043   0.0090168   0.0605688
 22222220222//20\0          -0.0148043   0.0090168   0.0605688
 222222202222//00\          -0.0259837   0.0555009  -0.0146133
 22222220222//2\00           0.0259837  -0.0555008   0.0146133
 222222202222//0\0          -0.0554502  -0.0284148  -0.0093231
 22222220222/2/\00          -0.0554502  -0.0284148  -0.0093231

 Coefficients of fixed reference functions:
 ==========================================

 State      Coefficients
 1           0.852282   -0.399376   -0.227545
 2           0.436742    0.853060    0.138590
 3           0.143298   -0.224610    0.930955

 Coefficients of rotated reference functions:
 ============================================

 State      Coefficients
 1           0.968329    0.000000    0.000000
 2           0.000000    0.968329   -0.000000
 3           0.000000   -0.000000    0.968329


 RESULTS FOR STATE 1.2
 =====================

 Coefficient of reference function:   C(0) = 0.85228159 (fixed)   0.96850342 (relaxed)   0.96832915 (rotated)

 Energy contributions of configuration classes

 CLASS          SQ.NORM        ECORR1        ECORR2
 +++++++++++++++++++++++++++++++++++++++++++++++++++
 Internals    0.00040930   -0.00047098   -1.06321855
 Singles      0.01319244   -0.06390745   -0.07206644
 Pairs        0.05288139    0.21558735    0.15346210
 Total        1.06648314    0.15120892   -0.98182288
 +++++++++++++++++++++++++++++++++++++++++++++++++++


 Reference energy                   -2604.50962850
 Nuclear energy                         0.00000000
 Kinetic energy                      2787.67988764
 One electron energy                -3622.69292033
 Two electron energy                 1017.20146895
 Virial quotient                       -0.93464514
 Correlation energy                    -0.98182288
 !MRCI STATE 1.2 Energy             -2605.491451380702

 Properties without orbital relaxation:

 !MRCI STATE 1.2 Dipole moment          0.00000000     0.00000000     0.00000000
 Dipole moment /Debye                   0.00000000     0.00000000     0.00000000

 Cluster corrected energies         -2605.55672605 (Davidson, fixed reference)
 Cluster corrected energies         -2605.55634925 (Davidson, relaxed reference)
 Cluster corrected energies         -2605.55672605 (Davidson, rotated reference)

 Cluster corrected energies         -2605.55477199 (Pople, fixed reference)
 Cluster corrected energies         -2605.55438546 (Pople, relaxed reference)
 Cluster corrected energies         -2605.55477199 (Pople, rotated reference)



 RESULTS FOR STATE 2.2
 =====================

[...]

   36    6.2  1.5 -1.5   0.123573476  -0.139888988   0.116991341  -0.023367679  -0.137652646  -0.173583783
                        -0.020755267   0.007621260   0.349379500  -0.001484328   0.000120633  -0.109931906

   37    7.2  1.5 -1.5   0.002483249   0.008223631   0.001750730   0.013261987  -0.000026052   0.000071915
                         0.006129462   0.115962133  -0.001138020  -0.397341903   0.055388659  -0.000033378

   38    8.2  1.5 -1.5  -0.009608388  -0.027335629   0.002363702   0.004117140   0.000040465   0.000039141
                        -0.023604324  -0.395807010  -0.001325508  -0.116352014  -0.429820242  -0.000199590


 Composition of spin-orbit eigenvectors
 ======================================

   Nr   State  S   Sz       1        2        3        4        5        6        7        8        9       10

    1    1.2  0.5  0.5  38.358%   7.264%  17.392%   3.648%   1.840%  31.490%   0.000%   0.000%   0.000%   0.000%
    2    2.2  0.5  0.5  18.015%   0.812%  39.167%   8.668%   0.683%  32.647%   0.000%   0.000%   0.000%   0.000%
    3    3.2  0.5  0.5  23.506%  12.103%  13.251%  17.801%  30.807%   2.523%   0.000%   0.000%   0.000%   0.000%
    4    1.2  0.5 -0.5   7.243%  38.337%   3.641%  17.441%  31.490%   1.840%   0.000%   0.000%   0.000%   0.000%
    5    2.2  0.5 -0.5   0.814%  17.966%   8.683%  39.199%  32.647%   0.683%   0.000%   0.000%   0.000%   0.000%
    6    3.2  0.5 -0.5  12.058%  23.510%  17.858%  13.236%   2.523%  30.807%   0.000%   0.000%   0.000%   0.000%
    7    1.2  1.5  1.5   0.000%   0.000%   0.001%   0.000%   0.000%   0.000%   0.372%   1.759%   3.611%   6.864%
    8    2.2  1.5  1.5   0.001%   0.000%   0.000%   0.000%   0.000%   0.000%   0.423%   1.945%   5.197%   3.817%
    9    3.2  1.5  1.5   0.000%   0.000%   0.000%   0.000%   0.000%   0.000%   0.415%   0.112%   0.392%   0.110%
   10    4.2  1.5  1.5   0.000%   0.000%   0.000%   0.000%   0.000%   0.002%   0.010%   1.092%   0.065%   0.047%
   11    5.2  1.5  1.5   0.000%   0.000%   0.000%   0.000%   0.000%   0.000%   0.498%   0.015%   3.440%   0.318%
   12    6.2  1.5  1.5   0.000%   0.000%   0.000%   0.000%   0.000%   0.000%   0.408%   0.019%   1.402%   0.158%
   13    7.2  1.5  1.5   0.001%   0.000%   0.000%   0.000%   0.000%   0.000%   0.002%   1.205%   0.128%   2.560%
   14    8.2  1.5  1.5   0.000%   0.000%   0.000%   0.000%   0.000%   0.002%   0.012%   0.814%   0.016%   0.012%
   15    1.2  1.5  0.5   0.000%   0.000%   0.001%   0.000%   0.000%   0.000%   4.356%   9.386%  21.879%   1.892%
   16    2.2  1.5  0.5   0.000%   0.000%   0.000%   0.000%   0.000%   0.000%   2.842%  13.461%  15.617%  11.147%
   17    3.2  1.5  0.5   0.001%   0.000%   0.000%   0.000%   0.000%   0.000%   0.085%   1.977%   0.071%   6.114%
   18    4.2  1.5  0.5   0.000%   0.000%   0.000%   0.000%   0.000%   0.000%   3.201%   0.264%   0.063%   0.024%
   19    5.2  1.5  0.5   0.000%   0.000%   0.000%   0.000%   0.000%   0.001%   0.033%   1.780%   0.031%   0.024%
   20    6.2  1.5  0.5   0.000%   0.000%   0.000%   0.000%   0.000%   0.001%   0.179%   2.473%   0.131%   0.144%
   21    7.2  1.5  0.5   0.000%   0.000%   0.000%   0.000%   0.002%   0.000%   0.445%   0.015%   0.749%   0.094%
   22    8.2  1.5  0.5   0.000%   0.001%   0.000%   0.000%   0.000%   0.000%   2.816%   0.012%   1.554%   0.069%
   23    1.2  1.5 -0.5   0.000%   0.000%   0.000%   0.001%   0.000%   0.000%  15.289%  20.454%   0.097%   0.784%
   24    2.2  1.5 -0.5   0.000%   0.000%   0.000%   0.000%   0.000%   0.000%  20.327%  17.496%   2.057%   0.061%
   25    3.2  1.5 -0.5   0.000%   0.001%   0.000%   0.000%   0.000%   0.000%  10.729%   0.049%  24.076%   1.786%
   26    4.2  1.5 -0.5   0.000%   0.000%   0.000%   0.000%   0.000%   0.000%   0.200%   1.954%   0.555%   0.220%
   27    5.2  1.5 -0.5   0.000%   0.000%   0.000%   0.000%   0.001%   0.000%   0.052%   0.022%   2.676%   0.294%
   28    6.2  1.5 -0.5   0.000%   0.000%   0.000%   0.000%   0.001%   0.000%   0.993%   0.084%   1.274%   0.351%
   29    7.2  1.5 -0.5   0.000%   0.000%   0.000%   0.000%   0.000%   0.002%   0.017%   1.023%   0.059%   0.206%
   30    8.2  1.5 -0.5   0.001%   0.000%   0.000%   0.000%   0.000%   0.000%   0.017%   0.065%   0.571%   7.431%
   31    1.2  1.5 -1.5   0.000%   0.000%   0.000%   0.001%   0.000%   0.000%  12.043%   8.095%   5.781%  11.975%
   32    2.2  1.5 -1.5   0.000%   0.001%   0.000%   0.000%   0.000%   0.000%  16.200%   8.393%   0.893%  11.970%
   33    3.2  1.5 -1.5   0.000%   0.000%   0.000%   0.000%   0.000%   0.000%   0.339%   0.290%   3.748%  26.899%
   34    4.2  1.5 -1.5   0.000%   0.000%   0.000%   0.000%   0.002%   0.000%   0.263%   0.038%   1.377%   0.093%
   35    5.2  1.5 -1.5   0.000%   0.000%   0.000%   0.000%   0.000%   0.000%   0.004%   4.881%   0.072%   1.746%
   36    6.2  1.5 -1.5   0.000%   0.000%   0.000%   0.000%   0.000%   0.000%   0.014%   0.803%   0.158%   2.632%
   37    7.2  1.5 -1.5   0.000%   0.001%   0.000%   0.000%   0.000%   0.000%   7.407%   0.014%   0.935%   0.033%
   38    8.2  1.5 -1.5   0.000%   0.000%   0.000%   0.000%   0.002%   0.000%   0.010%   0.009%   1.324%   0.126%

   Nr   State  S   Sz      11       12       13       14       15       16       17       18       19       20

    1    1.2  0.5  0.5   0.000%   0.000%   0.000%   0.000%   0.000%   0.000%   0.000%   0.000%   0.000%   0.000%
    2    2.2  0.5  0.5   0.000%   0.000%   0.000%   0.000%   0.000%   0.000%   0.000%   0.000%   0.000%   0.000%
    3    3.2  0.5  0.5   0.000%   0.000%   0.000%   0.000%   0.000%   0.000%   0.000%   0.000%   0.000%   0.000%
    4    1.2  0.5 -0.5   0.000%   0.000%   0.000%   0.000%   0.000%   0.000%   0.000%   0.000%   0.000%   0.000%
    5    2.2  0.5 -0.5   0.000%   0.000%   0.000%   0.000%   0.000%   0.000%   0.000%   0.000%   0.000%   0.000%
    6    3.2  0.5 -0.5   0.000%   0.000%   0.000%   0.000%   0.000%   0.000%   0.000%   0.000%   0.000%   0.000%
    7    1.2  1.5  1.5   6.672%  20.880%   0.000%   0.000%   0.000%   0.000%   0.000%   0.000%   0.000%   0.000%
    8    2.2  1.5  1.5  12.672%  15.047%   0.000%   0.000%   0.000%   0.000%   0.000%   0.000%   0.000%   0.000%
    9    3.2  1.5  1.5   0.023%  44.816%   0.000%   0.000%   0.000%   0.000%   0.000%   0.000%   0.000%   0.000%
   10    4.2  1.5  1.5   0.316%   0.448%   0.234%   0.310%  16.588%  31.355%   0.521%   0.281%   0.041%   0.310%
   11    5.2  1.5  1.5   0.084%   2.376%  10.195%   0.020%   2.050%   0.138%   3.169%   1.552%  17.056%   0.165%
   12    6.2  1.5  1.5   0.003%   4.224%   0.574%   0.003%   0.406%   0.199%   3.707%   0.802%  30.213%   0.111%
   13    7.2  1.5  1.5   4.501%   0.015%   0.074%   7.202%   1.388%   0.324%  18.033%   0.010%   1.693%   0.223%
   14    8.2  1.5  1.5   0.684%   0.000%   0.007%   4.763%  11.708%  25.468%   2.427%   0.868%   5.783%   0.032%
   15    1.2  1.5  0.5   4.639%   1.110%   0.000%   0.000%   0.000%   0.000%   0.000%   0.000%   0.000%   0.000%
   16    2.2  1.5  0.5   0.745%   0.506%   0.000%   0.000%   0.000%   0.000%   0.000%   0.000%   0.000%   0.000%
   17    3.2  1.5  0.5  29.288%   0.015%   0.000%   0.000%   0.000%   0.000%   0.000%   0.000%   0.000%   0.000%
   18    4.2  1.5  0.5   0.001%   4.417%   0.027%   0.314%   0.115%   0.036%  12.273%   5.664%  11.361%   0.570%
   19    5.2  1.5  0.5   1.329%   0.020%   0.360%  33.843%   0.135%   0.536%   7.531%   0.033%   1.435%   1.782%
   20    6.2  1.5  0.5   0.213%   0.595%   0.006%   1.141%   3.281%   0.424%  27.384%   0.296%  10.882%   0.569%
   21    7.2  1.5  0.5   0.017%   0.218%  39.081%   0.314%   1.416%   1.945%   0.026%   6.661%   1.114%   0.499%
   22    8.2  1.5  0.5   0.005%   3.956%   2.028%   0.000%   0.653%   1.653%   2.936%   5.584%  15.505%   0.585%
   23    1.2  1.5 -0.5   6.618%   0.019%   0.000%   0.000%   0.000%   0.000%   0.000%   0.000%   0.000%   0.000%
   24    2.2  1.5 -0.5   4.242%   0.135%   0.000%   0.000%   0.000%   0.000%   0.000%   0.000%   0.000%   0.000%
   25    3.2  1.5 -0.5   0.122%   0.788%   0.000%   0.000%   0.000%   0.000%   0.000%   0.000%   0.000%   0.000%
   26    4.2  1.5 -0.5   5.042%   0.000%   0.335%   0.035%   0.032%   0.125%   5.673%  12.203%   0.576%  11.380%
   27    5.2  1.5 -0.5   0.066%   0.106%  33.581%   0.359%   0.503%   0.132%   0.037%   7.775%   1.825%   1.443%
   28    6.2  1.5 -0.5   0.951%   0.083%   1.245%   0.008%   0.394%   3.153%   0.297%  27.448%   0.567%  10.873%
   29    7.2  1.5 -0.5   0.231%   0.002%   0.312%  38.716%   2.044%   1.503%   6.861%   0.024%   0.508%   1.089%
   30    8.2  1.5 -0.5   0.323%   0.005%   0.000%   2.052%   1.662%   0.655%   5.486%   2.910%   0.582%  15.598%
   31    1.2  1.5 -1.5   2.237%   0.026%   0.000%   0.000%   0.000%   0.000%   0.000%   0.000%   0.000%   0.000%
   32    2.2  1.5 -1.5   1.569%   0.075%   0.000%   0.000%   0.000%   0.000%   0.000%   0.000%   0.000%   0.000%
   33    3.2  1.5 -1.5  14.592%   0.001%   0.000%   0.000%   0.000%   0.000%   0.000%   0.000%   0.000%   0.000%
   34    4.2  1.5 -1.5   0.162%   0.044%   0.274%   0.241%  31.374%  16.633%   0.300%   0.471%   0.314%   0.033%
   35    5.2  1.5 -1.5   0.026%   0.003%   0.019%  10.018%   0.121%   2.100%   1.619%   3.144%   0.168%  17.157%
   36    6.2  1.5 -1.5   2.604%   0.001%   0.005%   0.580%   0.200%   0.418%   0.805%   3.696%   0.111%  30.200%
   37    7.2  1.5 -1.5   0.004%   0.017%   6.972%   0.072%   0.328%   1.349%   0.011%  18.278%   0.234%   1.703%
   38    8.2  1.5 -1.5   0.018%   0.051%   4.672%   0.008%  25.602%  11.857%   0.904%   2.302%   0.032%   5.678%

   Nr   State  S   Sz      21       22       23       24       25       26       27       28       29       30

    1    1.2  0.5  0.5   0.000%   0.000%   0.000%   0.000%   0.000%   0.000%   0.000%   0.000%   0.000%   0.000%
    2    2.2  0.5  0.5   0.000%   0.000%   0.000%   0.001%   0.000%   0.000%   0.000%   0.000%   0.000%   0.000%
    3    3.2  0.5  0.5   0.000%   0.000%   0.000%   0.000%   0.000%   0.000%   0.000%   0.000%   0.000%   0.000%
    4    1.2  0.5 -0.5   0.000%   0.001%   0.000%   0.000%   0.000%   0.000%   0.000%   0.000%   0.000%   0.000%
    5    2.2  0.5 -0.5   0.000%   0.000%   0.000%   0.000%   0.000%   0.000%   0.000%   0.000%   0.000%   0.000%
    6    3.2  0.5 -0.5   0.001%   0.000%   0.000%   0.000%   0.000%   0.000%   0.000%   0.000%   0.000%   0.000%
    7    1.2  1.5  1.5   1.116%   1.594%   6.208%  23.945%   0.000%  12.741%   2.791%   0.595%   4.196%   0.015%
    8    2.2  1.5  1.5   0.171%   3.030%   6.280%  26.278%   0.000%  10.759%   3.588%   0.427%   3.201%   0.003%
    9    3.2  1.5  1.5   0.249%   4.440%  12.446%   0.058%   0.000%  23.459%   0.017%   1.229%   3.376%   0.853%
   10    4.2  1.5  1.5   2.469%   0.035%   0.283%   0.050%   1.090%   0.032%   0.058%   0.286%   1.129%   6.468%
   11    5.2  1.5  1.5   0.049%   0.734%   2.051%   0.003%   0.004%   0.303%   0.000%   1.804%  27.935%   2.687%
   12    6.2  1.5  1.5   0.098%   0.932%   1.789%   0.018%   0.123%   0.273%   0.031%   2.845%   1.371%   4.662%
   13    7.2  1.5  1.5   0.194%   0.026%   0.001%   2.616%   0.020%   0.000%  40.887%   0.012%   0.008%   0.153%
   14    8.2  1.5  1.5   2.395%   0.218%   0.006%   0.218%   1.197%   0.000%   0.425%   0.001%   0.419%   2.837%
   15    1.2  1.5  0.5   7.300%   2.724%   1.341%  12.982%   4.247%  14.318%   2.620%   0.026%   1.617%   0.174%
   16    2.2  1.5  0.5   8.276%   0.018%   2.896%  10.261%   3.586%  16.960%   2.631%   0.008%   0.850%   4.111%
   17    3.2  1.5  0.5  26.054%   2.630%   0.017%  11.317%   7.819%   0.028%   4.352%   0.000%   0.187%   0.908%
   18    4.2  1.5  0.5   0.125%   1.750%   0.671%   0.291%   0.095%   0.000%   0.265%   4.660%  25.988%   3.443%
   19    5.2  1.5  0.5   0.058%   0.015%   0.004%   2.759%   0.909%   0.000%   0.689%   0.018%   0.900%   5.990%
   20    6.2  1.5  0.5   0.137%   0.114%   0.099%   2.486%   0.820%   0.000%   1.470%   0.416%   0.634%   4.134%
   21    7.2  1.5  0.5   0.021%   0.456%   2.356%   0.003%   0.000%   1.197%   0.011%   0.796%   0.925%   2.323%
   22    8.2  1.5  0.5   0.227%   2.137%   0.473%   0.000%   0.000%   0.020%   0.027%  33.410%   7.730%   0.016%
   23    1.2  1.5 -0.5   1.280%   1.308%  21.743%   0.016%  14.318%   4.247%   0.035%   2.420%   0.278%   3.501%
   24    2.2  1.5 -0.5   4.102%   0.062%  17.144%   0.142%  16.960%   3.586%   0.010%   2.231%   2.219%   1.070%
   25    3.2  1.5 -0.5   2.886%  33.437%   3.672%   0.023%   0.028%   7.819%   0.001%   3.930%   0.022%   1.197%
   26    4.2  1.5 -0.5   0.138%   0.120%   0.102%   2.477%   0.000%   0.095%  10.708%   0.190%   0.931%   9.272%
   27    5.2  1.5 -0.5   0.204%   1.854%   0.769%   0.010%   0.000%   0.909%   0.049%   0.645%   2.541%   5.046%
   28    6.2  1.5 -0.5   0.126%   1.755%   0.674%   0.282%   0.000%   0.820%   0.922%   1.308%   3.904%   1.372%
   29    7.2  1.5 -0.5   2.395%   0.217%   0.006%   0.218%   1.197%   0.000%   0.686%   0.004%   0.394%   2.010%
   30    8.2  1.5 -0.5   0.194%   0.026%   0.001%   2.616%   0.020%   0.000%  25.905%   0.030%   0.001%   6.184%
   31    1.2  1.5 -1.5   2.490%  23.076%   7.089%   0.209%  12.741%   0.000%   0.124%   2.487%   0.333%   2.663%
   32    2.2  1.5 -1.5  16.549%  12.084%   6.938%   0.188%  10.759%   0.000%   0.085%   3.219%   0.204%   1.381%
   33    3.2  1.5 -1.5  15.343%   1.413%   0.041%   0.396%  23.459%   0.000%   0.326%   0.011%   0.096%   0.704%
   34    4.2  1.5 -1.5   0.105%   0.933%   1.781%   0.018%   0.032%   1.090%   0.061%   0.036%   2.502%   1.642%
   35    5.2  1.5 -1.5   2.526%   0.233%   0.013%   0.065%   0.303%   0.004%   0.256%   0.002%   0.644%  21.553%
   36    6.2  1.5 -1.5   2.476%   0.035%   0.275%   0.051%   0.273%   0.123%   0.959%   0.010%   0.368%   1.010%
   37    7.2  1.5 -1.5   0.226%   2.137%   0.473%   0.000%   0.000%   0.020%   0.005%  36.546%   3.966%   0.163%
   38    8.2  1.5 -1.5   0.021%   0.456%   2.357%   0.003%   0.000%   1.197%   0.006%   0.399%   1.129%   2.455%

   Nr   State  S   Sz      31       32       33       34       35       36       37       38

    1    1.2  0.5  0.5   0.000%   0.000%   0.004%   0.000%   0.001%   0.000%   0.000%   0.003%
    2    2.2  0.5  0.5   0.000%   0.000%   0.002%   0.000%   0.002%   0.000%   0.000%   0.003%
    3    3.2  0.5  0.5   0.000%   0.000%   0.000%   0.004%   0.000%   0.000%   0.003%   0.000%
    4    1.2  0.5 -0.5   0.000%   0.000%   0.000%   0.001%   0.000%   0.003%   0.003%   0.000%
    5    2.2  0.5 -0.5   0.000%   0.000%   0.000%   0.001%   0.000%   0.004%   0.003%   0.000%
    6    3.2  0.5 -0.5   0.000%   0.000%   0.000%   0.000%   0.004%   0.000%   0.000%   0.003%
    7    1.2  1.5  1.5   0.371%   0.014%   3.143%   1.787%   0.463%   0.037%   0.825%   0.000%
    8    2.2  1.5  1.5   0.249%   0.304%   4.355%   0.998%   0.524%   0.032%   0.697%   0.000%
    9    3.2  1.5  1.5   3.625%   0.017%   0.017%   2.754%   0.001%   0.069%   1.519%   0.000%
   10    4.2  1.5  1.5   0.010%   1.997%   1.555%   2.030%  13.520%   0.057%   0.490%  16.822%
   11    5.2  1.5  1.5   0.374%   1.070%   0.084%  16.608%   0.055%   0.416%   4.679%   0.065%
   12    6.2  1.5  1.5  22.216%   0.134%   0.479%  14.725%   1.594%   0.364%   4.222%   1.895%
   13    7.2  1.5  1.5   0.114%   1.144%  16.284%   0.064%   0.814%   0.000%   0.000%   0.307%
   14    8.2  1.5  1.5   2.170%   1.883%   0.809%   0.006%  16.347%   0.001%   0.000%  18.475%
   15    1.2  1.5  0.5   4.086%   0.076%   0.405%   0.464%   3.146%   0.008%   0.927%   0.275%
   16    2.2  1.5  0.5   0.672%   0.537%   0.451%   0.455%   2.624%   0.015%   1.098%   0.232%
   17    3.2  1.5  0.5   0.714%   1.303%   5.015%   0.024%   1.573%   0.000%   0.002%   0.506%
   18    4.2  1.5  0.5   5.667%   0.080%   1.655%   0.285%   0.231%  14.992%   0.000%   1.470%
   19    5.2  1.5  0.5   4.727%   3.857%  15.056%   0.064%   1.985%   0.058%   0.000%  14.038%
   20    6.2  1.5  0.5   9.671%   2.468%  13.514%   0.186%   1.770%   1.693%   0.000%  12.665%
   21    7.2  1.5  0.5   3.321%   0.358%   0.066%  15.740%   0.001%   1.355%  18.475%   0.000%
   22    8.2  1.5  0.5   1.122%   0.013%   0.005%   1.351%   0.001%  15.806%   0.307%   0.000%
   23    1.2  1.5 -0.5   0.731%   1.634%   0.020%   1.528%   0.361%   2.113%   0.275%   0.927%
   24    2.2  1.5 -0.5   2.659%   0.621%   0.101%   1.214%   0.474%   1.757%   0.232%   1.098%
   25    3.2  1.5 -0.5   2.214%   0.100%   0.019%   4.745%   0.001%   1.848%   0.506%   0.002%
   26    4.2  1.5 -0.5   0.017%  18.985%  13.458%   0.190%   1.763%   1.751%   1.470%   0.000%
   27    5.2  1.5 -0.5   7.028%   0.871%   0.057%   0.412%   0.008%  16.686%  14.038%   0.000%
   28    6.2  1.5 -0.5   5.472%   5.815%   1.600%   0.290%   0.223%  15.051%  12.665%   0.000%
   29    7.2  1.5 -0.5   1.980%   2.660%   0.808%   0.006%  16.347%   0.001%   0.000%  18.474%
   30    8.2  1.5 -0.5   0.704%   9.493%  16.284%   0.064%   0.814%   0.000%   0.000%   0.307%
   31    1.2  1.5 -1.5   0.096%   2.279%   0.191%   0.075%   1.332%   3.832%   0.000%   0.825%
   32    2.2  1.5 -1.5   1.152%   1.731%   0.137%   0.134%   1.177%   4.461%   0.000%   0.697%
   33    3.2  1.5 -1.5   0.013%   7.966%   0.327%   0.002%   2.504%   0.008%   0.000%   1.519%
   34    4.2  1.5 -1.5   4.389%   1.320%   0.494%  14.657%   1.649%   0.362%  16.822%   0.490%
   35    5.2  1.5 -1.5   8.453%   2.964%   1.967%   0.079%  15.114%   0.003%   0.065%   4.679%
   36    6.2  1.5 -1.5   0.994%  27.917%   1.570%   1.963%  13.575%   0.055%   1.895%   4.222%
   37    7.2  1.5 -1.5   1.586%   0.051%   0.004%   1.351%   0.000%  15.806%   0.307%   0.000%
   38    8.2  1.5 -1.5   3.407%   0.340%   0.065%  15.741%   0.001%   1.355%  18.475%   0.000%


 Property matrices transformed in SO basis (not sym. adapted)
 ============================================================

 No matrix element <i|DMX|i> larger than 5E-7
 No matrix element <i|DMX|1> larger than 5E-7

 No matrix element <i|DMY|i> larger than 5E-7
 No matrix element <i|DMY|1> larger than 5E-7

 No matrix element <i|DMZ|i> larger than 5E-7
 No matrix element <i|DMZ|1> larger than 5E-7


 **********************************************************************************************************************************
 DATASETS  * FILE   NREC   LENGTH (MB)   RECORD NAMES
              1      24     1486.53       500      610      700      900      950      970     1000      129      960     1700   
                                          VAR    BASINP    GEOM    SYMINP    ZMAT    AOBASIS   BASIS     P2S    ABASIS    OPER   
                                         1101     1401     1411     1412     1650     1100     1400     1410     1200     1210   
                                          SR      EKINR    POTR     PVPR    MOLCAS      S      EKIN      POT      H0       H01  
                                         1080     1600     1380     1700(1)
                                         AOSYM     SMH     JKOP     OPER   

              2       7     4307.93       700     1000      520     2100     2140     5203     5303   
                                         GEOM     BASIS   MCVARS     RHF     MCSCF    MRCI     MRCI   

 PROGRAMS   *        TOTAL        CI     LSINT        CI        CI     MULTI   RHF-SCF       INT
 CPU TIMES  *    431989.05 333854.74     35.65  79567.02  18516.55      7.32      1.20      6.28
 REAL TIME  *    435281.61 SEC
 DISK USED  *         4.29 GB (local),       17.69 GB (total)
 SF USED    *        33.71 GB
 GA USED    *         0.00 MB       (max)       0.00 MB       (current)
 **********************************************************************************************************************************

 CI/USERDEF energy=  -2605.207670534861

              CI              CI           MULTI         RHF-SCF
  -2605.16013289  -2605.49145138  -2604.20477978  -2604.60765274
 **********************************************************************************************************************************
 Molpro calculation terminated with 1 warning(s)
