
 Working directory              : /wrk/irikura/molpro.d3D3jNijCO/
 Global scratch directory       : /wrk/irikura/molpro.d3D3jNijCO/
 Wavefunction directory         : /home/irikura/wfu/
 Main file repository           : /wrk/irikura/molpro.d3D3jNijCO/

 id        : nistki

 Nodes     nprocs
 comp-32      3
 GA implementation: MPI file
 GA implementation (serial work in mppx): MPI file

 Using customized tuning parameters: mindgm=1; mindgv=20; mindgc=4; mindgr=1; noblas=0; minvec=7
 default implementation of scratch files=sf  


 Variables initialized (1042), CPU time= 0.01 sec
 ***,Br SO-CI
                                                                                 ! active space (7/8)
                                                                      ! much tighter thresholds, seeking correct level degeneracies
 memory,4000,M;
 
 gprint,orbitals,civector;
 gthresh,energy=1.d-10,coeff=1.d-8,gradient=1.d-7,step=1.d-4;twoint=1.d-13;
 
                                                                                 !file,2,acqz.wfu,new    !this causes failure
 
 symmetry,xyz
 geometry={Br};
 
 basis=aug-cc-pwCVQZ-X2C
 
 set,dkho=101
 
 {rhf;wf,charge=-1}
 
 NSING=3
 NTRIP=8
 
 {multi
     occ,10,12
     closed,8,6
     wf,charge=0,sym=2,spin=1;state,NSING;
     wf,charge=0,sym=2,spin=3;state,NTRIP;
     expec2,lxx,lyy,lzz
 }
 table, energy, ll
 title, Energies and &lt;L**2&gt; values
 
                                                                                 ! KL-shell uncorrelated
 core,2,3
 
 {ci;wf,sym=2,spin=1;state,NSING; save,5203.2}
 hlsdiag = energd4
 {ci;wf,sym=2,spin=3;state,NTRIP; save,5303.2}
 hlsdiag(NSING+1) = energd4
 
 table,hlsdiag
 
 lsint
 {ci;hlsmat,ls,5203.2,5303.2;print,vls=0,hls=0}                                  !compute and diagonalize SO matrix
 Commands initialized (847), CPU time= 0.00 sec, 718 directives.
 Default parameters read. Elapsed time= 0.12 sec

 Checking input...
 Passed
1


                                         ***  PROGRAM SYSTEM MOLPRO  ***
                                       Copyright, TTI GmbH Stuttgart, 2015
                                    Version 2024.1 linked Mon Jun 17 07:53:25 2024


 **********************************************************************************************************************************
 LABEL *   Br SO-CI                                                                                                                                                      
  (64 PROC) 64 bit mpp version                                                           DATE: 26-Jun-24          TIME: 16:22:22  
 **********************************************************************************************************************************

 SHA1:             0134236b472f03f1f5189f93707d8671e415b05c
 **********************************************************************************************************************************

 Memory per process:      4000 MW
 Total memory per node:  12000 MW

 GA preallocation disabled
 GA check disabled

 Variable memory set to 4000.0 MW



 THRESHOLDS:

 ZERO    =  1.00D-12  ONEINT  =  1.00D-12  TWOINT  =  1.00D-11  PREFAC  =  1.00D-14  XXXXXX  =  1.00D-09  EORDER  =  1.00D-04
 ENERGY  =  1.00D-10  ETEST   =  0.00D+00  EDENS   =  0.00D+00  THRDEDEF=  1.00D-06  GRADIENT=  1.00D-07  STEP    =  1.00D-04
 ORBITAL =  1.00D-05  CIVEC   =  1.00D-05  COEFF   =  1.00D-08  PRINTCI =  5.00D-02  PUNCHCI =  9.90D+01  OPTGRAD =  3.00D-04
 OPTENERG=  1.00D-06  OPTSTEP =  3.00D-04  THRGRAD =  1.00D-10  COMPRESS=  1.00D-11  VARMIN  =  1.00D-07  VARMAX  =  1.00D-03
 THRDOUB =  0.00D+00  THRDIV  =  1.00D-05  THRRED  =  1.00D-07  THRPSP  =  1.00D+00  THRDC   =  1.00D-10  THRCS   =  1.00D-10
 THRNRM  =  1.00D-08  THREQ   =  0.00D+00  THRDE   =  1.00D+00  THRREF  =  1.00D-05  SPARFAC =  1.00D+00  THRDLP  =  1.00D-07
 THRDIA  =  1.00D-10  THRDLS  =  1.00D-07  THRGPS  =  0.00D+00  THRKEX  =  0.00D+00  THRDIS  =  2.00D-01  THRVAR  =  1.00D-10
 THRLOC  =  1.00D-06  THRGAP  =  1.00D-06  THRLOCT = -1.00D+00  THRGAPT = -1.00D+00  THRORB  =  1.00D-06  THRMLTP =  0.00D+00
 THRCPQCI=  1.00D-10  KEXTA   =  0.00D+00  THRCOARS=  0.00D+00  SYMTOL  =  1.00D-06  GRADTOL =  1.00D-06  THROVL  =  1.00D-08
 THRORTH =  1.00D-08  THRDLOVL= -1.00D+00  GRID    =  1.00D-06  GRIDMAX =  1.00D-03  DTMAX   =  0.00D+00  THROCCDE=  1.00D-01
 THROCCDE=  1.00D-01  THRPRINT=  2.50D-01

 SETTING TWOINT         =      1.0000000D-13                                  
 ZSYMEL=XYZ

 SETTING BASIS          =    AUG-CC-PWCVQZ-X2C
 SETTING DKHO           =       101.00000000                                  


 Recomputing integrals since basis changed


 Using spherical harmonics

 Library entry BR     S aug-cc-pwCVQZ-X      selected for orbital group  1
 Library entry BR     P aug-cc-pwCVQZ-X      selected for orbital group  1
 Library entry BR     D aug-cc-pwCVQZ-X      selected for orbital group  1
 Library entry BR     F aug-cc-pwCVQZ-X      selected for orbital group  1
 Library entry BR     G aug-cc-pwCVQZ-X      selected for orbital group  1
 Library entry BR     H aug-cc-pwCVQZ-X      selected for orbital group  1


 PROGRAM * SEWARD (Integral evaluation for generally contracted gaussian basis sets)     Author: Roland Lindh, 1990

 Geometry written to block  1 of record 700

 Orientation using atomic masses  
 Molecule type: Atom
 User-specified symmetry elements: XYZ
 Symmetry elements: XYZ
 Rotational constants:       0.0000000      0.0000000      0.0000000 GHz  (calculated with average atomic masses)

 Point group  Ci  



 ATOMIC COORDINATES

 NR  ATOM    CHARGE       X              Y              Z

   1  BR     35.00    0.000000000    0.000000000    0.000000000

 NUCLEAR CHARGE:                   35
 NUMBER OF PRIMITIVE AOS:         322
 NUMBER OF SYMMETRY AOS:          254
 NUMBER OF CONTRACTIONS:          170   (   87Ag  +   83Au  )
 NUMBER OF INNER CORE ORBITALS:     5   (    2Ag  +    3Au  )
 NUMBER OF OUTER CORE ORBITALS:     9   (    6Ag  +    3Au  )
 NUMBER OF VALENCE ORBITALS:        4   (    1Ag  +    3Au  )


 NUCLEAR REPULSION ENERGY    0.00000000

 One-electron integrals computed with SEWARD

 eXact-2-Component (X2C) method activated

 Computing Douglas-Kroll / X2C integrals

 AO integral compression algorithm  1   Integral accuracy      1.0D-14

     153.354 MB (compressed) written to integral file ( 20.3%)

     Node minimum: 29.360 MB, node maximum: 72.090 MB


 NUMBER OF SORTED TWO-ELECTRON INTEGRALS:   17815695.     BUFFER LENGTH:  32768
 NUMBER OF SEGMENTS:   2  SEGMENT LENGTH:   15989739      RECORD LENGTH: 524288

 Memory used in sort:      16.55 MW

 SORT1 READ    94260844. AND WROTE     3173092. INTEGRALS IN     10 RECORDS. CPU TIME:     0.31 SEC, REAL TIME:     0.34 SEC
 SORT2 READ     9789521. AND WROTE    53439771. INTEGRALS IN    594 RECORDS. CPU TIME:     0.23 SEC, REAL TIME:     0.27 SEC

 Node minimum:    17810819.  Node maximum:    17815695. integrals

 OPERATOR DM      FOR CENTER  0  COORDINATES:    0.000000    0.000000    0.000000

 EXTRA SYMMETRY OF AOS IN SYMMETRY 1:   1 1 1 1 1 1 1 1 1 1   1 2 3 4 5 6 2 3 4 5   6 2 3 4 5 6 2 3 4 5   6 2 3 4 5 6 2 3 4 5
                                        6 2 3 4 5 6 2 3 4 5   6 7 8 9101112131415   7 8 9101112131415 7   8 9101112131415 7 8
                                        9101112131415
 EXTRA SYMMETRY OF AOS IN SYMMETRY 2:   1 2 3 1 2 3 1 2 3 1   2 3 1 2 3 1 2 3 1 2   3 1 2 3 1 2 3 1 2 3   4 5 6 7 8 910 4 5 6
                                        7 8 910 4 5 6 7 8 9  10 4 5 6 7 8 910 4 5   6 7 8 910 4 5 6 7 8   9101112131415161718
                                       192021

 Eigenvalues of metric

         1 0.264E-05 0.213E-03 0.289E-02 0.794E-02 0.794E-02 0.794E-02 0.794E-02 0.794E-02
         2 0.122E-04 0.122E-04 0.122E-04 0.382E-03 0.382E-03 0.382E-03 0.254E-01 0.254E-01


 **********************************************************************************************************************************
 DATASETS  * FILE   NREC   LENGTH (MB)   RECORD NAMES
              1      22       29.84       500      610      700      900      950      970     1000      129      960     1700   
                                          VAR    BASINP    GEOM    SYMINP    ZMAT    AOBASIS   BASIS     P2S    ABASIS    OPER   
                                         1101     1401     1411     1412     1650     1100     1400     1410     1200     1210   
                                          SR      EKINR    POTR     PVPR    MOLCAS      S      EKIN      POT      H0       H01  
                                         1080     1600   
                                         AOSYM     SMH  

 PROGRAMS   *        TOTAL       INT
 CPU TIMES  *         4.90      4.75
 REAL TIME  *         6.73 SEC
 DISK USED  *        30.21 MB (local),      338.91 MB (total)
 GA USED    *         0.00 MB       (max)       0.00 MB       (current)
 **********************************************************************************************************************************


 Program * Restricted Hartree-Fock

 Orbital guess generated from atomic densities.

 Initial occupancy:   9   9

 NELEC=   36   SYM=1   MS2= 0   THRE=1.0D-12   THRD=1.0D-06   THRG=1.0D-06  HFMA2=F  DIIS_START=2   DIIS_MAX=10   DIIS_INCORE=F

 Level shifts:    0.00 (CLOSED)    0.00 (OPEN)    0.30 (GAP_MIN)

 ITER           ETOT              DE          GRAD        DDIFF     DIIS  NEXP   TIME(IT)  TIME(TOT)  DIAG
   1    -2604.54703047   -2604.54703047     0.00D+00     0.10D+00     0     0       0.07      0.15    start
   2    -2604.59140489      -0.04437442     0.17D-01     0.16D-01     1     0       0.08      0.23    diag
   3    -2604.60719036      -0.01578547     0.89D-02     0.68D-02     2     0       0.08      0.31    diag
   4    -2604.60763126      -0.00044090     0.15D-02     0.94D-03     3     0       0.07      0.38    diag
   5    -2604.60765040      -0.00001914     0.90D-04     0.27D-03     4     0       0.08      0.46    diag
   6    -2604.60765230      -0.00000190     0.32D-04     0.67D-04     5     0       0.08      0.54    diag
   7    -2604.60765237      -0.00000007     0.39D-05     0.17D-04     6     0       0.08      0.62    diag
   8    -2604.60765237      -0.00000000     0.43D-06     0.35D-05     7     0       0.08      0.70    fixocc
   9    -2604.60765237       0.00000000     0.37D-07     0.34D-06     8     0       0.08      0.78    diag
  10    -2604.60765237      -0.00000000     0.31D-08     0.87D-08     0     0       0.07      0.85    diag/orth

 Final occupancy:   9   9

 !RHF STATE 1.1 Energy              -2604.607652367634
  RHF One-electron energy           -3634.576512033714
  RHF Two-electron energy            1029.968859666079
  RHF Kinetic energy                 2786.640169469031
  RHF Nuclear energy                    0.000000000000
  RHF Virial quotient                  -0.934676705268

 !RHF STATE 1.1 Dipole moment           0.00000000     0.00000000     0.00000000
 Dipole moment /Debye                   0.00000000     0.00000000     0.00000000

 ELECTRON ORBITALS
 =================

  Orbital  Occupation    Energy    Cen Mu Typ  Coefficients
    1.1     2.00000  -497.89738     1  1  s    0.99998
    2.1     2.00000   -66.75885     1  2  s    0.99986
    3.1     2.00000    -9.85678     1  3  s    0.99962
    4.1     2.00000    -2.81603     1  1  d2+  0.99929
    5.1     2.00000    -2.81603     1  1  d2-  0.99909
    6.1     2.00000    -2.81603     1  1  d0   0.99966
    7.1     2.00000    -2.81603     1  1  d1+  0.99973
    8.1     2.00000    -2.81603     1  1  d1-  0.99974
    9.1     2.00000    -0.71233     1  4  s    0.96040
    1.2     2.00000   -58.65722     1  1  pz   0.99768
    2.2     2.00000   -58.65722     1  1  py   0.99727
    3.2     2.00000   -58.65722     1  1  px   0.99972
    4.2     2.00000    -7.20982     1  2  px   0.99930
    5.2     2.00000    -7.20982     1  2  pz   0.99930
    6.2     2.00000    -7.20982     1  2  py   0.99930
    7.2     2.00000    -0.13760     1  3  px   0.91646
    8.2     2.00000    -0.13760     1  3  pz   0.91646
    9.2     2.00000    -0.13760     1  3  py   0.91646


 HOMO      9.2    -0.137599 =      -3.7443eV
 LUMO     10.2     0.217146 =       5.9088eV
 LUMO-HOMO         0.354745 =       9.6531eV

 Orbitals saved in record  2100.2


 **********************************************************************************************************************************
 DATASETS  * FILE   NREC   LENGTH (MB)   RECORD NAMES
              1      22       29.84       500      610      700      900      950      970     1000      129      960     1700   
                                          VAR    BASINP    GEOM    SYMINP    ZMAT    AOBASIS   BASIS     P2S    ABASIS    OPER   
                                         1101     1401     1411     1412     1650     1100     1400     1410     1200     1210   
                                          SR      EKINR    POTR     PVPR    MOLCAS      S      EKIN      POT      H0       H01  
                                         1080     1600   
                                         AOSYM     SMH  

              2       4        0.63       700     1000      520     2100   
                                         GEOM     BASIS   MCVARS     RHF  

 PROGRAMS   *        TOTAL   RHF-SCF       INT
 CPU TIMES  *         5.75      0.85      4.75
 REAL TIME  *         7.70 SEC
 DISK USED  *        31.52 MB (local),      342.82 MB (total)
 GA USED    *         0.00 MB       (max)       0.00 MB       (current)
 **********************************************************************************************************************************
 SETTING NSING          =         3.00000000                                  
 SETTING NTRIP          =         8.00000000                                  

 PROGRAM * MULTI (Direct Multiconfiguration SCF)       Authors: P.J. Knowles, H.-J. Werner (1984)
                                                                D.A. Kreplin, P.J. Knowles, H.-J. Werner (2019)

 Number of closed-shell orbitals:  14 (    8    6)
 Number of active  orbitals:        8 (    2    6)
 Number of external orbitals:     148 (   77   71)

 State symmetry 1

 Number of active electrons:   7    Spin symmetry=Doublet   Space symmetry=2
 Number of states:             3
 Number of CSFs:            1204   (1980 determinants, 3920 intermediate states)

 State symmetry 2

 Number of active electrons:   7    Spin symmetry=Quartet   Space symmetry=2
 Number of states:             8
 Number of CSFs:             656   (776 determinants, 1568 intermediate states)

 Molecular orbitals read from record     2100.2  Type=RHF/CANONICAL  
 *** IN SYMMETRY 1 ORBITAL  4 SYMMETRY CONTAMINATION OF 0.440D-01 HAS BEEN REMOVED
 *** IN SYMMETRY 1 ORBITAL  5 SYMMETRY CONTAMINATION OF 0.584D-01 HAS BEEN REMOVED
 *** IN SYMMETRY 1 ORBITAL  6 SYMMETRY CONTAMINATION OF 0.266D-01 HAS BEEN REMOVED
 *** IN SYMMETRY 1 ORBITAL  7 SYMMETRY CONTAMINATION OF 0.249D-01 HAS BEEN REMOVED
 *** IN SYMMETRY 1 ORBITAL  8 SYMMETRY CONTAMINATION OF 0.241D-01 HAS BEEN REMOVED

 EXTRA SYMMETRY OF MOS IN SYMMETRY 1:   1 1 1 5 3 2 4 6 1 1   3 6 5 2 4 1 5 3 2 6   4 5 3 2 6 4 9 711 8  1213141510 113111014
                                       12 715 8 9 5 3 4 2 6   1 5 3 4 2 611131012  14 815 7 9 1 5 3 2 4   61015121413 8 9 711
                                        2 5 6 3 4 1 1
 *** IN SYMMETRY 2 ORBITAL  1 SYMMETRY CONTAMINATION OF 0.685D-01 HAS BEEN REMOVED
 *** IN SYMMETRY 2 ORBITAL  2 SYMMETRY CONTAMINATION OF 0.900D-01 HAS BEEN REMOVED
 *** IN SYMMETRY 2 ORBITAL  3 SYMMETRY CONTAMINATION OF 0.293D-01 HAS BEEN REMOVED
 *** IN SYMMETRY 2 ORBITAL  4 SYMMETRY CONTAMINATION OF 0.113D-02 HAS BEEN REMOVED
 *** IN SYMMETRY 2 ORBITAL  5 SYMMETRY CONTAMINATION OF 0.133D-03 HAS BEEN REMOVED
 *** IN SYMMETRY 2 ORBITAL  6 SYMMETRY CONTAMINATION OF 0.121D-02 HAS BEEN REMOVED
 *** IN SYMMETRY 2 ORBITAL  8 SYMMETRY CONTAMINATION OF 0.841D-03 HAS BEEN REMOVED
 *** IN SYMMETRY 2 ORBITAL  9 SYMMETRY CONTAMINATION OF 0.842D-03 HAS BEEN REMOVED
 *** IN SYMMETRY 2 ORBITAL 10 SYMMETRY CONTAMINATION OF 0.553D-03 HAS BEEN REMOVED
 *** IN SYMMETRY 2 ORBITAL 11 SYMMETRY CONTAMINATION OF 0.123D-01 HAS BEEN REMOVED
 *** IN SYMMETRY 2 ORBITAL 12 SYMMETRY CONTAMINATION OF 0.125D-01 HAS BEEN REMOVED
 EXTRA SYMMETRY OF MOS IN SYMMETRY 2:   3 2 1 1 3 2 1 3 2 1   3 2 1 3 2 6 4 8 510   9 7 1 3 2 510 8 7 9   6 410 5 7 8 9 6 4 1
                                        3 2 9 710 5 8 6 4 2   1 31312201518141721  161119 5 6 7 9 810 4   3 1 2 9 710 5 8 6 4
                                        2 3 1

 Wavefunction dump at record             2140.2

 Convergence thresholds  0.10E-06 (gradient)  0.10E-09 (energy)

 Weight factors for state symmetry  1:    0.09091   0.09091   0.09091
 Weight factors for state symmetry  2:    0.09091   0.09091   0.09091   0.09091   0.09091   0.09091   0.09091   0.09091
 
 Number of orbital rotations:  1674  ( 52 closed/active, 1042 closed/virtual, 0 active/active, 580 active/virtual )
 Total number of variables:    13822
 
 Second-order MCSCF: L-BFGS accelerated
 
 ITER  MIC  NCI  NEG     ENERGY(VAR)    ENERGY(PROJ) ENERGY CHANGE       GRAD(0)  GRAD(ORB)   GRAD(CI)      STEP      TIME
   1   19   80    0  -2604.18733343   -2604.31382987   -0.12649644    0.40801366 0.01536334 0.00055568  0.12E+01      2.25
   2    8   35    0  -2604.27150629   -2604.28600610   -0.01449981    0.68102878 0.00009629 0.00067276  0.16E+00      3.87
   3    8   37    0  -2604.28612113   -2604.28612420   -0.00000307    0.00598969 0.00000539 0.00002422  0.11E-01      5.52
   4   14   51    0  -2604.28612420   -2604.28612420   -0.00000000    0.00000259 0.00000000 0.00000000  0.20E-03      7.46
   5    2    4    0  -2604.28612420   -2604.28612420    0.00000000    0.00000000 0.00000000 0.00000000  0.19E-08      8.45

 CONVERGENCE REACHED!  Final gradient:    0.00000000 ( 0.99E-10)
                       Final energy:  -2604.28612420
 
 Results for state 1.2 Doublet
 =============================
 !MCSCF STATE 1.2 Doublet Energy             -2604.512134960758
 Nuclear energy                                  0.00000000
 Kinetic energy                               2787.21437920
 One electron energy                         -3624.23152365
 Two electron energy                          1019.71938869
 Virial ratio                                    1.93444988
 
 !MCSCF STATE 1.2 Doublet Dipole moment          0.00000000     0.00000000     0.00000000
 Dipole moment /Debye                            0.00000000     0.00000000     0.00000000
 
 Results for state 2.2 Doublet
 =============================
 !MCSCF STATE 2.2 Doublet Energy             -2604.512134960746
 Nuclear energy                                  0.00000000
 Kinetic energy                               2787.21437920
 One electron energy                         -3624.23152365
 Two electron energy                          1019.71938869
 Virial ratio                                    1.93444988
 
 !MCSCF STATE 2.2 Doublet Dipole moment          0.00000000     0.00000000     0.00000000
 Dipole moment /Debye                            0.00000000     0.00000000     0.00000000
 
 Results for state 3.2 Doublet
 =============================
 !MCSCF STATE 3.2 Doublet Energy             -2604.512134960743
 Nuclear energy                                  0.00000000
 Kinetic energy                               2787.21437920
 One electron energy                         -3624.23152365
 Two electron energy                          1019.71938869
 Virial ratio                                    1.93444988
 
 !MCSCF STATE 3.2 Doublet Dipole moment          0.00000000     0.00000000     0.00000000
 Dipole moment /Debye                            0.00000000     0.00000000     0.00000000
 
 Results for state 1.2 Quartet
 =============================
 !MCSCF STATE 1.2 Quartet Energy             -2604.206657602434
 Nuclear energy                                  0.00000000
 Kinetic energy                               2786.03447226
 One electron energy                         -3613.93960088
 Two electron energy                          1009.73294328
 Virial ratio                                    1.93473598
 
 !MCSCF STATE 1.2 Quartet Dipole moment          0.00000000     0.00000000     0.00000000
 Dipole moment /Debye                            0.00000000     0.00000000     0.00000000
 
 Results for state 2.2 Quartet
 =============================
 !MCSCF STATE 2.2 Quartet Energy             -2604.206657602427
 Nuclear energy                                  0.00000000
 Kinetic energy                               2786.03447226
 One electron energy                         -3613.93960088
 Two electron energy                          1009.73294328
 Virial ratio                                    1.93473598
 
 !MCSCF STATE 2.2 Quartet Dipole moment          0.00000000     0.00000000     0.00000000
 Dipole moment /Debye                            0.00000000     0.00000000     0.00000000
 
 Results for state 3.2 Quartet
 =============================
 !MCSCF STATE 3.2 Quartet Energy             -2604.206657602425
 Nuclear energy                                  0.00000000
 Kinetic energy                               2786.03447226
 One electron energy                         -3613.93960088
 Two electron energy                          1009.73294328
 Virial ratio                                    1.93473598
 
 !MCSCF STATE 3.2 Quartet Dipole moment          0.00000000     0.00000000     0.00000000
 Dipole moment /Debye                            0.00000000     0.00000000     0.00000000
 
 Results for state 4.2 Quartet
 =============================
 !MCSCF STATE 4.2 Quartet Energy             -2604.198197703318
 Nuclear energy                                  0.00000000
 Kinetic energy                               2786.05934601
 One electron energy                         -3614.01304177
 Two electron energy                          1009.81484407
 Virial ratio                                    1.93472460
 
 !MCSCF STATE 4.2 Quartet Dipole moment          0.00000000     0.00000000     0.00000000
 Dipole moment /Debye                            0.00000000     0.00000000     0.00000000
 
 Results for state 5.2 Quartet
 =============================
 !MCSCF STATE 5.2 Quartet Energy             -2604.198197703318
 Nuclear energy                                  0.00000000
 Kinetic energy                               2786.05934601
 One electron energy                         -3614.01304177
 Two electron energy                          1009.81484407
 Virial ratio                                    1.93472460
 
 !MCSCF STATE 5.2 Quartet Dipole moment          0.00000000     0.00000000     0.00000000
 Dipole moment /Debye                            0.00000000     0.00000000     0.00000000
 
 Results for state 6.2 Quartet
 =============================
 !MCSCF STATE 6.2 Quartet Energy             -2604.198197703310
 Nuclear energy                                  0.00000000
 Kinetic energy                               2786.05934601
 One electron energy                         -3614.01304177
 Two electron energy                          1009.81484407
 Virial ratio                                    1.93472460
 
 !MCSCF STATE 6.2 Quartet Dipole moment          0.00000000     0.00000000     0.00000000
 Dipole moment /Debye                            0.00000000     0.00000000     0.00000000
 
 Results for state 7.2 Quartet
 =============================
 !MCSCF STATE 7.2 Quartet Energy             -2604.198197703308
 Nuclear energy                                  0.00000000
 Kinetic energy                               2786.05934601
 One electron energy                         -3614.01304177
 Two electron energy                          1009.81484407
 Virial ratio                                    1.93472460
 
 !MCSCF STATE 7.2 Quartet Dipole moment          0.00000000     0.00000000     0.00000000
 Dipole moment /Debye                            0.00000000     0.00000000     0.00000000
 
 Results for state 8.2 Quartet
 =============================
 !MCSCF STATE 8.2 Quartet Energy             -2604.198197703306
 Nuclear energy                                  0.00000000
 Kinetic energy                               2786.05934601
 One electron energy                         -3614.01304177
 Two electron energy                          1009.81484407
 Virial ratio                                    1.93472460
 
 !MCSCF STATE 8.2 Quartet Dipole moment          0.00000000     0.00000000     0.00000000
 Dipole moment /Debye                            0.00000000     0.00000000     0.00000000
 
 State-averaged charge density matrix saved on record 2140.2 (density set 1)
 
 No non-zero expectation values
 
 Expectation values for two-electron operators:
 
 ? Warning
 ? Transition properties are only calculated between states of the same symmetry
 ? The problem occurs in mu_properties_expec2

 !MCSCF expec      <1.2 Doublet|LXLX|1.2 Doublet>     0.999999986392
 !MCSCF expec      <2.2 Doublet|LXLX|2.2 Doublet>     0.999974505177
 !MCSCF expec      <3.2 Doublet|LXLX|3.2 Doublet>     0.000025508431
 !MCSCF expec      <1.2 Quartet|LXLX|1.2 Quartet>     0.999999761144
 !MCSCF expec      <2.2 Quartet|LXLX|2.2 Quartet>     0.999924898792
 !MCSCF expec      <3.2 Quartet|LXLX|3.2 Quartet>     0.000075340064
 !MCSCF expec      <4.2 Quartet|LXLX|4.2 Quartet>     0.711343120423
 !MCSCF expec      <5.2 Quartet|LXLX|5.2 Quartet>     0.999951831946
 !MCSCF expec      <6.2 Quartet|LXLX|6.2 Quartet>     1.000211524527
 !MCSCF expec      <7.2 Quartet|LXLX|7.2 Quartet>     3.999792027698
 !MCSCF expec      <8.2 Quartet|LXLX|8.2 Quartet>     3.288701495406
 
 !MCSCF expec      <1.2 Doublet|LYLY|1.2 Doublet>     0.000004061257
 !MCSCF expec      <2.2 Doublet|LYLY|2.2 Doublet>     0.999995954825
 !MCSCF expec      <3.2 Doublet|LYLY|3.2 Doublet>     0.999999983919
 !MCSCF expec      <1.2 Quartet|LYLY|1.2 Quartet>     0.000006886998
 !MCSCF expec      <2.2 Quartet|LYLY|2.2 Quartet>     0.999993374177
 !MCSCF expec      <3.2 Quartet|LYLY|3.2 Quartet>     0.999999738824
 !MCSCF expec      <4.2 Quartet|LYLY|4.2 Quartet>     3.968870008425
 !MCSCF expec      <5.2 Quartet|LYLY|5.2 Quartet>     3.999981595315
 !MCSCF expec      <6.2 Quartet|LYLY|6.2 Quartet>     1.000011586780
 !MCSCF expec      <7.2 Quartet|LYLY|7.2 Quartet>     0.999991603956
 !MCSCF expec      <8.2 Quartet|LYLY|8.2 Quartet>     0.031145205525
 
 !MCSCF expec      <1.2 Doublet|LZLZ|1.2 Doublet>     0.999995952352
 !MCSCF expec      <2.2 Doublet|LZLZ|2.2 Doublet>     0.000029539998
 !MCSCF expec      <3.2 Doublet|LZLZ|3.2 Doublet>     0.999974507650
 !MCSCF expec      <1.2 Quartet|LZLZ|1.2 Quartet>     0.999993351858
 !MCSCF expec      <2.2 Quartet|LZLZ|2.2 Quartet>     0.000081727031
 !MCSCF expec      <3.2 Quartet|LZLZ|3.2 Quartet>     0.999924921112
 !MCSCF expec      <4.2 Quartet|LZLZ|4.2 Quartet>     1.319786871153
 !MCSCF expec      <5.2 Quartet|LZLZ|5.2 Quartet>     1.000066572739
 !MCSCF expec      <6.2 Quartet|LZLZ|6.2 Quartet>     3.999776888693
 !MCSCF expec      <7.2 Quartet|LZLZ|7.2 Quartet>     1.000216368347
 !MCSCF expec      <8.2 Quartet|LZLZ|8.2 Quartet>     2.680153299069
 
 !MCSCF expec      <1.2 Doublet|L**2|1.2 Doublet>     2.000000000000
 !MCSCF expec      <2.2 Doublet|L**2|2.2 Doublet>     2.000000000000
 !MCSCF expec      <3.2 Doublet|L**2|3.2 Doublet>     2.000000000000
 !MCSCF expec      <1.2 Quartet|L**2|1.2 Quartet>     2.000000000000
 !MCSCF expec      <2.2 Quartet|L**2|2.2 Quartet>     2.000000000000
 !MCSCF expec      <3.2 Quartet|L**2|3.2 Quartet>     2.000000000000
 !MCSCF expec      <4.2 Quartet|L**2|4.2 Quartet>     6.000000000000
 !MCSCF expec      <5.2 Quartet|L**2|5.2 Quartet>     6.000000000000
 !MCSCF expec      <6.2 Quartet|L**2|6.2 Quartet>     6.000000000000
 !MCSCF expec      <7.2 Quartet|L**2|7.2 Quartet>     6.000000000000
 !MCSCF expec      <8.2 Quartet|L**2|8.2 Quartet>     6.000000000000
 
 EXTRA SYMMETRY OF MOS IN SYMMETRY 1:   1 1 1 5 3 2 4 6 1 1   6 5 3 2 4 1 5 3 2 6   4 5 3 2 6 411131014  1512 8 7 9 111131014
                                       1512 8 7 9 5 3 4 2 6   1 5 3 4 2 611131014  1512 8 7 9 1 5 3 2 4   61310111514 812 7 9
                                        5 2 3 6 4 1 1
 EXTRA SYMMETRY OF MOS IN SYMMETRY 2:   2 3 1 1 3 2 1 3 2 1   3 2 2 3 1 5 7 9 810   6 4 1 3 2 5 9 7 810   6 4 5 9 710 8 6 4 1
                                        3 2 5 9 710 8 6 4 2   1 31220181517161421  131911 5 7 9 610 8 4   1 3 2 7 9 5 810 6 4
                                        2 1 3
 
  NATURAL ORBITALS (STATE AVERAGED)
  =================================

  Orbital  Occupation    Energy    Cen Mu Typ  Coefficients
    1.1     2.00000  -498.41690     1  1  s    0.99999
    2.1     2.00000   -67.27633     1  2  s    0.99970
    3.1     2.00000   -10.36849     1  3  s    1.00024
    4.1     2.00000    -3.33089     1  1  d2+  1.00035
    5.1     2.00000    -3.33089     1  1  d2-  1.00035
    6.1     2.00000    -3.33089     1  1  d0   1.00035
    7.1     2.00000    -3.33089     1  1  d1+  1.00035
    8.1     2.00000    -3.33089     1  1  d1-  1.00035
    9.1     1.99768    -1.16338     1  4  s    1.02501
   10.1     0.00260     0.56853     1  3  s   -0.34932    1  4  s   -2.11568    1  5  s   -1.34266    1  6  s    1.91587
                                    1  7  s    1.48480
    1.2     2.00000   -59.17407     1  1  py   1.00020
    2.2     2.00000   -59.17407     1  1  pz   1.00020
    3.2     2.00000   -59.17407     1  1  px   1.00020
    4.2     2.00000    -7.72394     1  2  px   1.00015
    5.2     2.00000    -7.72394     1  2  pz   1.00015
    6.2     2.00000    -7.72394     1  2  py   1.00015
    7.2     1.42170    -0.47749     1  3  px   1.04207
    8.2     1.42170    -0.47749     1  3  pz   1.04207
    9.2     1.42170    -0.47749     1  3  py   1.04207
   10.2     0.24488     0.05090     1 10  px   1.13292
   11.2     0.24488     0.05090     1 10  pz   1.13292
   12.2     0.24488     0.05090     1 10  py   1.13292
 
 Natural orbital dump (state averaged) at molpro section 2140.2 (Orbital set 2)
 
 Transform the CI vectors
 
 CI Coefficients of symmetry 2 (Doublet)
 =======================================
 
 20 22a000      0.98998932      0.00199113      0.00012554
 20 a22000     -0.00011549     -0.00499870      0.98997871
 20 2a2000     -0.00199174      0.98997671      0.00499846
 20 2aa0b0     -0.06567563     -0.00013209     -0.00000833
 20 a2ab00     -0.06567563     -0.00013209     -0.00000833
 20 a2a00b     -0.00000766     -0.00033161      0.06567493
 20 aa20b0     -0.00000766     -0.00033161      0.06567493
 20 2aa00b     -0.00013213      0.06567480      0.00033160
 20 aa2b00      0.00013213     -0.06567480     -0.00033160
 
 Energy:    -2604.51213496  -2604.51213496  -2604.51213496
 
 
 CI Coefficients of symmetry 2 (Quartet)
 =======================================

 State:              1               2               3               4               5               6               7
 20 aa200a     -0.00000000     -0.00000000     -0.00000000     -0.07182892      0.00098873     -0.00087420      0.00586198
 20 2aaa00      0.00000000      0.00000000     -0.00000000      0.73858120     -0.00907630      0.00021386     -0.00024877
 20 2aa0a0      0.70546991      0.00181593     -0.00036053     -0.00862454     -0.70541689     -0.00143646      0.00005958
 20 a2aa00      0.70546991      0.00181593     -0.00036053      0.00862454      0.70541689      0.00143646     -0.00005958
 20 a2a00a      0.00034478      0.00611369      0.70544577      0.00222204     -0.00007408     -0.00587485     -0.70542330
 20 aa20a0      0.00034478      0.00611369      0.70544577     -0.00222204      0.00007408      0.00587485      0.70542330
 20 aa2a00     -0.00181899      0.70544351     -0.00611278      0.00015655     -0.00143882      0.70544471     -0.00586826
 20 2aa00a      0.00181899     -0.70544352      0.00611278      0.00015655     -0.00143882      0.70544471     -0.00586826
 20 a2a0a0      0.00000000      0.00000000     -0.00000000      0.66675228     -0.00808757     -0.00066034      0.00561321
 
 Energy:    -2604.20665760  -2604.20665760  -2604.20665760  -2604.19819770  -2604.19819770  -2604.19819770  -2604.19819770

 State:              8
 20 aa200a      0.81141261
 20 2aaa00     -0.34351309
 20 2aa0a0      0.00009412
 20 a2aa00     -0.00009412
 20 a2a00a      0.00528673
 20 aa20a0     -0.00528673
 20 aa2a00      0.00081804
 20 2aa00a      0.00081804
 20 a2a0a0      0.46789952
 
 Energy:    -2604.19819770
 


 **********************************************************************************************************************************
 DATASETS  * FILE   NREC   LENGTH (MB)   RECORD NAMES
              1      24       72.33       500      610      700      900      950      970     1000      129      960     1700   
                                          VAR    BASINP    GEOM    SYMINP    ZMAT    AOBASIS   BASIS     P2S    ABASIS    OPER   
                                         1101     1401     1411     1412     1650     1100     1400     1410     1200     1210   
                                          SR      EKINR    POTR     PVPR    MOLCAS      S      EKIN      POT      H0       H01  
                                         1080     1600     1380     1700(1)
                                         AOSYM     SMH     JKOP     OPER   

              2       5        1.29       700     1000      520     2100     2140   
                                         GEOM     BASIS   MCVARS     RHF     MCSCF   

 PROGRAMS   *        TOTAL     MULTI   RHF-SCF       INT
 CPU TIMES  *        13.45      7.69      0.85      4.75
 REAL TIME  *        17.19 SEC
 DISK USED  *        73.72 MB (local),      469.41 MB (total)
 SF USED    *       108.73 MB
 GA USED    *         0.00 MB       (max)       0.00 MB       (current)
 **********************************************************************************************************************************

 Energies and &lt;L**2&gt; values

          ENERGY    LL
    -2604.512135   2.0
    -2604.512135   2.0
    -2604.512135   2.0
    -2604.206658   2.0
    -2604.206658   2.0
    -2604.206658   2.0
    -2604.198198   6.0
    -2604.198198   6.0
    -2604.198198   6.0
    -2604.198198   6.0
    -2604.198198   6.0
                                                  


 PROGRAM * CI (Multireference internally contracted CI)     Authors: H.-J. Werner, P.J. Knowles, 1987


 Convergence thresholds:  THRVAR = 1.00D-16  THRDEN = 1.00D-10

 Number of optimized states: 3  Roots:    1   2   3
 Number of reference states: 3  Roots:    1   2   3

 Reference symmetry:                   2   Doublet 
 Number of electrons:                 35
 Maximum number of shells:             7
 Maximum number of spin couplings:   429

 Reference space:      554 conf     1204 CSFs
 N elec internal:    56699 conf   278292 CSFs
 N-1 el internal:    59743 conf   501108 CSFs
 N-2 el internal:    32490 conf   411156 CSFs

 Number of electrons in valence space:                     25
 Maximum number of open shell orbitals in reference space:  7
 Maximum number of open shell orbitals in internal spaces: 13


 Number of core orbitals:           5 (   2   3 )
 Number of closed-shell orbitals:   9 (   6   3 )
 Number of active  orbitals:        8 (   2   6 )
 Number of external orbitals:     148 (  77  71 )

 Molecular orbitals read from record     2140.2  Type=MCSCF/NATURAL (state averaged)

 Integral transformation finished. Total CPU:   0.46 sec, npass=  1  Memory used:   2.74 MW


 Number of p-space configurations:  30

 Reference wavefunction optimized for reference space (refopt=1)

 State     Reference Energy 
     1     -2604.51213496
     2     -2604.51213496
     3     -2604.51213496

 Number of blocks in overlap matrix:   383   Smallest eigenvalue:  0.18D-06
 Number of N-2 electron functions:     867
 Number of N-1 electron functions:  501108

 Number of internal configurations:               139300
 Number of singly external configurations:      37080348
 Number of doubly external configurations:       4751493
 Total number of contracted configurations:     41971141
 Total number of uncontracted configurations: 2284352044

 Diagonal Coupling coefficients finished.               Storage:  64529615 words, CPU-Time:    250.43 seconds.
 Energy denominators for pairs finished in 1 passes.    Storage:   5558126 words, CPU-time:      0.34 seconds.

  ITER. STATE  ROOT     SQ.NORM     CORR.ENERGY   TOTAL ENERGY   ENERGY CHANGE       DEN1      VAR(S)    VAR(P)      TIME
    1     1     1     1.00000000     0.00000000 -2604.51213496     0.00000000    -1.13897945  0.39D-01  0.68D-01   287.43
    1     2     2     1.00000000     0.00000000 -2604.51213496     0.00000000    -1.13895608  0.39D-01  0.68D-01   287.43
    1     3     3     1.00000000     0.00000000 -2604.51213496    -0.00000000    -1.13902005  0.39D-01  0.68D-01   287.43
    2     1     1     1.07550942    -0.95705314 -2605.46918810    -0.95705314    -0.02418202  0.42D-02  0.10D-02  3386.80
    2     2     2     1.07551495    -0.95705198 -2605.46918694    -0.95705198    -0.02418658  0.42D-02  0.10D-02  3386.80
    2     3     3     1.07553243    -0.95703652 -2605.46917149    -0.95703652    -0.02420165  0.42D-02  0.10D-02  3386.80
    3     1     1     1.06499980    -0.97961240 -2605.49174736    -0.02255926    -0.00055526  0.51D-04  0.54D-04  6484.34
    3     2     2     1.06500226    -0.97961204 -2605.49174700    -0.02256005    -0.00055549  0.52D-04  0.54D-04  6484.34
    3     3     3     1.06500120    -0.97961202 -2605.49174698    -0.02257550    -0.00055553  0.51D-04  0.54D-04  6484.34
    4     1     1     1.06515839    -0.98020522 -2605.49234018    -0.00059283    -0.00002953  0.99D-06  0.40D-05  9583.06
    4     2     2     1.06515839    -0.98020517 -2605.49234014    -0.00059314    -0.00002956  0.99D-06  0.40D-05  9583.06
    4     3     3     1.06515876    -0.98020517 -2605.49234013    -0.00059315    -0.00002957  0.99D-06  0.40D-05  9583.06
    5     1     1     1.06550617    -0.98023939 -2605.49237435    -0.00003417    -0.00000183  0.71D-07  0.24D-06 12674.25
    5     2     2     1.06550612    -0.98023939 -2605.49237435    -0.00003421    -0.00000183  0.71D-07  0.24D-06 12674.25
    5     3     3     1.06550601    -0.98023939 -2605.49237435    -0.00003422    -0.00000183  0.71D-07  0.24D-06 12674.25
    6     1     1     1.06555420    -0.98024155 -2605.49237652    -0.00000216    -0.00000013  0.72D-08  0.15D-07 15763.12
    6     2     2     1.06555421    -0.98024155 -2605.49237651    -0.00000217    -0.00000013  0.72D-08  0.15D-07 15763.12
    6     3     3     1.06555420    -0.98024155 -2605.49237651    -0.00000217    -0.00000013  0.72D-08  0.15D-07 15763.12
    7     1     1     1.06556068    -0.98024170 -2605.49237666    -0.00000014    -0.00000001  0.43D-09  0.11D-08 18851.82
    7     2     2     1.06556069    -0.98024170 -2605.49237666    -0.00000014    -0.00000001  0.43D-09  0.11D-08 18851.82
    7     3     3     1.06556068    -0.98024170 -2605.49237666    -0.00000014    -0.00000001  0.43D-09  0.11D-08 18851.82
    8     1     1     1.06556093    -0.98024171 -2605.49237667    -0.00000001    -0.00000000  0.34D-10  0.10D-09 21938.30
    8     2     2     1.06556093    -0.98024171 -2605.49237667    -0.00000001    -0.00000000  0.34D-10  0.10D-09 21938.30
    8     3     3     1.06556093    -0.98024171 -2605.49237667    -0.00000001    -0.00000000  0.34D-10  0.10D-09 21938.30
    9     1     1     1.06556153    -0.98024171 -2605.49237667    -0.00000000    -0.00000000  0.34D-11  0.88D-11 25024.68
    9     2     2     1.06556153    -0.98024171 -2605.49237667    -0.00000000    -0.00000000  0.34D-11  0.87D-11 25024.68
    9     3     3     1.06556153    -0.98024171 -2605.49237667    -0.00000000    -0.00000000  0.34D-11  0.88D-11 25024.68
   10     1     1     1.06556171    -0.98024171 -2605.49237667    -0.00000000    -0.00000000  0.24D-12  0.75D-12 28111.33
   10     2     2     1.06556171    -0.98024171 -2605.49237667    -0.00000000    -0.00000000  0.24D-12  0.75D-12 28111.33
   10     3     3     1.06556171    -0.98024171 -2605.49237667    -0.00000000    -0.00000000  0.24D-12  0.75D-12 28111.33
   11     1     1     1.06556173    -0.98024171 -2605.49237667    -0.00000000    -0.00000000  0.27D-13  0.66D-13 31197.48
   11     2     2     1.06556173    -0.98024171 -2605.49237667    -0.00000000    -0.00000000  0.27D-13  0.66D-13 31197.48
   11     3     3     1.06556173    -0.98024171 -2605.49237667    -0.00000000    -0.00000000  0.27D-13  0.66D-13 31197.48
   12     1     1     1.06556175    -0.98024171 -2605.49237667    -0.00000000    -0.00000000  0.25D-14  0.69D-14 34278.68
   12     2     2     1.06556175    -0.98024171 -2605.49237667    -0.00000000    -0.00000000  0.25D-14  0.69D-14 34278.68
   12     3     3     1.06556175    -0.98024171 -2605.49237667    -0.00000000    -0.00000000  0.25D-14  0.69D-14 34278.68
   13     1     1     1.06556175    -0.98024171 -2605.49237667    -0.00000000    -0.00000000  0.19D-15  0.61D-15 37360.53
   13     2     2     1.06556175    -0.98024171 -2605.49237667     0.00000000    -0.00000000  0.18D-15  0.59D-15 37360.53
   13     3     3     1.06556175    -0.98024171 -2605.49237667     0.00000000    -0.00000000  0.19D-15  0.63D-15 37360.53
   14     1     1     1.06556175    -0.98024171 -2605.49237667    -0.00000000    -0.00000000  0.18D-16  0.85D-16 40442.84
   14     2     2     1.06556175    -0.98024171 -2605.49237667    -0.00000000    -0.00000000  0.13D-16  0.74D-16 40442.84
   14     3     3     1.06556175    -0.98024171 -2605.49237667    -0.00000000    -0.00000000  0.19D-16  0.93D-16 40442.84
   15     1     1     1.06556175    -0.98024171 -2605.49237667     0.00000000    -0.00000000  0.25D-17  0.22D-16 42858.08
   15     2     2     1.06556175    -0.98024171 -2605.49237667     0.00000000    -0.00000000  0.13D-16  0.76D-16 42858.08
   15     3     3     1.06556175    -0.98024171 -2605.49237667    -0.00000000    -0.00000000  0.43D-17  0.32D-16 42858.08


 =====================================
 Analysis of CPU times by interactions
 =====================================

       I      S      P

 I   0.4%
 S   0.3%  49.5%
 P   0.2%  42.8%   5.6%

 Initialization:   0.6%
 Other:            0.7%

 Total CPU:    42858.1 seconds
 =====================================



 Wavefunction saved on  5203.2

 Reference coefficients greater than 0.0500000
 =============================================
 222222202222/2000          -0.3342037   0.8125977  -0.3901072
 22222220222/22000          -0.5807817   0.1240595   0.7559712
 2222222022222/000           0.6893411   0.4984826   0.4477885
 222222202222//00\          -0.0237935   0.0578525  -0.0277735
 22222220222//2\00           0.0237935  -0.0578525   0.0277735
 22222220222/2/00\          -0.0413485   0.0088324   0.0538210
 22222220222//20\0          -0.0413485   0.0088324   0.0538210

 Coefficients of fixed reference functions:
 ==========================================

 State      Coefficients
 1           0.694488   -0.336699   -0.585118
 2           0.502205    0.818665    0.124986
 3           0.451132   -0.393020    0.761616

 Coefficients of rotated reference functions:
 ============================================

 State      Coefficients
 1           0.968527   -0.000000   -0.000000
 2          -0.000000    0.968527    0.000000
 3          -0.000000    0.000000    0.968527


 RESULTS FOR STATE 1.2
 =====================

 Coefficient of reference function:   C(0) = 0.69448842 (fixed)   0.96872241 (relaxed)   0.96852674 (rotated)

 Energy contributions of configuration classes

 CLASS          SQ.NORM        ECORR1        ECORR2
 +++++++++++++++++++++++++++++++++++++++++++++++++++
 Internals    0.00045635   -0.00049083   -1.37831569
 Singles      0.01311348   -0.06435728   -0.07242794
 Pairs        0.05247820    0.55301895    0.47050192
 Total        1.06604802    0.48817084   -0.98024171
 +++++++++++++++++++++++++++++++++++++++++++++++++++


 Reference energy                   -2604.51213496
 Nuclear energy                         0.00000000
 Kinetic energy                      2787.63951791
 One electron energy                -3622.50037261
 Two electron energy                 1017.00799594
 Virial quotient                       -0.93465900
 Correlation energy                    -0.98024171
 !MRCI STATE 1.2 Energy             -2605.492376668824

 Properties without orbital relaxation:

 !MRCI STATE 1.2 Dipole moment          0.00000000     0.00000000     0.00000000
 Dipole moment /Debye                   0.00000000     0.00000000     0.00000000

 Cluster corrected energies         -2605.55711970 (Davidson, fixed reference)
 Cluster corrected energies         -2605.55669760 (Davidson, relaxed reference)
 Cluster corrected energies         -2605.55711970 (Davidson, rotated reference)

 Cluster corrected energies         -2605.55515779 (Pople, fixed reference)
 Cluster corrected energies         -2605.55472512 (Pople, relaxed reference)
 Cluster corrected energies         -2605.55515779 (Pople, rotated reference)



 RESULTS FOR STATE 2.2
 =====================

 Coefficient of reference function:   C(0) = 0.81866533 (fixed)   0.96872241 (relaxed)   0.96852674 (rotated)

 Energy contributions of configuration classes

 CLASS          SQ.NORM        ECORR1        ECORR2
 +++++++++++++++++++++++++++++++++++++++++++++++++++
 Internals    0.00045635   -0.00049083   -0.74874924
 Singles      0.01311348   -0.06435728   -0.07242794
 Pairs        0.05247820   -0.11812911   -0.15906453
 Total        1.06604802   -0.18297722   -0.98024171
 +++++++++++++++++++++++++++++++++++++++++++++++++++


 Reference energy                   -2604.51213496
 Nuclear energy                         0.00000000
 Kinetic energy                      2787.63951794
 One electron energy                -3622.50037266
 Two electron energy                 1017.00799600
 Virial quotient                       -0.93465900
 Correlation energy                    -0.98024171
 !MRCI STATE 2.2 Energy             -2605.492376668622

 Properties without orbital relaxation:

 !MRCI STATE 2.2 Dipole moment          0.00000000     0.00000000     0.00000000
 Dipole moment /Debye                   0.00000000     0.00000000     0.00000000

 Cluster corrected energies         -2605.55711970 (Davidson, fixed reference)
 Cluster corrected energies         -2605.55669760 (Davidson, relaxed reference)
 Cluster corrected energies         -2605.55711970 (Davidson, rotated reference)

 Cluster corrected energies         -2605.55515779 (Pople, fixed reference)
 Cluster corrected energies         -2605.55472512 (Pople, relaxed reference)
 Cluster corrected energies         -2605.55515779 (Pople, rotated reference)



 RESULTS FOR STATE 3.2
 =====================

 Coefficient of reference function:   C(0) = 0.76161607 (fixed)   0.96872241 (relaxed)   0.96852674 (rotated)

 Energy contributions of configuration classes

 CLASS          SQ.NORM        ECORR1        ECORR2
 +++++++++++++++++++++++++++++++++++++++++++++++++++
 Internals    0.00045635   -0.00049083   -0.18432356
 Singles      0.01311348   -0.06435728   -0.07242794
 Pairs        0.05247820   -0.71983400   -0.72349021
 Total        1.06604802   -0.78468211   -0.98024171
 +++++++++++++++++++++++++++++++++++++++++++++++++++


 Reference energy                   -2604.51213496
 Nuclear energy                         0.00000000
 Kinetic energy                      2787.63951806
 One electron energy                -3622.50037278
 Two electron energy                 1017.00799611
 Virial quotient                       -0.93465900
 Correlation energy                    -0.98024171
 !MRCI STATE 3.2 Energy             -2605.492376668413

 Properties without orbital relaxation:

 !MRCI STATE 3.2 Dipole moment          0.00000000     0.00000000     0.00000000
 Dipole moment /Debye                   0.00000000     0.00000000     0.00000000

 Cluster corrected energies         -2605.55711970 (Davidson, fixed reference)
 Cluster corrected energies         -2605.55669760 (Davidson, relaxed reference)
 Cluster corrected energies         -2605.55711970 (Davidson, rotated reference)

 Cluster corrected energies         -2605.55515779 (Pople, fixed reference)
 Cluster corrected energies         -2605.55472512 (Pople, relaxed reference)
 Cluster corrected energies         -2605.55515779 (Pople, rotated reference)



 **********************************************************************************************************************************
 DATASETS  * FILE   NREC   LENGTH (MB)   RECORD NAMES
              1      24       72.33       500      610      700      900      950      970     1000      129      960     1700   
                                          VAR    BASINP    GEOM    SYMINP    ZMAT    AOBASIS   BASIS     P2S    ABASIS    OPER   
                                         1101     1401     1411     1412     1650     1100     1400     1410     1200     1210   
                                          SR      EKINR    POTR     PVPR    MOLCAS      S      EKIN      POT      H0       H01  
                                         1080     1600     1380     1700(1)
                                         AOSYM     SMH     JKOP     OPER   

              2       6      970.07       700     1000      520     2100     2140     5203   
                                         GEOM     BASIS   MCVARS     RHF     MCSCF    MRCI   

 PROGRAMS   *        TOTAL        CI     MULTI   RHF-SCF       INT
 CPU TIMES  *     43189.97  43176.51      7.69      0.85      4.75
 REAL TIME  *     43424.69 SEC
 DISK USED  *         1.02 GB (local),        3.30 GB (total)
 SF USED    *        10.54 GB
 GA USED    *         0.00 MB       (max)       0.00 MB       (current)
 **********************************************************************************************************************************
 SETTING HLSDIAG(1)     =     -2605.55711970  AU                              
 SETTING HLSDIAG(2)     =     -2605.55711970  AU                              
 SETTING HLSDIAG(3)     =     -2605.55711970  AU                              


 PROGRAM * CI (Multireference internally contracted CI)     Authors: H.-J. Werner, P.J. Knowles, 1987


 Convergence thresholds:  THRVAR = 1.00D-16  THRDEN = 1.00D-10

 Number of optimized states: 8  Roots:    1   2   3   4   5   6   7   8
 Number of reference states: 8  Roots:    1   2   3   4   5   6   7   8

 Reference symmetry:                   2   Quartet 
 Number of electrons:                 35
 Maximum number of shells:             6
 Maximum number of spin couplings:   572

 Reference space:      344 conf      656 CSFs
 N elec internal:    52189 conf   229224 CSFs
 N-1 el internal:    51137 conf   453552 CSFs
 N-2 el internal:    21984 conf   385640 CSFs

 Number of electrons in valence space:                     25
 Maximum number of open shell orbitals in reference space:  7
 Maximum number of open shell orbitals in internal spaces: 13


 Number of core orbitals:           5 (   2   3 )
 Number of closed-shell orbitals:   9 (   6   3 )
 Number of active  orbitals:        8 (   2   6 )
 Number of external orbitals:     148 (  77  71 )

 Molecular orbitals read from record     2140.2  Type=MCSCF/NATURAL (state averaged)

 Coulomb and exchange operators available. No transformation done.


 Number of p-space configurations:   9

 Reference wavefunction optimized for reference space (refopt=1)

 State     Reference Energy 
     1     -2604.20665760
     2     -2604.20665760
     3     -2604.20665760
     4     -2604.19819770
     5     -2604.19819770
     6     -2604.19819770
     7     -2604.19819770
     8     -2604.19819770

 ?WARNING: SMALL EIGENVALUE OF PAIR OVERLAP MATRIX:  0.3313D-06

 Number of blocks in overlap matrix:   742   Smallest eigenvalue:  0.33D-06
 Number of N-2 electron functions:    2252
 Number of N-1 electron functions:  453552

 Number of internal configurations:               114452
 Number of singly external configurations:      33559776
 Number of doubly external configurations:      12337108
 Total number of contracted configurations:     46011336
 Total number of uncontracted configurations: 2139169380

 Diagonal Coupling coefficients finished.               Storage:  86457847 words, CPU-Time:   1272.94 seconds.
 Energy denominators for pairs finished in 1 passes.    Storage:   8409574 words, CPU-time:      0.90 seconds.

  ITER. STATE  ROOT     SQ.NORM     CORR.ENERGY   TOTAL ENERGY   ENERGY CHANGE       DEN1      VAR(S)    VAR(P)      TIME
    1     1     1     1.00000000     0.00000000 -2604.20665760     0.00000000    -1.10115545  0.34D-01  0.59D-01  1373.75
    1     2     2     1.00000000     0.00000000 -2604.20665760     0.00000000    -1.10130416  0.34D-01  0.59D-01  1373.75
    1     3     3     1.00000000     0.00000000 -2604.20665760     0.00000000    -1.10148122  0.34D-01  0.59D-01  1373.75
    1     4     4     1.00000000     0.00000000 -2604.19819770     0.00000000    -1.10318602  0.35D-01  0.59D-01  1373.75
    1     5     5     1.00000000     0.00000000 -2604.19819770    -0.00000000    -1.10293948  0.35D-01  0.59D-01  1373.75
    1     6     6     1.00000000     0.00000000 -2604.19819770    -0.00000000    -1.10296838  0.35D-01  0.59D-01  1373.75
    1     7     7     1.00000000     0.00000000 -2604.19819770     0.00000000    -1.10316707  0.35D-01  0.59D-01  1373.75
    1     8     8     1.00000000     0.00000000 -2604.19819770     0.00000000    -1.10698186  0.35D-01  0.61D-01  1373.75
    2     1     1     1.06665446    -0.93530421 -2605.14196182    -0.93530421    -0.01984740  0.22D-02  0.97D-03 11845.44
    2     2     2     1.06660328    -0.93529161 -2605.14194922    -0.93529161    -0.01984951  0.22D-02  0.98D-03 11845.44
    2     3     3     1.06674191    -0.93525094 -2605.14190854    -0.93525094    -0.01991818  0.22D-02  0.98D-03 11845.44
    2     4     4     1.06768675    -0.93625826 -2605.13445597    -0.93625826    -0.02014373  0.24D-02  0.97D-03 11845.44
    2     5     5     1.06770202    -0.93596183 -2605.13415954    -0.93596183    -0.02036703  0.25D-02  0.98D-03 11845.44
    2     6     6     1.06769333    -0.93595477 -2605.13415247    -0.93595477    -0.02038528  0.25D-02  0.99D-03 11845.44
    2     7     7     1.06780718    -0.93589387 -2605.13409158    -0.93589387    -0.02045200  0.25D-02  0.98D-03 11845.44
    2     8     8     1.06891706    -0.93572746 -2605.13392516    -0.93572746    -0.02079710  0.24D-02  0.11D-02 11845.44
    3     1     1     1.05875947    -0.95401245 -2605.16067006    -0.01870824    -0.00051478  0.30D-04  0.58D-04 22294.12
    3     2     2     1.05875228    -0.95400690 -2605.16066450    -0.01871529    -0.00051759  0.30D-04  0.58D-04 22294.12
    3     3     3     1.05873279    -0.95400377 -2605.16066137    -0.01875284    -0.00052018  0.30D-04  0.59D-04 22294.12
    3     4     4     1.05942564    -0.95528291 -2605.15348061    -0.01902465    -0.00049499  0.35D-04  0.55D-04 22294.12
    3     5     5     1.05929169    -0.95524897 -2605.15344667    -0.01928713    -0.00051525  0.37D-04  0.56D-04 22294.12
    3     6     6     1.05918365    -0.95520170 -2605.15339940    -0.01924693    -0.00054263  0.37D-04  0.60D-04 22294.12
    3     7     7     1.05919136    -0.95520126 -2605.15339896    -0.01930739    -0.00054256  0.38D-04  0.60D-04 22294.12
    3     8     8     1.05918449    -0.95519599 -2605.15339369    -0.01946853    -0.00054514  0.37D-04  0.61D-04 22294.12
    4     1     1     1.05915596    -0.95460676 -2605.16126436    -0.00059431    -0.00005193  0.23D-05  0.65D-05 32751.18
    4     2     2     1.05914730    -0.95460593 -2605.16126353    -0.00059903    -0.00005274  0.24D-05  0.65D-05 32751.18
    4     3     3     1.05915110    -0.95460571 -2605.16126331    -0.00060194    -0.00005271  0.24D-05  0.65D-05 32751.18
    4     4     4     1.05964779    -0.95584203 -2605.15403973    -0.00055912    -0.00004588  0.21D-05  0.60D-05 32751.18
    4     5     5     1.05962335    -0.95583855 -2605.15403626    -0.00058958    -0.00004905  0.22D-05  0.62D-05 32751.18
    4     6     6     1.05958250    -0.95583135 -2605.15402905    -0.00062965    -0.00005446  0.25D-05  0.68D-05 32751.18
    4     7     7     1.05958193    -0.95583084 -2605.15402854    -0.00062958    -0.00005466  0.25D-05  0.68D-05 32751.18
    4     8     8     1.05957722    -0.95582981 -2605.15402751    -0.00063382    -0.00005540  0.25D-05  0.68D-05 32751.18
    5     1     1     1.05971268    -0.95467163 -2605.16132923    -0.00006487    -0.00000470  0.24D-06  0.49D-06 43199.93
    5     2     2     1.05971339    -0.95467161 -2605.16132922    -0.00006568    -0.00000468  0.24D-06  0.49D-06 43199.93
    5     3     3     1.05971314    -0.95467155 -2605.16132915    -0.00006584    -0.00000474  0.24D-06  0.49D-06 43199.93
    5     4     4     1.06015638    -0.95589949 -2605.15409719    -0.00005746    -0.00000437  0.23D-06  0.48D-06 43199.93
    5     5     5     1.06015793    -0.95589938 -2605.15409709    -0.00006083    -0.00000439  0.23D-06  0.49D-06 43199.93
    5     6     6     1.06015532    -0.95589912 -2605.15409683    -0.00006777    -0.00000488  0.26D-06  0.52D-06 43199.93
    5     7     7     1.06015593    -0.95589903 -2605.15409673    -0.00006819    -0.00000494  0.27D-06  0.52D-06 43199.93
    5     8     8     1.06015551    -0.95589894 -2605.15409665    -0.00006914    -0.00000500  0.27D-06  0.52D-06 43199.93
    6     1     1     1.05974832    -0.95467721 -2605.16133481    -0.00000558    -0.00000040  0.17D-07  0.47D-07 53658.70
    6     2     2     1.05974822    -0.95467717 -2605.16133477    -0.00000555    -0.00000040  0.17D-07  0.47D-07 53658.70
    6     3     3     1.05974838    -0.95467716 -2605.16133476    -0.00000561    -0.00000040  0.17D-07  0.46D-07 53658.70
    6     4     4     1.06019608    -0.95590492 -2605.15410262    -0.00000543    -0.00000042  0.22D-07  0.49D-07 53658.70
    6     5     5     1.06019598    -0.95590488 -2605.15410258    -0.00000550    -0.00000042  0.22D-07  0.49D-07 53658.70
    6     6     6     1.06019580    -0.95590486 -2605.15410256    -0.00000573    -0.00000043  0.22D-07  0.49D-07 53658.70
    6     7     7     1.06019843    -0.95590476 -2605.15410247    -0.00000573    -0.00000040  0.20D-07  0.47D-07 53658.70
    6     8     8     1.06019976    -0.95590464 -2605.15410234    -0.00000569    -0.00000039  0.21D-07  0.47D-07 53658.70
    7     1     1     1.05975292    -0.95467768 -2605.16133528    -0.00000047    -0.00000005  0.23D-08  0.60D-08 64104.26
    7     2     2     1.05975281    -0.95467764 -2605.16133524    -0.00000047    -0.00000005  0.23D-08  0.59D-08 64104.26
    7     3     3     1.05975297    -0.95467763 -2605.16133523    -0.00000047    -0.00000005  0.22D-08  0.58D-08 64104.26
    7     4     4     1.06020260    -0.95590541 -2605.15410312    -0.00000050    -0.00000005  0.25D-08  0.62D-08 64104.26
    7     5     5     1.06020247    -0.95590537 -2605.15410308    -0.00000050    -0.00000005  0.25D-08  0.62D-08 64104.26
    7     6     6     1.06020229    -0.95590536 -2605.15410306    -0.00000050    -0.00000005  0.25D-08  0.62D-08 64104.26
    7     7     7     1.06020348    -0.95590523 -2605.15410294    -0.00000047    -0.00000005  0.24D-08  0.61D-08 64104.26
    7     8     8     1.06020438    -0.95590510 -2605.15410280    -0.00000046    -0.00000005  0.24D-08  0.61D-08 64104.26
    8     1     1     1.05975592    -0.95467774 -2605.16133534    -0.00000006    -0.00000001  0.45D-09  0.77D-09 74522.58
    8     2     2     1.05975584    -0.95467770 -2605.16133530    -0.00000006    -0.00000001  0.44D-09  0.75D-09 74522.58
    8     3     3     1.05975587    -0.95467768 -2605.16133529    -0.00000006    -0.00000001  0.44D-09  0.75D-09 74522.58
    8     4     4     1.06020575    -0.95590547 -2605.15410318    -0.00000006    -0.00000001  0.46D-09  0.78D-09 74522.58
    8     5     5     1.06020564    -0.95590543 -2605.15410314    -0.00000006    -0.00000001  0.46D-09  0.77D-09 74522.58
    8     6     6     1.06020559    -0.95590542 -2605.15410312    -0.00000006    -0.00000001  0.46D-09  0.77D-09 74522.58
    8     7     7     1.06020598    -0.95590529 -2605.15410300    -0.00000006    -0.00000001  0.45D-09  0.78D-09 74522.58
    8     8     8     1.06020588    -0.95590516 -2605.15410286    -0.00000006    -0.00000001  0.44D-09  0.76D-09 74522.58
    9     1     1     1.05975718    -0.95467775 -2605.16133535    -0.00000001    -0.00000000  0.57D-10  0.11D-09 84929.61
    9     2     2     1.05975712    -0.95467770 -2605.16133531    -0.00000001    -0.00000000  0.55D-10  0.11D-09 84929.61
    9     3     3     1.05975712    -0.95467769 -2605.16133529    -0.00000001    -0.00000000  0.56D-10  0.11D-09 84929.61
    9     4     4     1.06020721    -0.95590548 -2605.15410318    -0.00000001    -0.00000000  0.65D-10  0.11D-09 84929.61
    9     5     5     1.06020715    -0.95590544 -2605.15410315    -0.00000001    -0.00000000  0.65D-10  0.11D-09 84929.61
    9     6     6     1.06020712    -0.95590543 -2605.15410313    -0.00000001    -0.00000000  0.64D-10  0.11D-09 84929.61
    9     7     7     1.06020720    -0.95590530 -2605.15410301    -0.00000001    -0.00000000  0.63D-10  0.11D-09 84929.61
    9     8     8     1.06020696    -0.95590517 -2605.15410287    -0.00000001    -0.00000000  0.65D-10  0.11D-09 84929.61
   10     1     1     1.05975774    -0.95467775 -2605.16133535    -0.00000000    -0.00000000  0.67D-11  0.18D-10 95340.25
   10     2     2     1.05975769    -0.95467771 -2605.16133531    -0.00000000    -0.00000000  0.65D-11  0.18D-10 95340.25
   10     3     3     1.05975769    -0.95467769 -2605.16133530    -0.00000000    -0.00000000  0.66D-11  0.18D-10 95340.25
   10     4     4     1.06020787    -0.95590548 -2605.15410319    -0.00000000    -0.00000000  0.73D-11  0.18D-10 95340.25
   10     5     5     1.06020783    -0.95590544 -2605.15410315    -0.00000000    -0.00000000  0.72D-11  0.18D-10 95340.25
   10     6     6     1.06020781    -0.95590543 -2605.15410313    -0.00000000    -0.00000000  0.72D-11  0.18D-10 95340.25
   10     7     7     1.06020777    -0.95590530 -2605.15410301    -0.00000000    -0.00000000  0.71D-11  0.18D-10 95340.25
   10     8     8     1.06020767    -0.95590517 -2605.15410287    -0.00000000    -0.00000000  0.71D-11  0.18D-10 95340.25
   11     1     1     1.05975788    -0.95467775 -2605.16133535    -0.00000000    -0.00000000  0.16D-11  0.27D-11105744.13
   11     2     2     1.05975783    -0.95467771 -2605.16133531    -0.00000000    -0.00000000  0.16D-11  0.26D-11105744.13
   11     3     3     1.05975782    -0.95467769 -2605.16133530    -0.00000000    -0.00000000  0.16D-11  0.26D-11105744.13
   11     4     4     1.06020802    -0.95590548 -2605.15410319    -0.00000000    -0.00000000  0.16D-11  0.26D-11105744.13
   11     5     5     1.06020798    -0.95590544 -2605.15410315    -0.00000000    -0.00000000  0.16D-11  0.26D-11105744.13
   11     6     6     1.06020797    -0.95590543 -2605.15410313    -0.00000000    -0.00000000  0.16D-11  0.26D-11105744.13
   11     7     7     1.06020792    -0.95590530 -2605.15410301    -0.00000000    -0.00000000  0.16D-11  0.27D-11105744.13
   11     8     8     1.06020780    -0.95590517 -2605.15410287    -0.00000000    -0.00000000  0.16D-11  0.26D-11105744.13
   12     1     1     1.05975790    -0.95467775 -2605.16133535    -0.00000000    -0.00000000  0.26D-12  0.41D-12116130.95
   12     2     2     1.05975786    -0.95467771 -2605.16133531    -0.00000000    -0.00000000  0.25D-12  0.40D-12116130.95
   12     3     3     1.05975785    -0.95467769 -2605.16133530    -0.00000000    -0.00000000  0.25D-12  0.40D-12116130.95
   12     4     4     1.06020806    -0.95590548 -2605.15410319    -0.00000000    -0.00000000  0.28D-12  0.41D-12116130.95
   12     5     5     1.06020802    -0.95590544 -2605.15410315    -0.00000000    -0.00000000  0.28D-12  0.40D-12116130.95
   12     6     6     1.06020801    -0.95590543 -2605.15410313    -0.00000000    -0.00000000  0.28D-12  0.40D-12116130.95
   12     7     7     1.06020796    -0.95590530 -2605.15410301    -0.00000000    -0.00000000  0.28D-12  0.41D-12116130.95
   12     8     8     1.06020783    -0.95590517 -2605.15410287    -0.00000000    -0.00000000  0.29D-12  0.40D-12116130.95
   13     1     1     1.05975791    -0.95467775 -2605.16133535    -0.00000000    -0.00000000  0.32D-13  0.75D-13126538.73
   13     2     2     1.05975787    -0.95467771 -2605.16133531    -0.00000000    -0.00000000  0.30D-13  0.71D-13126538.73
   13     3     3     1.05975786    -0.95467769 -2605.16133530    -0.00000000    -0.00000000  0.30D-13  0.71D-13126538.73
   13     4     4     1.06020808    -0.95590548 -2605.15410319    -0.00000000    -0.00000000  0.35D-13  0.76D-13126538.73
   13     5     5     1.06020804    -0.95590544 -2605.15410315    -0.00000000    -0.00000000  0.35D-13  0.75D-13126538.73
   13     6     6     1.06020802    -0.95590543 -2605.15410313    -0.00000000    -0.00000000  0.35D-13  0.75D-13126538.73
   13     7     7     1.06020797    -0.95590530 -2605.15410301    -0.00000000    -0.00000000  0.34D-13  0.77D-13126538.73
   13     8     8     1.06020785    -0.95590517 -2605.15410287    -0.00000000    -0.00000000  0.34D-13  0.76D-13126538.73
   14     1     1     1.05975792    -0.95467775 -2605.16133535     0.00000000    -0.00000000  0.63D-14  0.12D-13136964.81
   14     2     2     1.05975788    -0.95467771 -2605.16133531    -0.00000000    -0.00000000  0.59D-14  0.12D-13136964.81
   14     3     3     1.05975787    -0.95467769 -2605.16133530    -0.00000000    -0.00000000  0.59D-14  0.12D-13136964.81
   14     4     4     1.06020809    -0.95590548 -2605.15410319    -0.00000000    -0.00000000  0.64D-14  0.12D-13136964.81
   14     5     5     1.06020804    -0.95590544 -2605.15410315    -0.00000000    -0.00000000  0.63D-14  0.12D-13136964.81
   14     6     6     1.06020803    -0.95590543 -2605.15410313    -0.00000000    -0.00000000  0.63D-14  0.12D-13136964.81
   14     7     7     1.06020798    -0.95590530 -2605.15410301    -0.00000000    -0.00000000  0.63D-14  0.12D-13136964.81
   14     8     8     1.06020786    -0.95590517 -2605.15410287    -0.00000000    -0.00000000  0.64D-14  0.12D-13136964.81
   15     1     1     1.05975792    -0.95467775 -2605.16133535    -0.00000000    -0.00000000  0.11D-14  0.18D-14147383.30
   15     2     2     1.05975788    -0.95467771 -2605.16133531    -0.00000000    -0.00000000  0.11D-14  0.17D-14147383.30
   15     3     3     1.05975787    -0.95467769 -2605.16133530     0.00000000    -0.00000000  0.11D-14  0.17D-14147383.30
   15     4     4     1.06020809    -0.95590548 -2605.15410319    -0.00000000    -0.00000000  0.13D-14  0.19D-14147383.30
   15     5     5     1.06020805    -0.95590544 -2605.15410315    -0.00000000    -0.00000000  0.12D-14  0.19D-14147383.30
   15     6     6     1.06020804    -0.95590543 -2605.15410313    -0.00000000    -0.00000000  0.12D-14  0.19D-14147383.30
   15     7     7     1.06020799    -0.95590530 -2605.15410301    -0.00000000    -0.00000000  0.12D-14  0.19D-14147383.30
   15     8     8     1.06020786    -0.95590517 -2605.15410287    -0.00000000    -0.00000000  0.13D-14  0.19D-14147383.30
   16     1     1     1.05975792    -0.95467775 -2605.16133535     0.00000000    -0.00000000  0.14D-15  0.33D-15157775.25
   16     2     2     1.05975788    -0.95467771 -2605.16133531     0.00000000    -0.00000000  0.14D-15  0.32D-15157775.25
   16     3     3     1.05975787    -0.95467769 -2605.16133530     0.00000000    -0.00000000  0.14D-15  0.31D-15157775.25
   16     4     4     1.06020809    -0.95590548 -2605.15410319     0.00000000    -0.00000000  0.17D-15  0.37D-15157775.25
   16     5     5     1.06020805    -0.95590544 -2605.15410315    -0.00000000    -0.00000000  0.18D-15  0.37D-15157775.25
   16     6     6     1.06020804    -0.95590543 -2605.15410313     0.00000000    -0.00000000  0.17D-15  0.37D-15157775.25
   16     7     7     1.06020799    -0.95590530 -2605.15410301     0.00000000    -0.00000000  0.16D-15  0.38D-15157775.25
   16     8     8     1.06020787    -0.95590517 -2605.15410287    -0.00000000    -0.00000000  0.17D-15  0.37D-15157775.25
   17     1     1     1.05975792    -0.95467775 -2605.16133535    -0.00000000    -0.00000000  0.17D-16  0.58D-16168149.00
   17     2     2     1.05975788    -0.95467771 -2605.16133531    -0.00000000    -0.00000000  0.16D-16  0.59D-16168149.00
   17     3     3     1.05975787    -0.95467769 -2605.16133530    -0.00000000    -0.00000000  0.16D-16  0.57D-16168149.00
   17     4     4     1.06020809    -0.95590548 -2605.15410319    -0.00000000    -0.00000000  0.21D-16  0.67D-16168149.00
   17     5     5     1.06020805    -0.95590544 -2605.15410315     0.00000000    -0.00000000  0.20D-16  0.66D-16168149.00
   17     6     6     1.06020804    -0.95590543 -2605.15410313     0.00000000    -0.00000000  0.21D-16  0.66D-16168149.00
   17     7     7     1.06020799    -0.95590530 -2605.15410301     0.00000000    -0.00000000  0.21D-16  0.67D-16168149.00
   17     8     8     1.06020787    -0.95590517 -2605.15410287     0.00000000    -0.00000000  0.20D-16  0.66D-16168149.00


 =====================================
 Analysis of CPU times by interactions
 =====================================

       I      S      P

 I   0.3%
 S   0.2%  38.6%
 P   0.2%  45.8%  12.9%

 Initialization:   0.8%
 Other:            1.3%

 Total CPU:   168149.0 seconds
 =====================================



 Wavefunction saved on  5303.2

 Reference coefficients greater than 0.0500000
 =============================================
 22222220222//200/           0.0000001   0.0000001   0.0000000  -0.0027489  -0.0000647   0.0001651  -0.0082010   0.7907542
 222222202222///00          -0.0000002   0.0000001   0.0000000  -0.0009500  -0.0000666  -0.0035413   0.6889053  -0.3882823
 22222220222/2//00           0.6850052   0.0013179   0.0028220  -0.6848356  -0.0033523  -0.0013986  -0.0023071  -0.0024047
 222222202222//0/0           0.6850036   0.0013179   0.0028221   0.6848372   0.0033522   0.0013986   0.0023073   0.0024045
 22222220222/2/00/          -0.0027737  -0.0241957   0.6845768  -0.0033645   0.6848236   0.0057380   0.0001160   0.0000443
 222222202222//00/          -0.0014167   0.6845811   0.0241900  -0.0013817  -0.0057452   0.6848218   0.0034543  -0.0001125
 22222220222//20/0          -0.0027738  -0.0241955   0.6845802   0.0033644  -0.6848202  -0.0057380  -0.0001161  -0.0000443
 22222220222//2/00           0.0014167  -0.6845846  -0.0241900  -0.0013816  -0.0057455   0.6848182   0.0034545  -0.0001124
 22222220222/2/0/0          -0.0000000   0.0000001   0.0000000  -0.0036989  -0.0001313  -0.0033761   0.6807042   0.4024720

 Coefficients of fixed reference functions:
 ==========================================

 State      Coefficients
 1           0.971292   -0.002009   -0.003933   -0.000000   -0.000001    0.000000    0.000000    0.000000
 2           0.001869    0.970694   -0.034308    0.000000    0.000000   -0.000002   -0.000000    0.000000
 3           0.004002    0.034300    0.970688    0.000000    0.000000   -0.000000   -0.000002    0.000000
 4           0.000001   -0.000000   -0.000000   -0.003296    0.971070   -0.001959   -0.004771   -0.003375
 5          -0.000000    0.000000    0.000002   -0.000140    0.004753   -0.008147    0.971050   -0.000079
 6          -0.000000    0.000003   -0.000000   -0.004904    0.001983    0.971047    0.008136    0.000203
 7           0.000000   -0.000000   -0.000000    0.971025    0.003272    0.004898    0.000165   -0.010112
 8          -0.000000   -0.000000    0.000000    0.010101    0.003410   -0.000159    0.000063    0.971037

 Coefficients of rotated reference functions:
 ============================================

 State      Coefficients
 1           0.971302   -0.000000    0.000000    0.000000   -0.000000   -0.000000    0.000000   -0.000000
 2          -0.000000    0.971302    0.000000   -0.000000    0.000000    0.000000   -0.000000   -0.000000
 3           0.000000    0.000000    0.971302   -0.000000    0.000000    0.000000   -0.000000   -0.000000
 4           0.000000   -0.000000   -0.000000    0.971095   -0.000000   -0.000000    0.000000    0.000000
 5          -0.000000    0.000000    0.000000   -0.000000    0.971095    0.000000    0.000000   -0.000000
 6          -0.000000    0.000000    0.000000   -0.000000    0.000000    0.971095    0.000000    0.000000
 7           0.000000   -0.000000   -0.000000    0.000000    0.000000    0.000000    0.971095   -0.000000
 8          -0.000000   -0.000000   -0.000000    0.000000   -0.000000    0.000000   -0.000000    0.971095


 RESULTS FOR STATE 1.2
 =====================

 Coefficient of reference function:   C(0) = 0.97129207 (fixed)   0.97136940 (relaxed)   0.97130211 (rotated)

 Energy contributions of configuration classes

 CLASS          SQ.NORM        ECORR1        ECORR2
 +++++++++++++++++++++++++++++++++++++++++++++++++++
 Internals    0.00019497   -0.00056733   -0.83323321
 Singles      0.01453706   -0.07166607   -0.08070485
 Pairs        0.04523251   -0.00000015   -0.04073969
 Total        1.05996454   -0.07223355   -0.95467775
 +++++++++++++++++++++++++++++++++++++++++++++++++++


 Reference energy                   -2604.20665760
 Nuclear energy                         0.00000000
 Kinetic energy                      2787.03993237
 One electron energy                -3613.44304994
 Two electron energy                 1008.28171459
 Virial quotient                       -0.93474130
 Correlation energy                    -0.95467775
 !MRCI STATE 1.2 Energy             -2605.161335352995

 Properties without orbital relaxation:

 !MRCI STATE 1.2 Dipole moment          0.00000000     0.00000000     0.00000000
 Dipole moment /Debye                   0.00000000     0.00000000     0.00000000

 Cluster corrected energies         -2605.21858217 (Davidson, fixed reference)
 Cluster corrected energies         -2605.21844196 (Davidson, relaxed reference)
 Cluster corrected energies         -2605.21858217 (Davidson, rotated reference)

 Cluster corrected energies         -2605.21604498 (Pople, fixed reference)
 Cluster corrected energies         -2605.21590419 (Pople, relaxed reference)
 Cluster corrected energies         -2605.21604498 (Pople, rotated reference)



 RESULTS FOR STATE 2.2
 =====================

 Coefficient of reference function:   C(0) = 0.97069424 (fixed)   0.97136942 (relaxed)   0.97130213 (rotated)

 Energy contributions of configuration classes

 CLASS          SQ.NORM        ECORR1        ECORR2
 +++++++++++++++++++++++++++++++++++++++++++++++++++
 Internals    0.00019497   -0.00056733   -0.83323331
 Singles      0.01453702   -0.07166601   -0.08070476
 Pairs        0.04523251   -0.00000009   -0.04073963
 Total        1.05996450   -0.07223343   -0.95467771
 +++++++++++++++++++++++++++++++++++++++++++++++++++


 Reference energy                   -2604.20665760
 Nuclear energy                         0.00000000
 Kinetic energy                      2787.03993359
 One electron energy                -3613.44305117
 Two electron energy                 1008.28171586
 Virial quotient                       -0.93474130
 Correlation energy                    -0.95467771
 !MRCI STATE 2.2 Energy             -2605.161335307729

 Properties without orbital relaxation:

 !MRCI STATE 2.2 Dipole moment          0.00000000     0.00000000     0.00000000
 Dipole moment /Debye                   0.00000000     0.00000000     0.00000000

 Cluster corrected energies         -2605.21858208 (Davidson, fixed reference)
 Cluster corrected energies         -2605.21844188 (Davidson, relaxed reference)
 Cluster corrected energies         -2605.21858208 (Davidson, rotated reference)

 Cluster corrected energies         -2605.21604489 (Pople, fixed reference)
 Cluster corrected energies         -2605.21590410 (Pople, relaxed reference)
 Cluster corrected energies         -2605.21604489 (Pople, rotated reference)



 RESULTS FOR STATE 3.2
 =====================

 Coefficient of reference function:   C(0) = 0.97068807 (fixed)   0.97136943 (relaxed)   0.97130213 (rotated)

 Energy contributions of configuration classes

 CLASS          SQ.NORM        ECORR1        ECORR2
 +++++++++++++++++++++++++++++++++++++++++++++++++++
 Internals    0.00019497   -0.00056733   -0.83323341
 Singles      0.01453702   -0.07166600   -0.08070474
 Pairs        0.04523251   -0.00000000   -0.04073954
 Total        1.05996449   -0.07223333   -0.95467769
 +++++++++++++++++++++++++++++++++++++++++++++++++++


 Reference energy                   -2604.20665760
 Nuclear energy                         0.00000000
 Kinetic energy                      2787.03993378
 One electron energy                -3613.44305095
 Two electron energy                 1008.28171565
 Virial quotient                       -0.93474130
 Correlation energy                    -0.95467769
 !MRCI STATE 3.2 Energy             -2605.161335295794

 Properties without orbital relaxation:

 !MRCI STATE 3.2 Dipole moment          0.00000000     0.00000000     0.00000000
 Dipole moment /Debye                   0.00000000     0.00000000     0.00000000

 Cluster corrected energies         -2605.21858206 (Davidson, fixed reference)
 Cluster corrected energies         -2605.21844186 (Davidson, relaxed reference)
 Cluster corrected energies         -2605.21858206 (Davidson, rotated reference)

 Cluster corrected energies         -2605.21604487 (Pople, fixed reference)
 Cluster corrected energies         -2605.21590408 (Pople, relaxed reference)
 Cluster corrected energies         -2605.21604487 (Pople, rotated reference)



 RESULTS FOR STATE 4.2
 =====================

 Maximum overlap with reference state  5

 Coefficient of reference function:   C(0) = 0.97107018 (fixed)   0.97116198 (relaxed)   0.97109534 (rotated)

 Energy contributions of configuration classes

 CLASS          SQ.NORM        ECORR1        ECORR2
 +++++++++++++++++++++++++++++++++++++++++++++++++++
 Internals    0.00019608   -0.00057827   -0.83626798
 Singles      0.01484758   -0.07237008   -0.08163114
 Pairs        0.04537232    0.00306909   -0.03800637
 Total        1.06041598   -0.06987926   -0.95590548
 +++++++++++++++++++++++++++++++++++++++++++++++++++


 Reference energy                   -2604.19819770
 Nuclear energy                         0.00000000
 Kinetic energy                      2787.05365145
 One electron energy                -3613.47722090
 Two electron energy                 1008.32311772
 Virial quotient                       -0.93473411
 Correlation energy                    -0.95590548
 !MRCI STATE 4.2 Energy             -2605.154103186020

 Properties without orbital relaxation:

 !MRCI STATE 4.2 Dipole moment          0.00000000     0.00000000     0.00000000
 Dipole moment /Debye                   0.00000000     0.00000000     0.00000000

 Cluster corrected energies         -2605.21185515 (Davidson, fixed reference)
 Cluster corrected energies         -2605.21171604 (Davidson, relaxed reference)
 Cluster corrected energies         -2605.21185515 (Davidson, rotated reference)

 Cluster corrected energies         -2605.20931673 (Pople, fixed reference)
 Cluster corrected energies         -2605.20917692 (Pople, relaxed reference)
 Cluster corrected energies         -2605.20931673 (Pople, rotated reference)



 RESULTS FOR STATE 5.2
 =====================

 Maximum overlap with reference state  7

 Coefficient of reference function:   C(0) = 0.97104953 (fixed)   0.97116200 (relaxed)   0.97109535 (rotated)

 Energy contributions of configuration classes

 CLASS          SQ.NORM        ECORR1        ECORR2
 +++++++++++++++++++++++++++++++++++++++++++++++++++
 Internals    0.00019608   -0.00057827   -0.83344187
[...]
                        -0.021226744  -0.051665845   0.074030695   0.037090560  -0.222683764   0.324667483

   37    7.2  1.5 -1.5  -0.211334549  -0.021247271   0.028427123   0.292430108  -0.110806472   0.161418319
                         0.009659293   0.107961085  -0.121369474   0.139961170  -0.101604829   0.014118267

   38    8.2  1.5 -1.5  -0.097285924   0.050797275  -0.073379496   0.132126107   0.192009589  -0.283365558
                        -0.090694363  -0.290228214   0.198313471   0.013079727   0.173445660  -0.022244853


 Composition of spin-orbit eigenvectors
 ======================================

   Nr   State  S   Sz       1        2        3        4        5        6        7        8        9       10

    1    1.2  0.5  0.5  32.395%   1.037%  17.585%  15.644%  19.898%  13.431%   0.000%   0.000%   0.000%   0.000%
    2    2.2  0.5  0.5  10.854%  41.293%  12.642%   1.871%  20.891%  12.438%   0.000%   0.000%   0.000%   0.000%
    3    3.2  0.5  0.5  14.809%   2.369%  48.590%   0.892%  21.512%  11.817%   0.000%   0.000%   0.000%   0.000%
    4    1.2  0.5 -0.5   1.208%  31.886%  14.043%  19.523%  13.430%  19.898%   0.000%   0.000%   0.000%   0.000%
    5    2.2  0.5 -0.5  34.078%  10.077%   5.421%  17.084%  12.438%  20.891%   0.000%   0.000%   0.000%   0.000%
    6    3.2  0.5 -0.5   6.646%  13.328%   1.710%  44.976%  11.817%  21.512%   0.000%   0.000%   0.000%   0.000%
    7    1.2  1.5  1.5   0.000%   0.000%   0.000%   0.000%   0.000%   0.000%   1.591%   0.209%  28.692%  14.353%
    8    2.2  1.5  1.5   0.001%   0.000%   0.002%   0.000%   0.000%   0.000%   3.017%   1.676%   6.741%  13.495%
    9    3.2  1.5  1.5   0.000%   0.000%   0.000%   0.000%   0.000%   0.000%   0.219%   5.548%  20.977%   8.320%
   10    4.2  1.5  1.5   0.000%   0.000%   0.000%   0.000%   0.000%   0.000%   0.032%   1.680%   1.222%   0.275%
   11    5.2  1.5  1.5   0.000%   0.000%   0.000%   0.000%   0.000%   0.000%   0.335%   0.493%   2.889%   1.706%
   12    6.2  1.5  1.5   0.000%   0.000%   0.000%   0.000%   0.002%   0.000%   0.098%   0.480%   0.031%   0.011%
   13    7.2  1.5  1.5   0.000%   0.000%   0.001%   0.000%   0.001%   0.000%   0.678%   0.064%   0.783%   2.136%
   14    8.2  1.5  1.5   0.001%   0.000%   0.000%   0.000%   0.001%   0.000%   0.053%   0.745%   0.612%   0.708%
   15    1.2  1.5  0.5   0.000%   0.000%   0.001%   0.001%   0.000%   0.000%   0.802%  10.377%   8.704%   8.315%
   16    2.2  1.5  0.5   0.000%   0.000%   0.000%   0.000%   0.000%   0.001%   2.307%  19.462%   2.477%   3.439%
   17    3.2  1.5  0.5   0.001%   0.001%   0.000%   0.000%   0.000%   0.000%   7.387%   2.207%   2.431%  12.047%
   18    4.2  1.5  0.5   0.000%   0.000%   0.001%   0.000%   0.001%   0.000%   0.084%   1.100%   0.145%   0.122%
   19    5.2  1.5  0.5   0.000%   0.000%   0.001%   0.000%   0.001%   0.000%   0.259%   0.771%   0.034%   0.116%
   20    6.2  1.5  0.5   0.000%   0.000%   0.000%   0.001%   0.000%   0.000%   0.850%   0.061%   2.938%   1.786%
   21    7.2  1.5  0.5   0.000%   0.001%   0.000%   0.000%   0.000%   0.001%   0.927%   0.053%   0.710%   0.335%
   22    8.2  1.5  0.5   0.000%   0.000%   0.000%   0.001%   0.000%   0.001%   1.081%   0.820%   1.135%   0.600%
   23    1.2  1.5 -0.5   0.001%   0.000%   0.001%   0.001%   0.000%   0.000%   6.506%   9.892%   4.011%   6.063%
   24    2.2  1.5 -0.5   0.000%   0.000%   0.000%   0.000%   0.001%   0.000%   4.066%  20.026%   1.693%   0.107%
   25    3.2  1.5 -0.5   0.001%   0.001%   0.000%   0.000%   0.000%   0.000%  17.332%   2.290%   0.414%   0.854%
   26    4.2  1.5 -0.5   0.000%   0.000%   0.000%   0.001%   0.000%   0.001%   0.072%   1.018%   0.170%   0.406%
   27    5.2  1.5 -0.5   0.000%   0.000%   0.000%   0.001%   0.000%   0.001%   0.231%   0.833%   0.120%   0.056%
   28    6.2  1.5 -0.5   0.000%   0.000%   0.001%   0.000%   0.000%   0.000%   0.417%   0.488%   1.747%   3.881%
   29    7.2  1.5 -0.5   0.001%   0.000%   0.000%   0.000%   0.001%   0.000%   1.468%   0.066%   0.115%   0.064%
   30    8.2  1.5 -0.5   0.000%   0.000%   0.001%   0.000%   0.001%   0.000%   1.677%   1.057%   0.283%   0.061%
   31    1.2  1.5 -1.5   0.000%   0.000%   0.000%   0.000%   0.000%   0.000%  19.384%   2.331%   5.296%   7.135%
   32    2.2  1.5 -1.5   0.000%   0.001%   0.000%   0.002%   0.000%   0.000%  12.684%   1.087%   1.746%   3.649%
   33    3.2  1.5 -1.5   0.000%   0.000%   0.000%   0.000%   0.000%   0.000%  10.416%  10.934%   2.592%   7.935%
   34    4.2  1.5 -1.5   0.000%   0.000%   0.000%   0.000%   0.000%   0.000%   0.531%   2.536%   0.031%   0.617%
   35    5.2  1.5 -1.5   0.000%   0.000%   0.000%   0.000%   0.000%   0.000%   2.446%   0.505%   0.681%   0.434%
   36    6.2  1.5 -1.5   0.000%   0.000%   0.000%   0.000%   0.000%   0.002%   0.080%   0.488%   0.062%   0.073%
   37    7.2  1.5 -1.5   0.000%   0.000%   0.000%   0.001%   0.000%   0.001%   2.576%   0.011%   0.216%   0.440%
   38    8.2  1.5 -1.5   0.000%   0.001%   0.000%   0.000%   0.000%   0.001%   0.394%   0.691%   0.300%   0.461%

   Nr   State  S   Sz      11       12       13       14       15       16       17       18       19       20

    1    1.2  0.5  0.5   0.000%   0.000%   0.000%   0.000%   0.000%   0.000%   0.000%   0.000%   0.000%   0.000%
    2    2.2  0.5  0.5   0.000%   0.000%   0.000%   0.000%   0.000%   0.000%   0.000%   0.000%   0.000%   0.000%
    3    3.2  0.5  0.5   0.000%   0.000%   0.000%   0.000%   0.000%   0.000%   0.000%   0.000%   0.000%   0.000%
    4    1.2  0.5 -0.5   0.000%   0.000%   0.000%   0.000%   0.000%   0.000%   0.000%   0.000%   0.000%   0.000%
    5    2.2  0.5 -0.5   0.000%   0.000%   0.000%   0.000%   0.000%   0.000%   0.000%   0.000%   0.000%   0.000%
    6    3.2  0.5 -0.5   0.000%   0.000%   0.000%   0.000%   0.000%   0.000%   0.000%   0.000%   0.000%   0.000%
    7    1.2  1.5  1.5   1.253%   0.796%   0.794%  10.232%   0.449%   0.939%   0.021%   0.004%   0.085%   0.269%
    8    2.2  1.5  1.5   2.843%   7.235%   9.640%  10.451%  12.188%  10.495%   0.234%   0.107%   0.096%   2.112%
    9    3.2  1.5  1.5  10.180%   2.069%   0.380%   9.589%   0.518%   0.755%   0.059%   0.015%   0.065%   0.310%
   10    4.2  1.5  1.5   2.240%   0.561%   0.167%   5.099%   0.130%   0.824%  11.855%   3.083%   0.618%   0.941%
   11    5.2  1.5  1.5   0.329%   0.324%   0.336%   1.781%   0.594%   1.318%  18.184%   1.443%   0.124%   5.335%
   12    6.2  1.5  1.5   0.509%   0.092%   0.723%   0.375%   0.451%   0.017%   2.095%  30.709%  15.733%   0.503%
   13    7.2  1.5  1.5   0.448%   1.403%   0.181%   0.119%   5.060%   1.766%   1.635%   5.129%   3.854%   1.087%
   14    8.2  1.5  1.5   0.646%   0.172%   1.374%   0.042%   0.908%   0.138%   8.635%  19.553%  10.169%   4.839%
   15    1.2  1.5  0.5   8.148%   1.717%   1.525%   5.520%  27.668%   3.398%   0.056%   0.191%   0.062%   0.310%
   16    2.2  1.5  0.5  16.442%   7.494%   0.250%   2.499%   0.446%   0.308%   0.147%   0.057%   0.008%   0.135%
   17    3.2  1.5  0.5   5.488%   8.898%  18.182%   2.205%   1.546%   4.484%   0.115%   0.047%   0.163%   1.991%
   18    4.2  1.5  0.5   1.346%   0.060%   0.475%   6.124%   0.559%   0.282%   3.432%   1.414%   0.170%   0.240%
   19    5.2  1.5  0.5   1.269%   0.412%   0.426%   0.241%   0.690%   0.683%  10.451%   0.622%   3.643%   9.702%
   20    6.2  1.5  0.5   0.069%   1.366%   0.009%   1.254%   1.521%   5.656%  10.187%   3.294%   0.252%   0.432%
   21    7.2  1.5  0.5   0.055%   0.748%   0.438%   0.445%   1.553%   1.137%   0.789%   1.006%   0.779%   6.994%
   22    8.2  1.5  0.5   1.510%   0.522%   0.158%   0.595%   0.156%   4.162%  13.204%   0.095%   0.575%  12.594%
   23    1.2  1.5 -0.5   9.261%   2.882%   2.936%  12.296%   0.063%  13.435%   0.619%   0.009%   0.420%   1.323%
   24    2.2  1.5 -0.5  22.149%   3.116%   2.104%   0.018%   2.840%   0.126%   0.004%   0.007%   0.021%   0.022%
   25    3.2  1.5 -0.5   1.117%  16.285%  10.733%  11.074%   4.228%   1.910%   0.007%   0.146%   0.056%   0.180%
   26    4.2  1.5 -0.5   1.241%   0.088%   5.491%   0.017%   2.129%   3.024%   0.037%   0.361%   1.240%   0.057%
   27    5.2  1.5 -0.5   0.691%   0.953%   5.062%   1.081%   0.248%   1.892%   1.670%   2.062%   0.697%  25.424%
   28    6.2  1.5 -0.5   0.275%   0.466%   2.466%   0.993%   3.746%   0.768%   2.363%   0.780%   2.095%   0.916%
   29    7.2  1.5 -0.5   0.145%   1.369%   0.325%   0.452%   0.079%   4.279%   1.153%   1.273%   1.009%   3.108%
   30    8.2  1.5 -0.5   0.743%   1.906%   0.397%   5.095%   0.011%   1.233%   5.320%   1.457%   7.259%   7.607%
   31    1.2  1.5 -1.5   0.171%  12.412%   5.788%   0.369%   7.204%   0.357%   0.001%   0.094%   0.022%   0.150%
   32    2.2  1.5 -1.5   2.206%  12.568%  20.638%   0.148%   4.387%  18.577%   0.475%   0.060%   0.418%   0.611%
   33    3.2  1.5 -1.5   5.528%   9.624%   4.597%   0.091%   8.359%   0.202%   0.001%   0.086%   0.030%   0.123%
   34    4.2  1.5 -1.5   1.726%   0.429%   3.013%   1.144%   0.202%   2.372%   0.309%   0.099%   2.239%   0.851%
   35    5.2  1.5 -1.5   0.810%   1.066%   0.865%   3.038%   5.681%   1.686%   2.158%   2.017%   6.382%   2.748%
   36    6.2  1.5 -1.5   0.335%   0.119%   0.067%   2.773%   1.911%   1.801%   1.597%  12.629%  19.842%   1.945%
   37    7.2  1.5 -1.5   0.073%   2.616%   0.336%   0.703%   0.660%   8.226%   0.169%   6.716%   9.951%   2.836%
   38    8.2  1.5 -1.5   0.756%   0.229%   0.126%   4.134%   3.812%   3.748%   3.018%   5.436%  11.924%   4.305%

   Nr   State  S   Sz      21       22       23       24       25       26       27       28       29       30

    1    1.2  0.5  0.5   0.000%   0.000%   0.000%   0.000%   0.000%   0.000%   0.000%   0.000%   0.000%   0.000%
    2    2.2  0.5  0.5   0.000%   0.000%   0.000%   0.000%   0.000%   0.000%   0.000%   0.000%   0.000%   0.000%
    3    3.2  0.5  0.5   0.000%   0.000%   0.000%   0.000%   0.000%   0.000%   0.000%   0.000%   0.000%   0.000%
    4    1.2  0.5 -0.5   0.000%   0.000%   0.000%   0.000%   0.000%   0.000%   0.000%   0.000%   0.000%   0.000%
    5    2.2  0.5 -0.5   0.000%   0.000%   0.000%   0.000%   0.000%   0.000%   0.000%   0.000%   0.000%   0.000%
    6    3.2  0.5 -0.5   0.000%   0.000%   0.000%   0.000%   0.000%   0.000%   0.000%   0.000%   0.000%   0.000%
    7    1.2  1.5  1.5   0.513%   0.641%   2.691%   1.335%  12.426%  11.208%   1.809%   2.261%   1.253%   0.993%
    8    2.2  1.5  1.5   0.887%   0.977%   0.297%   3.883%   0.041%   0.035%   2.527%   2.517%   0.057%   0.443%
    9    3.2  1.5  1.5   0.616%   0.484%   3.936%   1.285%  11.463%  11.493%   0.196%   1.401%   3.218%   1.432%
   10    4.2  1.5  1.5   8.649%   2.452%   1.323%   1.451%   0.166%   0.247%   1.645%   2.228%  17.913%   7.754%
   11    5.2  1.5  1.5   5.511%   0.101%   1.093%   0.484%   0.160%   0.101%  13.174%  10.686%   0.536%   5.017%
   12    6.2  1.5  1.5   0.913%   1.595%   0.538%   0.291%   0.440%   0.713%   0.655%   0.291%   0.656%   0.495%
   13    7.2  1.5  1.5   6.550%   4.212%   5.335%   2.162%   0.127%   0.195%  10.247%  15.781%   0.217%   1.562%
   14    8.2  1.5  1.5   1.019%   0.120%   0.664%   0.233%   0.259%   0.443%   8.266%   2.939%   0.958%   2.418%
   15    1.2  1.5  0.5   0.121%   1.259%   1.543%   0.027%   3.082%   4.856%   2.777%   0.913%   0.387%   0.873%
   16    2.2  1.5  0.5   0.215%   0.001%   1.272%   0.405%  16.270%  14.989%   3.041%   0.961%   2.161%   1.956%
   17    3.2  1.5  0.5   0.946%   0.137%   3.332%   8.554%   3.470%   3.738%   0.518%   2.454%   0.153%   0.150%
   18    4.2  1.5  0.5   4.269%  10.488%  15.598%   5.411%   0.223%   0.420%   3.837%   0.017%   1.684%   1.621%
   19    5.2  1.5  0.5  17.371%   2.390%   0.231%   2.235%   0.293%   0.262%   0.471%   2.122%   1.243%   0.336%
   20    6.2  1.5  0.5   7.049%   0.020%   0.838%   0.918%   0.007%   0.008%   4.982%   3.406%  17.841%   6.103%
   21    7.2  1.5  0.5   7.720%  12.110%   0.606%  14.484%   0.248%   0.440%   4.353%   6.855%   0.268%   0.739%
   22    8.2  1.5  0.5   1.511%   0.378%   2.269%   1.642%   0.185%   0.071%   0.077%   6.969%   3.100%   3.398%
   23    1.2  1.5 -0.5   0.476%   0.071%   3.277%   5.937%   4.008%   4.029%   0.879%   0.023%   0.123%   1.084%
   24    2.2  1.5 -0.5   0.021%   0.006%   0.621%   0.346%  14.948%  16.857%   1.164%   0.429%   0.901%   0.530%
   25    3.2  1.5 -0.5   1.239%   2.320%   8.252%   0.608%   4.663%   3.814%   0.703%   1.123%   1.941%   0.364%
   26    4.2  1.5 -0.5   2.342%   6.528%   2.795%  23.650%   0.385%   0.602%   5.624%   1.005%   2.525%   4.349%
   27    5.2  1.5 -0.5   4.052%   0.831%   3.858%   0.934%   0.493%   0.320%   5.074%   2.659%   4.910%   3.228%
   28    6.2  1.5 -0.5   3.236%   5.350%   5.275%   3.081%   0.042%   0.025%   7.706%  13.776%   7.426%   6.434%
   29    7.2  1.5 -0.5   7.995%  14.072%  12.914%   0.734%   0.700%   0.224%   0.504%   3.070%   1.018%   3.061%
   30    8.2  1.5 -0.5   3.221%   2.460%   2.299%   0.457%   0.232%   0.106%   8.298%   4.060%   4.459%  15.652%
   31    1.2  1.5 -1.5   0.089%   0.212%   1.544%   1.664%  12.786%  11.159%   0.182%   0.442%   1.560%   2.737%
   32    2.2  1.5 -1.5   0.118%   1.536%   1.576%   4.359%   0.001%   0.009%   0.171%   0.532%   0.662%   0.157%
   33    3.2  1.5 -1.5   0.082%   0.287%   1.978%   1.409%  11.583%  12.466%   0.170%   0.778%   2.124%   3.726%
   34    4.2  1.5 -1.5   4.346%  16.402%   1.447%   4.122%   0.047%   0.119%   2.003%   3.273%   8.289%  13.120%
   35    5.2  1.5 -1.5   0.359%   6.203%   2.879%   2.552%   0.237%   0.141%   2.490%   1.213%   3.636%   5.217%
   36    6.2  1.5 -1.5   2.922%   3.257%   5.031%   0.054%   0.615%   0.412%   2.609%   0.864%   1.747%   1.785%
   37    7.2  1.5 -1.5   0.410%   1.341%   1.497%   4.160%   0.104%   0.090%   0.987%   4.883%   6.670%   0.695%
   38    8.2  1.5 -1.5   5.229%   1.757%   3.188%   1.131%   0.296%   0.408%   2.859%   0.067%   0.366%   2.573%

   Nr   State  S   Sz      31       32       33       34       35       36       37       38

    1    1.2  0.5  0.5   0.000%   0.000%   0.002%   0.002%   0.001%   0.001%   0.003%   0.001%
    2    2.2  0.5  0.5   0.000%   0.000%   0.000%   0.003%   0.002%   0.000%   0.003%   0.001%
    3    3.2  0.5  0.5   0.000%   0.000%   0.001%   0.001%   0.004%   0.000%   0.001%   0.004%
    4    1.2  0.5 -0.5   0.000%   0.000%   0.002%   0.001%   0.001%   0.002%   0.001%   0.003%
    5    2.2  0.5 -0.5   0.000%   0.000%   0.004%   0.000%   0.001%   0.001%   0.001%   0.003%
    6    3.2  0.5 -0.5   0.000%   0.000%   0.001%   0.001%   0.000%   0.004%   0.003%   0.001%
    7    1.2  1.5  1.5   0.414%   0.939%   0.125%   1.549%   0.846%   0.062%   0.502%   0.742%
    8    2.2  1.5  1.5   0.121%   0.517%   0.912%   2.102%   4.030%   0.316%   0.001%   0.003%
    9    3.2  1.5  1.5   0.655%   0.969%   0.102%   1.476%   0.925%   0.109%   0.389%   0.849%
   10    4.2  1.5  1.5   3.369%   1.023%   0.764%  11.121%   5.965%   0.559%   1.814%   2.828%
   11    5.2  1.5  1.5   1.162%   3.653%   0.772%  11.100%   6.062%   0.523%   1.982%   2.688%
   12    6.2  1.5  1.5   0.871%   4.097%   8.371%   2.201%   1.587%   4.253%  11.123%   9.078%
   13    7.2  1.5  1.5   0.087%   7.096%   0.091%   6.075%  10.737%   0.416%   2.609%   2.153%
   14    8.2  1.5  1.5   1.604%   0.682%  10.603%   1.036%   0.288%   4.515%   8.538%   6.821%
   15    1.2  1.5  0.5   0.559%   0.402%   0.616%   1.762%   3.071%   0.460%   0.261%   0.235%
   16    2.2  1.5  0.5   0.604%   0.154%   0.036%   0.449%   0.324%   0.014%   0.788%   0.887%
   17    3.2  1.5  0.5   0.006%   3.195%   3.214%   0.355%   0.451%   1.616%   0.262%   0.254%
   18    4.2  1.5  0.5   2.065%   7.045%   2.915%   4.936%   9.510%   0.740%   7.479%   6.185%
   19    5.2  1.5  0.5   1.147%  10.687%   1.682%   4.786%   9.765%   0.659%   8.415%   6.586%
   20    6.2  1.5  0.5  11.045%   0.561%   5.489%   0.312%   0.030%  11.700%   0.003%   0.010%
   21    7.2  1.5  0.5   2.170%   2.961%   2.185%   9.417%   4.519%   1.674%   5.484%   7.793%
   22    8.2  1.5  0.5  14.049%   6.767%   4.137%   1.351%   1.497%  10.431%   1.991%   2.970%
   23    1.2  1.5 -0.5   4.004%   0.445%   0.983%   1.120%   1.007%   2.340%   0.288%   0.187%
   24    2.2  1.5 -0.5   0.930%   4.483%   0.384%   0.106%   0.074%   0.149%   0.974%   0.777%
   25    3.2  1.5 -0.5   1.456%   0.971%   0.842%   2.214%   1.277%   1.111%   0.254%   0.222%
   26    4.2  1.5 -0.5   3.707%   0.001%   5.250%   0.261%   0.019%  12.085%   5.864%   7.654%
   27    5.2  1.5 -0.5   0.072%   0.676%   5.085%   0.320%   0.032%  11.910%   6.106%   8.419%
   28    6.2  1.5 -0.5   5.715%   2.864%   2.202%   4.765%   9.951%   0.740%   0.008%   0.000%
   29    7.2  1.5 -0.5   1.882%   7.477%  12.222%   1.224%   0.340%   4.844%   7.453%   5.358%
   30    8.2  1.5 -0.5   0.890%   0.995%   0.227%   5.704%  11.486%   0.409%   2.936%   2.000%
   31    1.2  1.5 -1.5   1.579%   1.752%   1.243%   0.294%   0.272%   0.684%   0.682%   0.406%
   32    2.2  1.5 -1.5   3.535%   0.747%   2.380%   0.133%   0.012%   4.815%   0.001%   0.001%
   33    3.2  1.5 -1.5   0.547%   0.697%   1.204%   0.281%   0.242%   0.792%   0.708%   0.409%
   34    4.2  1.5 -1.5   0.781%   8.171%   9.108%   1.996%   1.895%   4.763%   2.474%   1.542%
   35    5.2  1.5 -1.5   7.736%  14.266%   9.882%   2.124%   1.815%   4.515%   2.593%   1.623%
   36    6.2  1.5 -1.5   0.551%   0.067%   0.720%   9.531%   5.942%   0.514%   9.049%  10.603%
   37    7.2  1.5 -1.5  16.299%   4.697%   4.476%   1.211%   1.554%  10.510%   2.260%   2.626%
   38    8.2  1.5 -1.5  10.389%   0.942%   1.769%   8.681%   4.471%   1.763%   6.695%   8.079%


 Property matrices transformed in SO basis (not sym. adapted)
 ============================================================

 No matrix element <i|DMX|i> larger than 5E-7
 No matrix element <i|DMX|1> larger than 5E-7

 No matrix element <i|DMY|i> larger than 5E-7
 No matrix element <i|DMY|1> larger than 5E-7

 No matrix element <i|DMZ|i> larger than 5E-7
 No matrix element <i|DMZ|1> larger than 5E-7


 **********************************************************************************************************************************
 DATASETS  * FILE   NREC   LENGTH (MB)   RECORD NAMES
              1      24     1048.93       500      610      700      900      950      970     1000      129      960     1700   
                                          VAR    BASINP    GEOM    SYMINP    ZMAT    AOBASIS   BASIS     P2S    ABASIS    OPER   
                                         1101     1401     1411     1412     1650     1100     1400     1410     1200     1210   
                                          SR      EKINR    POTR     PVPR    MOLCAS      S      EKIN      POT      H0       H01  
                                         1080     1600     1380     1700(1)
                                         AOSYM     SMH     JKOP     OPER   

              2       7     3798.00       700     1000      520     2100     2140     5203     5303   
                                         GEOM     BASIS   MCVARS     RHF     MCSCF    MRCI     MRCI   

 PROGRAMS   *        TOTAL        CI     LSINT        CI        CI     MULTI   RHF-SCF       INT
 CPU TIMES  *    457001.26 239189.64     27.62 174594.00  43176.51      7.69      0.85      4.75
 REAL TIME  *    462830.24 SEC
 DISK USED  *         3.78 GB (local),       14.75 GB (total)
 SF USED    *        29.71 GB
 GA USED    *         0.00 MB       (max)       0.00 MB       (current)
 **********************************************************************************************************************************

 CI/aug-cc-pWCVQZ-X2C energy=  -2605.202006993698

              CI              CI           MULTI         RHF-SCF
  -2605.15410287  -2605.49237667  -2604.19819770  -2604.60765237
 **********************************************************************************************************************************
 Molpro calculation terminated with 1 warning(s)
