
 Working directory              : /wrk/irikura/molpro.YPGdY8GVpH/
 Global scratch directory       : /wrk/irikura/molpro.YPGdY8GVpH/
 Wavefunction directory         : /home/irikura/wfu/
 Main file repository           : /wrk/irikura/molpro.YPGdY8GVpH/

 id        : nistki

 Nodes     nprocs
 comp-18      3
 Distribution of processes:   nprocs(total)=    4   nprocs(compute)=    3   nprocs(helper)=    1
 GA implementation: MPI file
 GA implementation (serial work in mppx): MPI file

 Using customized tuning parameters: mindgm=1; mindgv=20; mindgc=4; mindgr=1; noblas=0; minvec=7
 default implementation of scratch files=sf  


 Variables initialized (1042), CPU time= 0.00 sec
 ***,Br SO-CI
                                                                                 ! active space (7/4)
 memory,3000,M;
 
 gprint,orbitals,civector;
                                                                                 !gthresh,energy=1.d-10,coeff=1.d-8;
 
 symmetry,xyz
 geometry={Br};
 
 file,2,acqzpp.wfu,new                                                           !this causes failure in version 2024.1.1
 
 basis=aug-cc-pwCVQZ-PP
 
 {rhf;wf,charge=-1}
 
 NDOUB=3
 NQUAR=8
 
 {multi
     occ,8,9
     closed,6,3
     wf,charge=0,sym=2,spin=1;state,NDOUB;
     weight,all,99
     wf,charge=0,sym=2,spin=3;state,NQUAR;
     weight,all,1
     expec2,lxx,lyy,lzz;
 }
 table, energy, ll
 title, Energies and &lt;L**2&gt; values
 
 core,0,0
 
 {ci;wf,sym=2,spin=1;state,NDOUB; save,5203.2}
 hlsdiag = energd4
 {ci;wf,sym=2,spin=3;state,NQUAR; save,5303.2}
 hlsdiag(NDOUB+1) = energd4
 
 table,hlsdiag
 
 {ci;hlsmat,ecp,5203.2,5303.2;print,vls=0,hls=0}                                 !compute and diagonalize SO matrix
 Commands initialized (847), CPU time= 0.01 sec, 718 directives.
 Default parameters read. Elapsed time= 0.13 sec

 Checking input...
 Passed
1


                                         ***  PROGRAM SYSTEM MOLPRO  ***
                                       Copyright, TTI GmbH Stuttgart, 2015
                                    Version 2024.1 linked Wed Jan 31 08:33:13 2024


 **********************************************************************************************************************************
 LABEL *   Br SO-CI                                                                                                                                                      
  (16 PROC) 64 bit mpp version                                                           DATE: 01-Jul-24          TIME: 10:04:27  
 **********************************************************************************************************************************

 SHA1:             675817fde4514a4a933b69e420913a90cee4ef91
 **********************************************************************************************************************************

 Memory per process:      3000 MW
 Total memory per node:   9000 MW

 GA preallocation disabled
 GA check disabled

 Variable memory set to 3000.0 MW


 ZSYMEL=XYZ



 Permanent file  2  acqzpp.wfu       assigned.  Implementation=df  



 **********************************************************************************************************************************
 DATASETS  * FILE   NREC   LENGTH (MB)   RECORD NAMES
              2       2       11.50       500      700   
                                          VAR     GEOM   

 PROGRAMS   *        TOTAL      FILE
 CPU TIMES  *         3.46      3.32
 REAL TIME  *        67.20 SEC
 DISK USED  *        23.00 MB (local),       69.01 MB (total)
 **********************************************************************************************************************************
 SETTING BASIS          =    AUG-CC-PWCVQZ-PP


 Recomputing integrals since basis changed


 Using spherical harmonics

 Library entry Br   ECP ECP10MDF                 selected for group  1
 Library entry BR     S aug-cc-pwCVQZ-PP     selected for orbital group  1
 Library entry BR     P aug-cc-pwCVQZ-PP     selected for orbital group  1
 Library entry BR     D aug-cc-pwCVQZ-PP     selected for orbital group  1
 Library entry BR     F aug-cc-pwCVQZ-PP     selected for orbital group  1
 Library entry BR     G aug-cc-pwCVQZ-PP     selected for orbital group  1
 Library entry BR     H aug-cc-pwCVQZ-PP     selected for orbital group  1


 PROGRAM * SEWARD (Integral evaluation for generally contracted gaussian basis sets)     Author: Roland Lindh, 1990

 Geometry written to block  1 of record 700

 Orientation using atomic masses  
 Molecule type: Atom
 User-specified symmetry elements: XYZ
 Symmetry elements: XYZ
 Rotational constants:       0.0000000      0.0000000      0.0000000 GHz  (calculated with average atomic masses)

 Point group  Ci  



 ATOMIC COORDINATES

 NR  ATOM    CHARGE       X              Y              Z

   1  BR     25.00    0.000000000    0.000000000    0.000000000

 NUCLEAR CHARGE:                   25
 NUMBER OF PRIMITIVE AOS:         300
 NUMBER OF SYMMETRY AOS:          232
 NUMBER OF CONTRACTIONS:          166   (   86Ag  +   80Au  )
 NUMBER OF INNER CORE ORBITALS:     0   (    0Ag  +    0Au  )
 NUMBER OF OUTER CORE ORBITALS:     9   (    6Ag  +    3Au  )
 NUMBER OF VALENCE ORBITALS:        4   (    1Ag  +    3Au  )


 LX: Ag           LY: Ag           LZ: Ag 


 NUCLEAR REPULSION ENERGY    0.00000000

 EXTRA SYMMETRY OF AOS IN SYMMETRY 1:   1 1 1 1 1 1 1 1 1 1   2 3 4 5 6 2 3 4 5 6   2 3 4 5 6 2 3 4 5 6   2 3 4 5 6 2 3 4 5 6
                                        2 3 4 5 6 2 3 4 5 6   7 8 9101112131415 7   8 9101112131415 7 8   9101112131415 7 8 9
                                       101112131415
 EXTRA SYMMETRY OF AOS IN SYMMETRY 2:   1 2 3 1 2 3 1 2 3 1   2 3 1 2 3 1 2 3 1 2   3 1 2 3 1 2 3 4 5 6   7 8 910 4 5 6 7 8 9
                                       10 4 5 6 7 8 910 4 5   6 7 8 910 4 5 6 7 8   910 4 5 6 7 8 91011  12131415161718192021


 Eigenvalues of metric

         1 0.122E-03 0.994E-03 0.288E-02 0.937E-02 0.937E-02 0.937E-02 0.937E-02 0.937E-02
         2 0.311E-03 0.311E-03 0.311E-03 0.170E-02 0.170E-02 0.170E-02 0.245E-01 0.245E-01


 Contracted 2-electron integrals neglected if value below      1.0D-11
 AO integral compression algorithm  1   Integral accuracy      1.0D-11

     91.488 MB (compressed) written to integral file ( 13.1%)

     Node minimum: 22.020 MB, node maximum: 36.962 MB


 NUMBER OF SORTED TWO-ELECTRON INTEGRALS:   16206444.     BUFFER LENGTH:  32768
 NUMBER OF SEGMENTS:   2  SEGMENT LENGTH:   15993207      RECORD LENGTH: 524288

 Memory used in sort:      16.55 MW

 SORT1 READ    86907878. AND WROTE     2878519. INTEGRALS IN     10 RECORDS. CPU TIME:     0.28 SEC, REAL TIME:     0.32 SEC
 SORT2 READ     8938358. AND WROTE    48612351. INTEGRALS IN    372 RECORDS. CPU TIME:     0.22 SEC, REAL TIME:     0.25 SEC

 Node minimum:    16201790.  Node maximum:    16206444. integrals

 OPERATOR DM      FOR CENTER  0  COORDINATES:    0.000000    0.000000    0.000000


 **********************************************************************************************************************************
 DATASETS  * FILE   NREC   LENGTH (MB)   RECORD NAMES
              1      19       29.35       500      700      610      900      950      970     1000      129      960     1100   
                                          VAR     GEOM    BASINP   SYMINP    ZMAT    AOBASIS   BASIS     P2S    ABASIS      S 
                                         1400     1410     1420     1200     1210     1080     1700     1600     1650   
                                           T        V       ECP      H0       H01     AOSYM    OPER      SMH    MOLCAS    

              2       5       11.76       500      700      610     1000      520   
                                          VAR     GEOM    BASINP    BASIS   MCVARS    

 PROGRAMS   *        TOTAL       INT      FILE
 CPU TIMES  *         6.51      3.05      3.32
 REAL TIME  *        71.58 SEC
 DISK USED  *        41.21 MB (local),      309.19 MB (total)
 GA USED    *         0.00 MB       (max)       0.00 MB       (current)
 **********************************************************************************************************************************


 Program * Restricted Hartree-Fock

 Orbital guess generated from atomic densities.

 Initial occupancy:   7   6

 NELEC=   26   SYM=1   MS2= 0   THRE=1.0D-08   THRD=3.2D-06   THRG=3.2D-06  HFMA2=F  DIIS_START=2   DIIS_MAX=10   DIIS_INCORE=F

 Level shifts:    0.00 (CLOSED)    0.00 (OPEN)    0.30 (GAP_MIN)

 ITER           ETOT              DE          GRAD        DDIFF     DIIS  NEXP   TIME(IT)  TIME(TOT)  DIAG
   1     -415.54368857    -415.54368857     0.00D+00     0.85D-01     0     0       0.06      0.14    start
   2     -415.57538565      -0.03169707     0.45D-02     0.92D-02     1     0       0.07      0.21    diag
   3     -415.57883902      -0.00345337     0.31D-02     0.31D-02     2     0       0.07      0.28    diag
   4     -415.57899277      -0.00015375     0.56D-03     0.61D-03     3     0       0.07      0.35    diag
   5     -415.57902017      -0.00002740     0.10D-03     0.21D-03     4     0       0.07      0.42    diag
   6     -415.57902149      -0.00000132     0.24D-04     0.57D-04     5     0       0.07      0.49    diag
   7     -415.57902153      -0.00000004     0.25D-05     0.13D-04     6     0       0.07      0.56    diag
   8     -415.57902153      -0.00000000     0.25D-06     0.14D-05     7     0       0.06      0.62    fixocc
   9     -415.57902153      -0.00000000     0.39D-07     0.92D-07     0     0       0.07      0.69    diag

 Final occupancy:   7   6

 !RHF STATE 1.1 Energy               -415.579021529885
  RHF One-electron energy            -738.023532650494
  RHF Two-electron energy             322.444511120609
  RHF Kinetic energy                  295.793856773771
  RHF Nuclear energy                    0.000000000000
  RHF Virial quotient                  -1.404961638023

 !RHF STATE 1.1 Dipole moment           0.00000000     0.00000000     0.00000000
 Dipole moment /Debye                   0.00000000     0.00000000     0.00000000

 ELECTRON ORBITALS
 =================

  Orbital  Occupation    Energy    Cen Mu Typ  Coefficients
    1.1     2.00000    -9.52317     1  1  s    1.00004
    2.1     2.00000    -2.82156     1  1  d0   0.99993
    3.1     2.00000    -2.82156     1  1  d2-  0.90971    1  1  d2+ -0.41502
    4.1     2.00000    -2.82156     1  1  d2-  0.41505    1  1  d2+  0.90972
    5.1     2.00000    -2.82156     1  1  d1+  0.95786    1  1  d1-  0.28689
    6.1     2.00000    -2.82156     1  1  d1+ -0.28689    1  1  d1-  0.95789
    7.1     2.00000    -0.71238     1  1  s   -0.37137    1  4  s    0.47939    1  5  s    0.56885
    1.2     2.00000    -7.27048     1  1  px   0.99974
    2.2     2.00000    -7.27048     1  1  py   0.99974
    3.2     2.00000    -7.27048     1  1  pz   0.99974
    4.2     2.00000    -0.13748     1  2  pz   0.91704
    5.2     2.00000    -0.13748     1  2  px   0.91704
    6.2     2.00000    -0.13748     1  2  py   0.91704


 HOMO      6.2    -0.137484 =      -3.7411eV
 LUMO      7.2     0.210580 =       5.7302eV
 LUMO-HOMO         0.348064 =       9.4713eV

 Orbitals saved in record  2100.2


 **********************************************************************************************************************************
 DATASETS  * FILE   NREC   LENGTH (MB)   RECORD NAMES
              1      19       29.35       500      700      610      900      950      970     1000      129      960     1100   
                                          VAR     GEOM    BASINP   SYMINP    ZMAT    AOBASIS   BASIS     P2S    ABASIS      S 
                                         1400     1410     1420     1200     1210     1080     1700     1600     1650   
                                           T        V       ECP      H0       H01     AOSYM    OPER      SMH    MOLCAS    

              2       6       12.11       500      700      610     1000      520     2100   
                                          VAR     GEOM    BASINP    BASIS   MCVARS     RHF  

 PROGRAMS   *        TOTAL   RHF-SCF       INT      FILE
 CPU TIMES  *         7.21      0.70      3.05      3.32
 REAL TIME  *        72.39 SEC
 DISK USED  *        42.40 MB (local),      312.78 MB (total)
 GA USED    *         0.00 MB       (max)       0.00 MB       (current)
 **********************************************************************************************************************************
 SETTING NDOUB          =         3.00000000                                  
 SETTING NQUAR          =         8.00000000                                  

 PROGRAM * MULTI (Direct Multiconfiguration SCF)       Authors: P.J. Knowles, H.-J. Werner (1984)
                                                                D.A. Kreplin, P.J. Knowles, H.-J. Werner (2019)

 Number of closed-shell orbitals:   9 (    6    3)
 Number of active  orbitals:        8 (    2    6)
 Number of external orbitals:     149 (   78   71)

 State symmetry 1

 Number of active electrons:   7    Spin symmetry=Doublet   Space symmetry=2
 Number of states:             3
 Number of CSFs:            1204   (1980 determinants, 3920 intermediate states)

 State symmetry 2

 Number of active electrons:   7    Spin symmetry=Quartet   Space symmetry=2
 Number of states:             8
 Number of CSFs:             656   (776 determinants, 1568 intermediate states)

 Molecular orbitals read from record     2100.2  Type=RHF/CANONICAL  
 *** IN SYMMETRY 1 ORBITAL  2 SYMMETRY CONTAMINATION OF 0.272D-04 HAS BEEN REMOVED
 *** IN SYMMETRY 1 ORBITAL  3 SYMMETRY CONTAMINATION OF 0.318D+00 HAS BEEN REMOVED
 *** IN SYMMETRY 1 ORBITAL  4 SYMMETRY CONTAMINATION OF 0.315D+00 HAS BEEN REMOVED
 *** IN SYMMETRY 1 ORBITAL  5 SYMMETRY CONTAMINATION OF 0.237D+00 HAS BEEN REMOVED
 *** IN SYMMETRY 1 ORBITAL  6 SYMMETRY CONTAMINATION OF 0.231D+00 HAS BEEN REMOVED

 EXTRA SYMMETRY OF MOS IN SYMMETRY 1:   1 2 3 5 4 6 1 1 5 3   2 4 6 1 6 4 2 3 5 6   4 3 5 2151412 8 713  10 911 1 6 4 5 3 214
                                       15 712 8 9111310 1 3   5 6 4 2 91112 81415   71310 1 6 4 3 5 2 1   7151412 811 91310 3
                                        5 4 6 2 1 1
 *** IN SYMMETRY 2 ORBITAL  2 SYMMETRY CONTAMINATION OF 0.438D-03 HAS BEEN REMOVED
 *** IN SYMMETRY 2 ORBITAL  3 SYMMETRY CONTAMINATION OF 0.438D-03 HAS BEEN REMOVED
 *** IN SYMMETRY 2 ORBITAL  4 SYMMETRY CONTAMINATION OF 0.834D-04 HAS BEEN REMOVED
 *** IN SYMMETRY 2 ORBITAL  6 SYMMETRY CONTAMINATION OF 0.834D-04 HAS BEEN REMOVED
 EXTRA SYMMETRY OF MOS IN SYMMETRY 2:   1 2 3 3 1 2 3 1 2 3   1 210 8 4 5 6 7 9 3   1 2 5 4 810 6 7 9 4   5 610 8 7 9 3 1 2 5
                                        4 6 9 7 810 3 1 213  21151719141620181112  10 8 5 4 6 9 7 3 1 2   4 5 810 6 9 7 3 1 2

 Wavefunction dump at record             2140.2

 Convergence thresholds  0.10E-04 (gradient)  0.10E-05 (energy)

 Weight factors for state symmetry  1:    0.32459   0.32459   0.32459
 Weight factors for state symmetry  2:    0.00328   0.00328   0.00328   0.00328   0.00328   0.00328   0.00328   0.00328
 
 Number of orbital rotations:  1293  ( 30 closed/active, 681 closed/virtual, 0 active/active, 582 active/virtual )
 Total number of variables:    13441
 
 Second-order MCSCF: L-BFGS accelerated
 
 ITER  MIC  NCI  NEG     ENERGY(VAR)    ENERGY(PROJ) ENERGY CHANGE       GRAD(0)  GRAD(ORB)   GRAD(CI)      STEP      TIME
   1   18   78    0   -415.44528745    -415.50276304   -0.05747560    0.25866173 0.00210838 0.00492679  0.18E+01      1.76
   2    9   43    0   -415.49475661    -415.49732987   -0.00257326    0.19020452 0.00049447 0.00057630  0.29E+00      3.08
   3    8   37    0   -415.49733210    -415.49733213   -0.00000003    0.00064318 0.00000079 0.00000044  0.56E-03      4.33
   4    6   26    0   -415.49733213    -415.49733213   -0.00000000    0.00000017 0.00000001 0.00000005  0.86E-05      5.35
   5    2    5    0   -415.49733213    -415.49733213    0.00000000    0.00000002 0.00000000 0.00000000  0.39E-08      6.02

 CONVERGENCE REACHED!  Final gradient:    0.00000000 ( 0.30E-08)
                       Final energy:   -415.49733213
 
 Results for state 1.2 Doublet
 =============================
 !MCSCF STATE 1.2 Doublet Energy              -415.512605242869
 Nuclear energy                                  0.00000000
 Kinetic energy                                295.64584962
 One electron energy                          -729.38249558
 Two electron energy                           313.86989034
 Virial ratio                                    2.40544035
 
 !MCSCF STATE 1.2 Doublet Dipole moment          0.00000000     0.00000000     0.00000000
 Dipole moment /Debye                            0.00000000     0.00000000     0.00000000
 
 Results for state 2.2 Doublet
 =============================
 !MCSCF STATE 2.2 Doublet Energy              -415.512605242869
 Nuclear energy                                  0.00000000
 Kinetic energy                                295.64584962
 One electron energy                          -729.38249558
 Two electron energy                           313.86989034
 Virial ratio                                    2.40544035
 
 !MCSCF STATE 2.2 Doublet Dipole moment          0.00000000     0.00000000     0.00000000
 Dipole moment /Debye                            0.00000000     0.00000000     0.00000000
 
 Results for state 3.2 Doublet
 =============================
 !MCSCF STATE 3.2 Doublet Energy              -415.512605242809
 Nuclear energy                                  0.00000000
 Kinetic energy                                295.64584962
 One electron energy                          -729.38249558
 Two electron energy                           313.86989033
 Virial ratio                                    2.40544035
 
 !MCSCF STATE 3.2 Doublet Dipole moment          0.00000000     0.00000000     0.00000000
 Dipole moment /Debye                            0.00000000     0.00000000     0.00000000
 
 Results for state 1.2 Quartet
 =============================
 !MCSCF STATE 1.2 Quartet Energy              -414.958031530484
 Nuclear energy                                  0.00000000
 Kinetic energy                                296.39146535
 One electron energy                          -727.35709613
 Two electron energy                           312.39906460
 Virial ratio                                    2.40003367
 
 !MCSCF STATE 1.2 Quartet Dipole moment          0.00000000     0.00000000     0.00000000
 Dipole moment /Debye                            0.00000000     0.00000000     0.00000000
 
 Results for state 2.2 Quartet
 =============================
 !MCSCF STATE 2.2 Quartet Energy              -414.958031527108
 Nuclear energy                                  0.00000000
 Kinetic energy                                296.39146536
 One electron energy                          -727.35709616
 Two electron energy                           312.39906463
 Virial ratio                                    2.40003367
 
 !MCSCF STATE 2.2 Quartet Dipole moment          0.00000000     0.00000000     0.00000000
 Dipole moment /Debye                            0.00000000     0.00000000     0.00000000
 
 Results for state 3.2 Quartet
 =============================
 !MCSCF STATE 3.2 Quartet Energy              -414.958031527108
 Nuclear energy                                  0.00000000
 Kinetic energy                                296.39146536
 One electron energy                          -727.35709616
 Two electron energy                           312.39906463
 Virial ratio                                    2.40003367
 
 !MCSCF STATE 3.2 Quartet Dipole moment          0.00000000     0.00000000     0.00000000
 Dipole moment /Debye                            0.00000000     0.00000000     0.00000000
 
 Results for state 4.2 Quartet
 =============================
 !MCSCF STATE 4.2 Quartet Energy              -414.913689695908
 Nuclear energy                                  0.00000000
 Kinetic energy                                296.42539463
 One electron energy                          -727.49270922
 Two electron energy                           312.57901952
 Virial ratio                                    2.39972383
 
 !MCSCF STATE 4.2 Quartet Dipole moment          0.00000000     0.00000000     0.00000000
 Dipole moment /Debye                            0.00000000     0.00000000     0.00000000
 
 Results for state 5.2 Quartet
 =============================
 !MCSCF STATE 5.2 Quartet Energy              -414.913689695818
 Nuclear energy                                  0.00000000
 Kinetic energy                                296.42539463
 One electron energy                          -727.49270922
 Two electron energy                           312.57901952
 Virial ratio                                    2.39972383
 
 !MCSCF STATE 5.2 Quartet Dipole moment          0.00000000     0.00000000     0.00000000
 Dipole moment /Debye                            0.00000000     0.00000000     0.00000000
 
 Results for state 6.2 Quartet
 =============================
 !MCSCF STATE 6.2 Quartet Energy              -414.913689692187
 Nuclear energy                                  0.00000000
 Kinetic energy                                296.42539465
 One electron energy                          -727.49270925
 Two electron energy                           312.57901955
 Virial ratio                                    2.39972383
 
 !MCSCF STATE 6.2 Quartet Dipole moment          0.00000000     0.00000000     0.00000000
 Dipole moment /Debye                            0.00000000     0.00000000     0.00000000
 
 Results for state 7.2 Quartet
 =============================
 !MCSCF STATE 7.2 Quartet Energy              -414.913689692187
 Nuclear energy                                  0.00000000
 Kinetic energy                                296.42539465
 One electron energy                          -727.49270925
 Two electron energy                           312.57901955
 Virial ratio                                    2.39972383
 
 !MCSCF STATE 7.2 Quartet Dipole moment          0.00000000     0.00000000     0.00000000
 Dipole moment /Debye                            0.00000000     0.00000000     0.00000000
 
 Results for state 8.2 Quartet
 =============================
 !MCSCF STATE 8.2 Quartet Energy              -414.913689690857
 Nuclear energy                                  0.00000000
 Kinetic energy                                296.42539465
 One electron energy                          -727.49270925
 Two electron energy                           312.57901956
 Virial ratio                                    2.39972383
 
 !MCSCF STATE 8.2 Quartet Dipole moment          0.00000000     0.00000000     0.00000000
 Dipole moment /Debye                            0.00000000     0.00000000     0.00000000
 
 State-averaged charge density matrix saved on record 2140.2 (density set 1)
 
 No non-zero expectation values
 
 Expectation values for two-electron operators:
 
 ? Warning
 ? Transition properties are only calculated between states of the same symmetry
 ? The problem occurs in mu_properties_expec2

 !MCSCF expec      <1.2 Doublet|LXLX|1.2 Doublet>     0.978104527262
 !MCSCF expec      <2.2 Doublet|LXLX|2.2 Doublet>     0.021895472938
 !MCSCF expec      <3.2 Doublet|LXLX|3.2 Doublet>     0.999999999799
 !MCSCF expec      <1.2 Quartet|LXLX|1.2 Quartet>     0.999999999999
 !MCSCF expec      <2.2 Quartet|LXLX|2.2 Quartet>     0.697411312388
 !MCSCF expec      <3.2 Quartet|LXLX|3.2 Quartet>     0.302588687613
 !MCSCF expec      <4.2 Quartet|LXLX|4.2 Quartet>     1.000000000096
 !MCSCF expec      <5.2 Quartet|LXLX|5.2 Quartet>     1.000001389939
 !MCSCF expec      <6.2 Quartet|LXLX|6.2 Quartet>     1.385904265560
 !MCSCF expec      <7.2 Quartet|LXLX|7.2 Quartet>     3.614095734422
 !MCSCF expec      <8.2 Quartet|LXLX|8.2 Quartet>     2.999998609982
 
 !MCSCF expec      <1.2 Doublet|LYLY|1.2 Doublet>     0.021895472802
 !MCSCF expec      <2.2 Doublet|LYLY|2.2 Doublet>     0.978104527303
 !MCSCF expec      <3.2 Doublet|LYLY|3.2 Doublet>     0.999999999894
 !MCSCF expec      <1.2 Quartet|LYLY|1.2 Quartet>     0.999999999999
 !MCSCF expec      <2.2 Quartet|LYLY|2.2 Quartet>     0.302588687612
 !MCSCF expec      <3.2 Quartet|LYLY|3.2 Quartet>     0.697411312389
 !MCSCF expec      <4.2 Quartet|LYLY|4.2 Quartet>     0.999999999916
 !MCSCF expec      <5.2 Quartet|LYLY|5.2 Quartet>     0.999998610072
 !MCSCF expec      <6.2 Quartet|LYLY|6.2 Quartet>     3.614095734440
 !MCSCF expec      <7.2 Quartet|LYLY|7.2 Quartet>     1.385904265559
 !MCSCF expec      <8.2 Quartet|LYLY|8.2 Quartet>     3.000001390013
 
 !MCSCF expec      <1.2 Doublet|LZLZ|1.2 Doublet>     0.999999999935
 !MCSCF expec      <2.2 Doublet|LZLZ|2.2 Doublet>     0.999999999759
 !MCSCF expec      <3.2 Doublet|LZLZ|3.2 Doublet>     0.000000000306
 !MCSCF expec      <1.2 Quartet|LZLZ|1.2 Quartet>     0.000000000002
 !MCSCF expec      <2.2 Quartet|LZLZ|2.2 Quartet>     1.000000000000
 !MCSCF expec      <3.2 Quartet|LZLZ|3.2 Quartet>     0.999999999998
 !MCSCF expec      <4.2 Quartet|LZLZ|4.2 Quartet>     3.999999999987
 !MCSCF expec      <5.2 Quartet|LZLZ|5.2 Quartet>     3.999999999988
 !MCSCF expec      <6.2 Quartet|LZLZ|6.2 Quartet>     1.000000000000
 !MCSCF expec      <7.2 Quartet|LZLZ|7.2 Quartet>     1.000000000019
 !MCSCF expec      <8.2 Quartet|LZLZ|8.2 Quartet>     0.000000000005
 
 !MCSCF expec      <1.2 Doublet|L**2|1.2 Doublet>     2.000000000000
 !MCSCF expec      <2.2 Doublet|L**2|2.2 Doublet>     2.000000000000
 !MCSCF expec      <3.2 Doublet|L**2|3.2 Doublet>     2.000000000000
 !MCSCF expec      <1.2 Quartet|L**2|1.2 Quartet>     2.000000000000
 !MCSCF expec      <2.2 Quartet|L**2|2.2 Quartet>     2.000000000000
 !MCSCF expec      <3.2 Quartet|L**2|3.2 Quartet>     2.000000000000
 !MCSCF expec      <4.2 Quartet|L**2|4.2 Quartet>     6.000000000000
 !MCSCF expec      <5.2 Quartet|L**2|5.2 Quartet>     6.000000000000
 !MCSCF expec      <6.2 Quartet|L**2|6.2 Quartet>     6.000000000000
 !MCSCF expec      <7.2 Quartet|L**2|7.2 Quartet>     6.000000000000
 !MCSCF expec      <8.2 Quartet|L**2|8.2 Quartet>     6.000000000000
 
 EXTRA SYMMETRY OF MOS IN SYMMETRY 1:   1 2 6 4 3 5 1 1 1 2   3 5 6 4 2 6 4 3 5 1   4 6 3 5 21415 812 7  1310 911 4 6 3 5 214
                                       15 7 812 9111310 1 3   5 4 6 211 9 8121415   71310 1 6 4 5 3 2 1   71415 81211 91310 3
                                        5 4 6 2 1 1
 EXTRA SYMMETRY OF MOS IN SYMMETRY 2:   1 2 3 2 1 3 1 2 3 3   2 1 810 5 4 6 7 9 3   2 1 5 4 810 6 7 9 3   2 1 4 5 6 810 7 9 4
                                        5 6 9 710 8 3 2 121  13191517141620181112   5 4 810 6 7 9 3 2 1   5 4 810 6 9 7 3 1 2
 
  NATURAL ORBITALS (STATE AVERAGED)
  =================================

  Orbital  Occupation    Energy    Cen Mu Typ  Coefficients
    1.1     2.00000    -9.87307     1  1  s    0.99316
    2.1     2.00000    -3.17364     1  1  d0   1.00000
    3.1     2.00000    -3.17364     1  1  d1-  1.00000
    4.1     2.00000    -3.17364     1  1  d1+  1.00000
    5.1     2.00000    -3.17364     1  1  d2-  1.00000
    6.1     2.00000    -3.17364     1  1  d2+  1.00000
    7.1     1.99309    -1.03149     1  1  s   -0.39978    1  4  s    0.51072    1  5  s    0.59542
    8.1     0.00597     0.66239     1  1  s    0.44178    1  4  s   -2.28938    1  5  s    0.87843    1  6  s    0.87456
                                    1  9  s    0.42547
    1.2     2.00000    -7.62231     1  1  px   1.00019
    2.2     2.00000    -7.62231     1  1  py   1.00019
    3.2     2.00000    -7.62231     1  1  pz   1.00019
    4.2     1.65054    -0.39273     1  2  py   1.02557
    5.2     1.65054    -0.39273     1  2  px   1.02557
    6.2     1.65054    -0.39273     1  2  pz   1.02557
    7.2     0.01644     0.49725     1  1  px  -0.32937    1  2  px  -2.27981    1  4  px   1.41377    1  5  px   1.04452
    8.2     0.01644     0.49725     1  1  py  -0.32937    1  2  py  -2.27981    1  4  py   1.41377    1  5  py   1.04452
    9.2     0.01644     0.49725     1  1  pz  -0.32937    1  2  pz  -2.27981    1  4  pz   1.41377    1  5  pz   1.04452
 
 Natural orbital dump (state averaged) at molpro section 2140.2 (Orbital set 2)
 
 Transform the CI vectors
 
 CI Coefficients of symmetry 2 (Doublet)
 =======================================
 
 20 22a000     -0.00000800     -0.00001542      0.99233557
 20 a22000      0.98141162      0.14683707      0.00001020
 20 2a2000     -0.14683707      0.98141162      0.00001406
 
 Energy:     -415.51260524   -415.51260524   -415.51260524
 
 
 CI Coefficients of symmetry 2 (Quartet)
 =======================================

 State:              1               2               3               4               5               6               7
 20 aa200a      0.00000000      0.00000000     -0.00000000     -0.00000025     -0.00000033      0.00000148      0.00000054
 20 2aa0a0      0.00000000     -0.00000000      0.00000000      0.00005447      0.70271426     -0.00000106      0.00000104
 20 a2a0a0      0.69676295      0.00000008     -0.00000094     -0.70271410      0.00005434     -0.00000072     -0.00000122
 20 2aaa00      0.69676295      0.00000008     -0.00000094      0.70271410     -0.00005434      0.00000072      0.00000122
 20 a2aa00      0.00000000      0.00000000     -0.00000000      0.00005422      0.70271394      0.00000042      0.00000158
 20 a2a00a     -0.00000059      0.58187475     -0.38327576      0.00000023     -0.00000076     -0.65596221      0.25203327
 20 2aa00a     -0.00000074     -0.38327576     -0.58187475     -0.00000140     -0.00000111      0.25203327      0.65596221
 20 aa2a00     -0.00000059      0.58187484     -0.38327583     -0.00000023      0.00000076      0.65596211     -0.25203322
 20 aa20a0      0.00000074      0.38327583      0.58187484     -0.00000140     -0.00000111      0.25203322      0.65596211
 aa 22a000     -0.12849858     -0.00000002      0.00000017      0.00000000      0.00000000      0.00000000      0.00000000
 aa a22000     -0.00000011      0.10731065     -0.07068458     -0.00000000     -0.00000000     -0.00000001      0.00000000
 aa 2a2000     -0.00000014     -0.07068458     -0.10731065     -0.00000000     -0.00000000      0.00000000      0.00000001
 
 Energy:     -414.95803153   -414.95803153   -414.95803153   -414.91368970   -414.91368970   -414.91368969   -414.91368969

 State:              8
 20 aa200a      0.81142430
 20 2aa0a0     -0.40571194
 20 a2a0a0     -0.00000022
 20 2aaa00      0.00000022
 20 a2aa00      0.40571251
 20 a2a00a      0.00000103
 20 2aa00a     -0.00000090
 20 aa2a00     -0.00000103
 20 aa20a0     -0.00000090
 aa 22a000      0.00000000
 aa a22000      0.00000000
 aa 2a2000     -0.00000000
 
 Energy:     -414.91368969
 


 **********************************************************************************************************************************
 DATASETS  * FILE   NREC   LENGTH (MB)   RECORD NAMES
              1      21       54.22       500      700      610      900      950      970     1000      129      960     1100   
                                          VAR     GEOM    BASINP   SYMINP    ZMAT    AOBASIS   BASIS     P2S    ABASIS      S 
                                         1400     1410     1420     1200     1210     1080     1700     1600     1650     1380   
                                           T        V       ECP      H0       H01     AOSYM    OPER      SMH    MOLCAS    JKOP   
                                         1700(1)
                                         OPER   

              2       7       12.74       500      700      610     1000      520     2100     2140   
                                          VAR     GEOM    BASINP    BASIS   MCVARS     RHF     MCSCF   

 PROGRAMS   *        TOTAL     MULTI   RHF-SCF       INT      FILE
 CPU TIMES  *        12.37      5.16      0.70      3.05      3.32
 REAL TIME  *        79.16 SEC
 DISK USED  *        67.06 MB (local),      386.74 MB (total)
 SF USED    *        66.85 MB
 GA USED    *         0.00 MB       (max)       0.00 MB       (current)
 **********************************************************************************************************************************

 Energies and &lt;L**2&gt; values

         ENERGY     LL
    -415.5126052   2.0
    -415.5126052   2.0
    -415.5126052   2.0
    -414.9580315   2.0
    -414.9580315   2.0
    -414.9580315   2.0
    -414.9136897   6.0
    -414.9136897   6.0
    -414.9136897   6.0
    -414.9136897   6.0
    -414.9136897   6.0
                                                  


 PROGRAM * CI (Multireference internally contracted CI)     Authors: H.-J. Werner, P.J. Knowles, 1987


 Convergence thresholds:  THRVAR = 1.00D-08  THRDEN = 1.00D-06

 Number of optimized states: 3  Roots:    1   2   3
 Number of reference states: 3  Roots:    1   2   3

 Reference symmetry:                   2   Doublet 
 Number of electrons:                 25
 Maximum number of shells:             7
 Maximum number of spin couplings:   429

 Reference space:      554 conf     1204 CSFs
 N elec internal:    56699 conf   278292 CSFs
 N-1 el internal:    59743 conf   501108 CSFs
 N-2 el internal:    32490 conf   411156 CSFs

 Number of electrons in valence space:                     25
 Maximum number of open shell orbitals in reference space:  7
 Maximum number of open shell orbitals in internal spaces: 13


 Number of closed-shell orbitals:   9 (   6   3 )
 Number of active  orbitals:        8 (   2   6 )
 Number of external orbitals:     149 (  78  71 )

 Molecular orbitals read from record     2140.2  Type=MCSCF/NATURAL (state averaged)

 Valence orbitals related to previous ones by unitary transformation. Operators transformed.


 Number of p-space configurations:   3

 Reference wavefunction optimized for reference space (refopt=1)

 State     Reference Energy 
     1      -415.51260524
     2      -415.51260524
     3      -415.51260524

 Number of blocks in overlap matrix:   385   Smallest eigenvalue:  0.27D-05
 Number of N-2 electron functions:     867
 Number of N-1 electron functions:  501108

 Number of internal configurations:               139300
 Number of singly external configurations:      37330628
 Number of doubly external configurations:       4815903
 Total number of contracted configurations:     42285831
 Total number of uncontracted configurations: 2315189004

 Diagonal Coupling coefficients finished.               Storage:  64527215 words, CPU-Time:    193.64 seconds.
 Energy denominators for pairs finished in 1 passes.    Storage:   5571941 words, CPU-time:      0.35 seconds.

  ITER. STATE  ROOT     SQ.NORM     CORR.ENERGY   TOTAL ENERGY   ENERGY CHANGE       DEN1      VAR(S)    VAR(P)      TIME
    1     1     1     1.00000000     0.00000000  -415.51260524     0.00000000    -1.11158513  0.27D-01  0.58D-01   233.23
    1     2     2     1.00000000     0.00000000  -415.51260524    -0.00000000    -1.11153142  0.27D-01  0.58D-01   233.23
    1     3     3     1.00000000     0.00000000  -415.51260524     0.00000000    -1.11146872  0.27D-01  0.58D-01   233.23
    2     1     1     1.06357316    -0.96306229  -416.47566753    -0.96306229    -0.01910788  0.18D-02  0.87D-03  2570.79
    2     2     2     1.06359640    -0.96305105  -416.47565629    -0.96305105    -0.01912057  0.18D-02  0.87D-03  2570.79
    2     3     3     1.06361840    -0.96303333  -416.47563857    -0.96303333    -0.01913791  0.18D-02  0.87D-03  2570.79
    3     1     1     1.05940976    -0.98085107  -416.49345632    -0.01778879    -0.00051722  0.30D-04  0.55D-04  4905.17
    3     2     2     1.05941030    -0.98085084  -416.49345608    -0.01779980    -0.00051749  0.30D-04  0.55D-04  4905.17
    3     3     3     1.05940847    -0.98085051  -416.49345575    -0.01781718    -0.00051791  0.30D-04  0.55D-04  4905.17
    4     1     1     1.06039478    -0.98142591  -416.49403115    -0.00057483    -0.00004445  0.21D-05  0.52D-05  7239.99
    4     2     2     1.06039427    -0.98142590  -416.49403115    -0.00057506    -0.00004446  0.21D-05  0.52D-05  7239.99
    4     3     3     1.06039478    -0.98142588  -416.49403112    -0.00057537    -0.00004447  0.21D-05  0.52D-05  7239.99
    5     1     1     1.06095720    -0.98147872  -416.49408396    -0.00005281    -0.00000315  0.16D-06  0.33D-06  9561.49
    5     2     2     1.06095685    -0.98147872  -416.49408396    -0.00005281    -0.00000315  0.16D-06  0.33D-06  9561.49
    5     3     3     1.06095704    -0.98147872  -416.49408396    -0.00005284    -0.00000315  0.16D-06  0.33D-06  9561.49
    6     1     1     1.06098830    -0.98148240  -416.49408765    -0.00000369    -0.00000025  0.11D-07  0.29D-07 11893.98
    6     2     2     1.06098832    -0.98148240  -416.49408765    -0.00000369    -0.00000025  0.11D-07  0.29D-07 11893.98
    6     3     3     1.06098835    -0.98148240  -416.49408765    -0.00000369    -0.00000025  0.11D-07  0.29D-07 11893.98
    7     1     1     1.06099180    -0.98148269  -416.49408793    -0.00000028    -0.00000002  0.15D-08  0.26D-08 14218.35
    7     2     2     1.06099181    -0.98148269  -416.49408793    -0.00000028    -0.00000002  0.15D-08  0.26D-08 14218.35
    7     3     3     1.06099180    -0.98148269  -416.49408793    -0.00000028    -0.00000002  0.15D-08  0.26D-08 14218.35


 =====================================
 Analysis of CPU times by interactions
 =====================================

       I      S      P

 I   0.8%
 S   0.4%  36.8%
 P   0.3%  53.8%   5.9%

 Initialization:   1.4%
 Other:            0.7%

 Total CPU:    14218.3 seconds
 =====================================



 Wavefunction saved on  5203.2

 Reference coefficients greater than 0.0500000
 =============================================
 22222220222/22000           0.9640757   0.0000000  -0.0000000
 222222202222/2000           0.0000000  -0.0000000   0.9640757
 2222222022222/000          -0.0000000   0.9640757   0.0000000

 Coefficients of fixed reference functions:
 ==========================================

 State      Coefficients
 1           0.970480    0.000000   -0.000000
 2           0.000000   -0.000000    0.970480
 3          -0.000000    0.970480    0.000000

 Coefficients of rotated reference functions:
 ============================================

 State      Coefficients
 1           0.970480   -0.000000    0.000000
 2          -0.000000    0.970480   -0.000000
 3           0.000000   -0.000000    0.970480


 RESULTS FOR STATE 1.2
 =====================

 Coefficient of reference function:   C(0) = 0.97048032 (fixed)   0.97072708 (relaxed)   0.97048032 (rotated)

 Energy contributions of configuration classes

 CLASS          SQ.NORM        ECORR1        ECORR2
 +++++++++++++++++++++++++++++++++++++++++++++++++++
 Internals    0.00072445   -0.00225508   -0.83673345
 Singles      0.01268530   -0.09378326   -0.10005340
 Pairs        0.04835068    0.00000000   -0.04469584
 Total        1.06176043   -0.09603833   -0.98148269
 +++++++++++++++++++++++++++++++++++++++++++++++++++


 Reference energy                    -415.51260524
 Nuclear energy                         0.00000000
 Kinetic energy                       296.12260815
 One electron energy                 -728.63710149
 Two electron energy                  312.14301356
 Virial quotient                       -1.40649203
 Correlation energy                    -0.98148269
 !MRCI STATE 1.2 Energy              -416.494087928921

 Properties without orbital relaxation:

 !MRCI STATE 1.2 Dipole moment          0.00000000     0.00000000     0.00000000
 Dipole moment /Debye                   0.00000000     0.00000000     0.00000000

 Cluster corrected energies          -416.55470473 (Davidson, fixed reference)
 Cluster corrected energies          -416.55417497 (Davidson, relaxed reference)
 Cluster corrected energies          -416.55470473 (Davidson, rotated reference)

 Cluster corrected energies          -416.55264932 (Pople, fixed reference)
 Cluster corrected energies          -416.55211037 (Pople, relaxed reference)
 Cluster corrected energies          -416.55264932 (Pople, rotated reference)



 RESULTS FOR STATE 2.2
 =====================

 Maximum overlap with reference state  3

 Coefficient of reference function:   C(0) = 0.97048031 (fixed)   0.97072708 (relaxed)   0.97048031 (rotated)

 Energy contributions of configuration classes

 CLASS          SQ.NORM        ECORR1        ECORR2
 +++++++++++++++++++++++++++++++++++++++++++++++++++
 Internals    0.00072445   -0.00225508   -0.00279357
 Singles      0.01268531   -0.09378328   -0.10005342
 Pairs        0.04835068   -0.88544434   -0.87863569
 Total        1.06176045   -0.98148269   -0.98148269
 +++++++++++++++++++++++++++++++++++++++++++++++++++


 Reference energy                    -415.51260524
 Nuclear energy                         0.00000000
 Kinetic energy                       296.12261310
 One electron energy                 -728.63710310
 Two electron energy                  312.14301517
 Virial quotient                       -1.40649201
 Correlation energy                    -0.98148269
 !MRCI STATE 2.2 Energy              -416.494087928873

 Properties without orbital relaxation:

 !MRCI STATE 2.2 Dipole moment          0.00000000     0.00000000     0.00000000
 Dipole moment /Debye                   0.00000000     0.00000000     0.00000000

 Cluster corrected energies          -416.55470474 (Davidson, fixed reference)
 Cluster corrected energies          -416.55417499 (Davidson, relaxed reference)
 Cluster corrected energies          -416.55470474 (Davidson, rotated reference)

 Cluster corrected energies          -416.55264934 (Pople, fixed reference)
 Cluster corrected energies          -416.55211038 (Pople, relaxed reference)
 Cluster corrected energies          -416.55264934 (Pople, rotated reference)



 RESULTS FOR STATE 3.2
 =====================

 Maximum overlap with reference state  2

 Coefficient of reference function:   C(0) = 0.97048032 (fixed)   0.97072708 (relaxed)   0.97048032 (rotated)

 Energy contributions of configuration classes

 CLASS          SQ.NORM        ECORR1        ECORR2
 +++++++++++++++++++++++++++++++++++++++++++++++++++
 Internals    0.00072445   -0.00225508   -0.83673344
 Singles      0.01268530   -0.09378326   -0.10005341
 Pairs        0.04835068   -0.00000000   -0.04469584
 Total        1.06176043   -0.09603834   -0.98148269
 +++++++++++++++++++++++++++++++++++++++++++++++++++


 Reference energy                    -415.51260524
 Nuclear energy                         0.00000000
 Kinetic energy                       296.12261145
 One electron energy                 -728.63710268
 Two electron energy                  312.14301475
 Virial quotient                       -1.40649201
 Correlation energy                    -0.98148269
 !MRCI STATE 3.2 Energy              -416.494087928765

 Properties without orbital relaxation:

 !MRCI STATE 3.2 Dipole moment          0.00000000     0.00000000     0.00000000
 Dipole moment /Debye                   0.00000000     0.00000000     0.00000000

 Cluster corrected energies          -416.55470472 (Davidson, fixed reference)
 Cluster corrected energies          -416.55417497 (Davidson, relaxed reference)
 Cluster corrected energies          -416.55470472 (Davidson, rotated reference)

 Cluster corrected energies          -416.55264932 (Pople, fixed reference)
 Cluster corrected energies          -416.55211036 (Pople, relaxed reference)
 Cluster corrected energies          -416.55264932 (Pople, rotated reference)



 **********************************************************************************************************************************
 DATASETS  * FILE   NREC   LENGTH (MB)   RECORD NAMES
              1      21       54.22       500      700      610      900      950      970     1000      129      960     1100   
                                          VAR     GEOM    BASINP   SYMINP    ZMAT    AOBASIS   BASIS     P2S    ABASIS      S 
                                         1400     1410     1420     1200     1210     1080     1700     1600     1650     1380   
                                           T        V       ECP      H0       H01     AOSYM    OPER      SMH    MOLCAS    JKOP   
                                         1700(1)
                                         OPER   

              2       8      988.66       500      700      610     1000      520     2100     2140     5203   
                                          VAR     GEOM    BASINP    BASIS   MCVARS     RHF     MCSCF    MRCI   

 PROGRAMS   *        TOTAL        CI     MULTI   RHF-SCF       INT      FILE
 CPU TIMES  *     14532.14  14519.76      5.16      0.70      3.05      3.32
 REAL TIME  *     14801.89 SEC
 DISK USED  *         1.02 GB (local),        3.24 GB (total)
 SF USED    *        10.62 GB
 GA USED    *         0.00 MB       (max)       0.00 MB       (current)
 **********************************************************************************************************************************
 SETTING HLSDIAG(1)     =      -416.55470473  AU                              
 SETTING HLSDIAG(2)     =      -416.55470474  AU                              
 SETTING HLSDIAG(3)     =      -416.55470472  AU                              


 PROGRAM * CI (Multireference internally contracted CI)     Authors: H.-J. Werner, P.J. Knowles, 1987


 Convergence thresholds:  THRVAR = 1.00D-08  THRDEN = 1.00D-06

 Number of optimized states: 8  Roots:    1   2   3   4   5   6   7   8
 Number of reference states: 8  Roots:    1   2   3   4   5   6   7   8

 Reference symmetry:                   2   Quartet 
 Number of electrons:                 25
 Maximum number of shells:             6
 Maximum number of spin couplings:   572

 Reference space:      344 conf      656 CSFs
 N elec internal:    52189 conf   229224 CSFs
 N-1 el internal:    51137 conf   453552 CSFs
 N-2 el internal:    21984 conf   385640 CSFs

 Number of electrons in valence space:                     25
 Maximum number of open shell orbitals in reference space:  7
 Maximum number of open shell orbitals in internal spaces: 13


 Number of closed-shell orbitals:   9 (   6   3 )
 Number of active  orbitals:        8 (   2   6 )
 Number of external orbitals:     149 (  78  71 )

 Molecular orbitals read from record     2140.2  Type=MCSCF/NATURAL (state averaged)

 Coulomb and exchange operators available. No transformation done.


 Number of p-space configurations:   9

 Reference wavefunction optimized for reference space (refopt=1)

 State     Reference Energy 
     1      -414.95803153
     2      -414.95803153
     3      -414.95803153
     4      -414.91368970
     5      -414.91368970
     6      -414.91368969
     7      -414.91368969
     8      -414.91368969

 ?WARNING: SMALL EIGENVALUE OF PAIR OVERLAP MATRIX:  0.1078D-06

 Number of blocks in overlap matrix:   781   Smallest eigenvalue:  0.11D-06
 Number of N-2 electron functions:    2264
 Number of N-1 electron functions:  453552

 Number of internal configurations:               114452
 Number of singly external configurations:      33786040
 Number of doubly external configurations:      12571832
 Total number of contracted configurations:     46472324
 Total number of uncontracted configurations: 2168055314

 Diagonal Coupling coefficients finished.               Storage:  86426839 words, CPU-Time:    999.12 seconds.
 Energy denominators for pairs finished in 1 passes.    Storage:   8428518 words, CPU-time:      0.91 seconds.

  ITER. STATE  ROOT     SQ.NORM     CORR.ENERGY   TOTAL ENERGY   ENERGY CHANGE       DEN1      VAR(S)    VAR(P)      TIME
    1     1     1     1.00000000     0.00000000  -414.95803153    -0.00000000    -1.18443860  0.87D-01  0.55D-01  1097.13
    1     2     2     1.00000000     0.00000000  -414.95803153    -0.00000000    -1.18472114  0.87D-01  0.55D-01  1097.13
    1     3     3     1.00000000     0.00000000  -414.95803153     0.00000000    -1.18474545  0.87D-01  0.55D-01  1097.13
    1     4     4     1.00000000     0.00000000  -414.91368970     0.00000000    -1.21273955  0.10D+00  0.56D-01  1097.13
    1     5     5     1.00000000     0.00000000  -414.91368970    -0.00000000    -1.21192704  0.10D+00  0.56D-01  1097.13
    1     6     6     1.00000000     0.00000000  -414.91368969    -0.00000000    -1.21304162  0.10D+00  0.56D-01  1097.13
    1     7     7     1.00000000     0.00000000  -414.91368969    -0.00000000    -1.21312386  0.10D+00  0.56D-01  1097.13
    1     8     8     1.00000000     0.00000000  -414.91368969     0.00000000    -1.22137366  0.12D+00  0.56D-01  1097.13
    2     1     1     1.10413398    -1.01685244  -415.97488397    -1.01685244    -0.02759368  0.50D-02  0.15D-02  9334.87
    2     2     2     1.10420207    -1.01681513  -415.97484666    -1.01681513    -0.02765931  0.50D-02  0.15D-02  9334.87
    2     3     3     1.10420955    -1.01676801  -415.97479954    -1.01676801    -0.02770858  0.51D-02  0.15D-02  9334.87
    2     4     4     1.11288580    -1.02717269  -415.94086238    -1.02717269    -0.03616116  0.83D-02  0.18D-02  9334.87
    2     5     5     1.11318041    -1.02667732  -415.94036702    -1.02667732    -0.03673270  0.85D-02  0.19D-02  9334.87
    2     6     6     1.11331112    -1.02649308  -415.94018278    -1.02649308    -0.03694225  0.86D-02  0.19D-02  9334.87
    2     7     7     1.11334201    -1.02643407  -415.94012377    -1.02643407    -0.03700740  0.86D-02  0.19D-02  9334.87
    2     8     8     1.12505990    -1.02420738  -415.93789707    -1.02420738    -0.03900105  0.10D-01  0.20D-02  9334.87
    3     1     1     1.10314075    -1.04366991  -416.00170144    -0.02681747    -0.00092206  0.10D-03  0.93D-04 17550.29
    3     2     2     1.10313367    -1.04366579  -416.00169732    -0.02685066    -0.00092462  0.10D-03  0.93D-04 17550.29
    3     3     3     1.10313447    -1.04366329  -416.00169482    -0.02689528    -0.00092499  0.10D-03  0.93D-04 17550.29
    3     4     4     1.11060592    -1.06227609  -415.97596578    -0.03510340    -0.00129754  0.20D-03  0.11D-03 17550.29
    3     5     5     1.11078866    -1.06226065  -415.97595034    -0.03558333    -0.00130932  0.20D-03  0.12D-03 17550.29
    3     6     6     1.11077389    -1.06225169  -415.97594138    -0.03575860    -0.00131848  0.20D-03  0.12D-03 17550.29
    3     7     7     1.11076905    -1.06224776  -415.97593745    -0.03581369    -0.00132140  0.20D-03  0.12D-03 17550.29
    3     8     8     1.11282787    -1.06204059  -415.97573028    -0.03783321    -0.00147217  0.27D-03  0.12D-03 17550.29
    4     1     1     1.10765560    -1.04474622  -416.00277775    -0.00107632    -0.00008650  0.83D-05  0.95D-05 25779.20
    4     2     2     1.10765725    -1.04474566  -416.00277719    -0.00107987    -0.00008691  0.83D-05  0.95D-05 25779.20
    4     3     3     1.10765649    -1.04474493  -416.00277646    -0.00108164    -0.00008733  0.84D-05  0.95D-05 25779.20
    4     4     4     1.11714923    -1.06378576  -415.97747546    -0.00150968    -0.00010860  0.10D-04  0.12D-04 25779.20
    4     5     5     1.11715410    -1.06378107  -415.97747076    -0.00152042    -0.00011220  0.11D-04  0.13D-04 25779.20
    4     6     6     1.11714704    -1.06378067  -415.97747036    -0.00152898    -0.00011271  0.11D-04  0.13D-04 25779.20
    4     7     7     1.11714576    -1.06378009  -415.97746978    -0.00153233    -0.00011310  0.11D-04  0.13D-04 25779.20
    4     8     8     1.11742479    -1.06375813  -415.97744782    -0.00171754    -0.00013316  0.18D-04  0.14D-04 25779.20
    5     1     1     1.10901234    -1.04484986  -416.00288139    -0.00010364    -0.00001018  0.11D-05  0.11D-05 34005.39
    5     2     2     1.10901388    -1.04484982  -416.00288135    -0.00010416    -0.00001022  0.11D-05  0.12D-05 34005.39
    5     3     3     1.10901471    -1.04484964  -416.00288117    -0.00010471    -0.00001031  0.12D-05  0.12D-05 34005.39
    5     4     4     1.11887438    -1.06391868  -415.97760838    -0.00013292    -0.00001380  0.15D-05  0.16D-05 34005.39
    5     5     5     1.11887528    -1.06391863  -415.97760833    -0.00013756    -0.00001385  0.15D-05  0.16D-05 34005.39
    5     6     6     1.11887702    -1.06391861  -415.97760831    -0.00013795    -0.00001382  0.15D-05  0.16D-05 34005.39
    5     7     7     1.11886524    -1.06391842  -415.97760812    -0.00013833    -0.00001325  0.14D-05  0.16D-05 34005.39
    5     8     8     1.11884041    -1.06391631  -415.97760600    -0.00015818    -0.00001512  0.17D-05  0.18D-05 34005.39
    6     1     1     1.10895040    -1.04486232  -416.00289385    -0.00001246    -0.00000129  0.95D-07  0.15D-06 42225.45
    6     2     2     1.10895019    -1.04486232  -416.00289385    -0.00001250    -0.00000130  0.96D-07  0.15D-06 42225.45
    6     3     3     1.10894982    -1.04486228  -416.00289381    -0.00001264    -0.00000132  0.96D-07  0.15D-06 42225.45
    6     4     4     1.11883070    -1.06393592  -415.97762562    -0.00001724    -0.00000198  0.19D-06  0.22D-06 42225.45
    6     5     5     1.11883063    -1.06393592  -415.97762561    -0.00001729    -0.00000198  0.19D-06  0.22D-06 42225.45
    6     6     6     1.11883053    -1.06393591  -415.97762561    -0.00001730    -0.00000198  0.19D-06  0.22D-06 42225.45
    6     7     7     1.11883273    -1.06393520  -415.97762490    -0.00001678    -0.00000196  0.19D-06  0.22D-06 42225.45
    6     8     8     1.11880480    -1.06393473  -415.97762443    -0.00001843    -0.00000223  0.21D-06  0.26D-06 42225.45
    7     1     1     1.10893009    -1.04486382  -416.00289535    -0.00000150    -0.00000018  0.14D-07  0.21D-07 50444.33
    7     2     2     1.10893008    -1.04486383  -416.00289535    -0.00000150    -0.00000018  0.14D-07  0.21D-07 50444.33
    7     3     3     1.10892941    -1.04486382  -416.00289535    -0.00000154    -0.00000019  0.14D-07  0.21D-07 50444.33
    7     4     4     1.11883432    -1.06393822  -415.97762791    -0.00000229    -0.00000030  0.23D-07  0.36D-07 50444.33
    7     5     5     1.11883456    -1.06393821  -415.97762791    -0.00000230    -0.00000030  0.23D-07  0.36D-07 50444.33
    7     6     6     1.11883456    -1.06393822  -415.97762791    -0.00000230    -0.00000030  0.23D-07  0.36D-07 50444.33
    7     7     7     1.11883542    -1.06393748  -415.97762718    -0.00000228    -0.00000030  0.23D-07  0.35D-07 50444.33
    7     8     8     1.11883001    -1.06393741  -415.97762710    -0.00000267    -0.00000035  0.29D-07  0.41D-07 50444.33
    8     1     1     1.10895202    -1.04486404  -416.00289557    -0.00000022    -0.00000003  0.30D-08  0.36D-08 58692.49
    8     2     2     1.10895204    -1.04486404  -416.00289557    -0.00000022    -0.00000003  0.29D-08  0.35D-08 58692.49
    8     3     3     1.10895200    -1.04486404  -416.00289557    -0.00000022    -0.00000003  0.29D-08  0.35D-08 58692.49
    8     4     4     1.11885690    -1.06393859  -415.97762828    -0.00000037    -0.00000006  0.50D-08  0.66D-08 58692.49
    8     5     5     1.11885679    -1.06393859  -415.97762828    -0.00000037    -0.00000006  0.50D-08  0.66D-08 58692.49
    8     6     6     1.11885675    -1.06393859  -415.97762828    -0.00000037    -0.00000006  0.50D-08  0.66D-08 58692.49
    8     7     7     1.11885681    -1.06393785  -415.97762754    -0.00000037    -0.00000006  0.47D-08  0.65D-08 58692.49
    8     8     8     1.11885498    -1.06393784  -415.97762753    -0.00000043    -0.00000007  0.76D-08  0.74D-08 58692.49
    9     1     1     1.10895202    -1.04486404  -416.00289557    -0.00000000    -0.00000003  0.30D-08  0.36D-08 64868.75
    9     2     2     1.10895204    -1.04486404  -416.00289557    -0.00000000    -0.00000003  0.29D-08  0.35D-08 64868.75
    9     3     3     1.10895200    -1.04486404  -416.00289557    -0.00000000    -0.00000003  0.29D-08  0.35D-08 64868.75
    9     4     4     1.11886849    -1.06393867  -415.97762836    -0.00000008    -0.00000001  0.44D-09  0.60D-09 64868.75
    9     5     5     1.11886468    -1.06393866  -415.97762835    -0.00000007    -0.00000001  0.17D-08  0.13D-08 64868.75
    9     6     6     1.11886468    -1.06393866  -415.97762835    -0.00000007    -0.00000001  0.17D-08  0.13D-08 64868.75
    9     7     7     1.11886834    -1.06393793  -415.97762762    -0.00000008    -0.00000001  0.43D-09  0.58D-09 64868.75
    9     8     8     1.11887017    -1.06393793  -415.97762762    -0.00000009    -0.00000001  0.78D-09  0.72D-09 64868.75


 =====================================
 Analysis of CPU times by interactions
 =====================================

       I      S      P

 I   0.5%
 S   0.2%  26.4%
 P   0.2%  57.2%  12.5%

 Initialization:   1.5%
 Other:            1.4%

 Total CPU:    64868.8 seconds
 =====================================



 Wavefunction saved on  5303.2

 Reference coefficients greater than 0.0500000
 =============================================
 22222220222//200/           0.0000000  -0.0000000   0.0000000   0.0001131   0.0000001  -0.0000001  -0.0101523   0.7656667
 222222202222//0/0           0.0000000   0.0000000  -0.0000000  -0.0000378  -0.0000047   0.0000074   0.6681651  -0.3740438
 22222220222/2/0/0           0.6613135  -0.0293104  -0.0052856   0.6631471  -0.0003007   0.0000240  -0.0000174  -0.0000982
 222222202222///00           0.6613135  -0.0293104  -0.0052856  -0.6631471   0.0003007  -0.0000240   0.0000174   0.0000982
 22222220222//2/00           0.0064716   0.0267420   0.6614119   0.0001406   0.3547741   0.5602685  -0.0000037  -0.0000000
 22222220222/2/00/           0.0064716   0.0267420   0.6614118  -0.0001406  -0.3547741  -0.5602686   0.0000037   0.0000000
 22222220222//20/0           0.0290715   0.6607938  -0.0270015   0.0002669   0.5602685  -0.3547741   0.0000078  -0.0000000
 222222202222//00/          -0.0290715  -0.6607937   0.0270015   0.0002669   0.5602686  -0.3547742   0.0000078  -0.0000000
 22222220222/2//00           0.0000000   0.0000000  -0.0000000   0.0000753  -0.0000046   0.0000072   0.6580128   0.3916281
 222222//222/22000           0.0010509   0.0043426   0.1074051  -0.0000000  -0.0000001  -0.0000001   0.0000000   0.0000000
 222222//22222/000          -0.1073892   0.0047596   0.0008583  -0.0000000  -0.0000000  -0.0000000   0.0000000  -0.0000000
 222222//2222/2000          -0.0047209  -0.1073048   0.0043847   0.0000000   0.0000001  -0.0000001   0.0000000   0.0000000
 22222220222/\///0          -0.0000000  -0.0000000  -0.0000000  -0.0580157   0.0000263  -0.0000021   0.0000015   0.0000086

 Coefficients of singly external configurations greater than 0.0500000
 =====================================================================

 22222220222//2000  20.2    -0.0000000   0.0000000  -0.0000000  -0.0000216  -0.0000000   0.0000000   0.0019378  -0.1461431
 222222202222//000  21.2    -0.0000000  -0.0000000   0.0000000   0.0000072   0.0000009  -0.0000014  -0.1275339   0.0713956
 22222220222/2/000  21.2    -0.1185934   0.0052562   0.0009479  -0.1265757   0.0000574  -0.0000046   0.0000033   0.0000187
 222222202222//000  22.2    -0.1185934   0.0052562   0.0009479   0.1265757  -0.0000574   0.0000046  -0.0000033  -0.0000187
 22222220222/2/000  22.2    -0.0000000  -0.0000000   0.0000000  -0.0000144   0.0000009  -0.0000014  -0.1255961  -0.0747520
 22222220222/2/000  20.2    -0.0011606  -0.0047956  -0.1186109   0.0000268   0.0677152   0.1069376  -0.0000007  -0.0000000
 22222220222//2000  22.2    -0.0011606  -0.0047956  -0.1186109  -0.0000268  -0.0677152  -0.1069376   0.0000007   0.0000000
 222222202222//000  20.2     0.0052134   0.1185001  -0.0048422  -0.0000509  -0.1069376   0.0677152  -0.0000015   0.0000000
 22222220222//2000  21.2    -0.0052134  -0.1185001   0.0048422  -0.0000509  -0.1069375   0.0677152  -0.0000015   0.0000000
 22222220222//2000  10.2    -0.0000000   0.0000000  -0.0000000  -0.0000127  -0.0000000   0.0000000   0.0011386  -0.0858654
 222222202222//000  11.2    -0.0000000   0.0000000   0.0000000   0.0000042   0.0000005  -0.0000008  -0.0749322   0.0419559
 22222220222/2/000  11.2    -0.0680122   0.0030144   0.0005436  -0.0743693   0.0000337  -0.0000027   0.0000020   0.0000110
 222222202222//000  12.2    -0.0680122   0.0030144   0.0005436   0.0743691  -0.0000337   0.0000027  -0.0000020  -0.0000110
 22222220222/2/000  12.2    -0.0000000  -0.0000000   0.0000000  -0.0000084   0.0000005  -0.0000008  -0.0737935  -0.0439280
 22222220222/2/000  10.2    -0.0006656  -0.0027503  -0.0680225   0.0000158   0.0397877   0.0628338  -0.0000004  -0.0000000
 22222220222//2000  12.2    -0.0006656  -0.0027503  -0.0680223  -0.0000158  -0.0397877  -0.0628337   0.0000004   0.0000000
 222222202222//000  10.2     0.0029898   0.0679589  -0.0027770  -0.0000299  -0.0628337   0.0397877  -0.0000009   0.0000000
 22222220222//2000  11.2    -0.0029898  -0.0679587   0.0027769  -0.0000299  -0.0628338   0.0397877  -0.0000009   0.0000000
 22222220222//2000  30.2     0.0000000  -0.0000000   0.0000000   0.0000080   0.0000000  -0.0000000  -0.0007182   0.0541678

 Coefficients of fixed reference functions:
 ==========================================

 State      Coefficients
 1           0.947898    0.041670    0.009276   -0.000000    0.000000    0.000000    0.000000    0.000000
 2          -0.042012    0.947153    0.038331    0.000000    0.000000    0.000000    0.000000   -0.000000
 3          -0.007576   -0.038703    0.948039   -0.000000   -0.000000   -0.000000    0.000000    0.000000
 4           0.000000    0.000000    0.000000    0.944674    0.000027    0.000380    0.000200    0.000140
 5          -0.000000   -0.000000   -0.000000   -0.000428   -0.000007    0.798121    0.505387    0.000000
 6           0.000000    0.000000   -0.000000    0.000034    0.000010   -0.505387    0.798121   -0.000000
 7          -0.000000   -0.000000    0.000000   -0.000025    0.944593    0.000011   -0.000005   -0.012374
 8          -0.000000    0.000000   -0.000000   -0.000140    0.012374   -0.000000   -0.000000    0.944593

 Coefficients of rotated reference functions:
 ============================================

 State      Coefficients
 1           0.948859   -0.000000    0.000000   -0.000000   -0.000000    0.000000   -0.000000   -0.000000
 2          -0.000000    0.948859    0.000000    0.000000   -0.000000    0.000000   -0.000000   -0.000000
 3           0.000000    0.000000    0.948859    0.000000   -0.000000   -0.000000    0.000000   -0.000000
 4          -0.000000    0.000000    0.000000    0.944674    0.000000   -0.000000    0.000000   -0.000000
 5          -0.000000   -0.000000   -0.000000    0.000000    0.944676    0.000000    0.000000   -0.000000
 6           0.000000    0.000000   -0.000000   -0.000000    0.000000    0.944676    0.000000    0.000000
 7          -0.000000   -0.000000    0.000000    0.000000    0.000000    0.000000    0.944674    0.000000
 8          -0.000000   -0.000000   -0.000000   -0.000000   -0.000000    0.000000    0.000000    0.944674


 RESULTS FOR STATE 1.2
 =====================

 Coefficient of reference function:   C(0) = 0.94789786 (fixed)   0.94951570 (relaxed)   0.94885867 (rotated)

 Energy contributions of configuration classes

 CLASS          SQ.NORM        ECORR1        ECORR2
 +++++++++++++++++++++++++++++++++++++++++++++++++++
 Internals    0.00157663   -0.00201961   -0.78502670
 Singles      0.06491671   -0.17458190   -0.21824602
 Pairs        0.04420709   -0.00000000   -0.04159132
 Total        1.11070043   -0.17660152   -1.04486404
 +++++++++++++++++++++++++++++++++++++++++++++++++++


 Reference energy                    -414.95803153
 Nuclear energy                         0.00000000
 Kinetic energy                       296.30850433
 One electron energy                 -725.30892354
 Two electron energy                  309.30602797
 Virial quotient                       -1.40395193
 Correlation energy                    -1.04486404
 !MRCI STATE 1.2 Energy              -416.002895570555

 Properties without orbital relaxation:

 !MRCI STATE 1.2 Dipole moment          0.00000000     0.00000000     0.00000000
 Dipole moment /Debye                   0.00000000     0.00000000     0.00000000

 Cluster corrected energies          -416.11856247 (Davidson, fixed reference)
 Cluster corrected energies          -416.11695693 (Davidson, relaxed reference)
 Cluster corrected energies          -416.11856247 (Davidson, rotated reference)

 Cluster corrected energies          -416.11837849 (Pople, fixed reference)
 Cluster corrected energies          -416.11662248 (Pople, relaxed reference)
 Cluster corrected energies          -416.11837849 (Pople, rotated reference)



 RESULTS FOR STATE 2.2
 =====================

 Coefficient of reference function:   C(0) = 0.94715283 (fixed)   0.94951569 (relaxed)   0.94885866 (rotated)

 Energy contributions of configuration classes

 CLASS          SQ.NORM        ECORR1        ECORR2
 +++++++++++++++++++++++++++++++++++++++++++++++++++
 Internals    0.00157663   -0.00201961   -0.78502678
 Singles      0.06491665   -0.17458181   -0.21824601
 Pairs        0.04420717    0.00000000   -0.04159125
 Total        1.11070045   -0.17660142   -1.04486404
 +++++++++++++++++++++++++++++++++++++++++++++++++++


 Reference energy                    -414.95803153
 Nuclear energy                         0.00000000
 Kinetic energy                       296.30853557
 One electron energy                 -725.30893504
 Two electron energy                  309.30603947
 Virial quotient                       -1.40395178
 Correlation energy                    -1.04486404
 !MRCI STATE 2.2 Energy              -416.002895570239

 Properties without orbital relaxation:

 !MRCI STATE 2.2 Dipole moment          0.00000000     0.00000000     0.00000000
 Dipole moment /Debye                   0.00000000     0.00000000     0.00000000

 Cluster corrected energies          -416.11856248 (Davidson, fixed reference)
 Cluster corrected energies          -416.11695695 (Davidson, relaxed reference)
 Cluster corrected energies          -416.11856248 (Davidson, rotated reference)

 Cluster corrected energies          -416.11837851 (Pople, fixed reference)
 Cluster corrected energies          -416.11662251 (Pople, relaxed reference)
 Cluster corrected energies          -416.11837851 (Pople, rotated reference)



 RESULTS FOR STATE 3.2
 =====================

 Coefficient of reference function:   C(0) = 0.94803876 (fixed)   0.94951571 (relaxed)   0.94885868 (rotated)

 Energy contributions of configuration classes

 CLASS          SQ.NORM        ECORR1        ECORR2
 +++++++++++++++++++++++++++++++++++++++++++++++++++
 Internals    0.00157662   -0.00201961   -0.78502682
 Singles      0.06491662   -0.17458180   -0.21824600
 Pairs        0.04420715   -0.00000000   -0.04159122
 Total        1.11070040   -0.17660141   -1.04486404
 +++++++++++++++++++++++++++++++++++++++++++++++++++


 Reference energy                    -414.95803153
 Nuclear energy                         0.00000000
 Kinetic energy                       296.30853287
 One electron energy                 -725.30893388
 Two electron energy                  309.30603831
 Virial quotient                       -1.40395179
 Correlation energy                    -1.04486404
 !MRCI STATE 3.2 Energy              -416.002895569979

 Properties without orbital relaxation:

 !MRCI STATE 3.2 Dipole moment          0.00000000     0.00000000     0.00000000
 Dipole moment /Debye                   0.00000000     0.00000000     0.00000000

 Cluster corrected energies          -416.11856244 (Davidson, fixed reference)
 Cluster corrected energies          -416.11695690 (Davidson, relaxed reference)
 Cluster corrected energies          -416.11856244 (Davidson, rotated reference)

 Cluster corrected energies          -416.11837846 (Pople, fixed reference)
 Cluster corrected energies          -416.11662246 (Pople, relaxed reference)
 Cluster corrected energies          -416.11837846 (Pople, rotated reference)



 RESULTS FOR STATE 4.2
 =====================

 Coefficient of reference function:   C(0) = 0.94467430 (fixed)   0.94528830 (relaxed)   0.94467441 (rotated)

 Energy contributions of configuration classes

 CLASS          SQ.NORM        ECORR1        ECORR2
 +++++++++++++++++++++++++++++++++++++++++++++++++++
 Internals    0.00151315   -0.00215873   -0.77813647
 Singles      0.07457936   -0.19347055   -0.24346578
 Pairs        0.04446900   -0.00012824   -0.04233642
 Total        1.12056150   -0.19575752   -1.06393867
 +++++++++++++++++++++++++++++++++++++++++++++++++++


 Reference energy                    -414.91368970
 Nuclear energy                         0.00000000
 Kinetic energy                       296.31006308
 One electron energy                 -725.36854375
 Two electron energy                  309.39091538
 Virial quotient                       -1.40385927
 Correlation energy                    -1.06393867
 !MRCI STATE 4.2 Energy              -415.977628364916

 Properties without orbital relaxation:

 !MRCI STATE 4.2 Dipole moment          0.00000000     0.00000000     0.00000000
 Dipole moment /Debye                   0.00000000     0.00000000     0.00000000

 Cluster corrected energies          -416.10589841 (Davidson, fixed reference)
 Cluster corrected energies          -416.10435042 (Davidson, relaxed reference)
 Cluster corrected energies          -416.10589841 (Davidson, rotated reference)

 Cluster corrected energies          -416.10680803 (Pople, fixed reference)
 Cluster corrected energies          -416.10508572 (Pople, relaxed reference)
 Cluster corrected energies          -416.10680803 (Pople, rotated reference)



 RESULTS FOR STATE 5.2
 =====================

 Maximum overlap with reference state  6

 Coefficient of reference function:   C(0) = 0.79812055 (fixed)   0.94528991 (relaxed)   0.94467601 (rotated)

 Energy contributions of configuration classes

 CLASS          SQ.NORM        ECORR1        ECORR2
 +++++++++++++++++++++++++++++++++++++++++++++++++++
 Internals    0.00151317   -0.00215874   -0.77825694
 Singles      0.07457805   -0.19346669   -0.24346577
 Pairs        0.04446649   -0.00000007   -0.04221595
 Total        1.12055771   -0.19562551   -1.06393866
 +++++++++++++++++++++++++++++++++++++++++++++++++++


 Reference energy                    -414.91368969
 Nuclear energy                         0.00000000
 Kinetic energy                       296.31006896
 One electron energy                 -725.36852467
 Two electron energy                  309.39089632
 Virial quotient                       -1.40385924
 Correlation energy                    -1.06393866
 !MRCI STATE 5.2 Energy              -415.977628352201

 Properties without orbital relaxation:

 !MRCI STATE 5.2 Dipole moment          0.00000000     0.00000000     0.00000000
 Dipole moment /Debye                   0.00000000     0.00000000     0.00000000

 Cluster corrected energies          -416.10589436 (Davidson, fixed reference)
 Cluster corrected energies          -416.10434635 (Davidson, relaxed reference)
 Cluster corrected energies          -416.10589436 (Davidson, rotated reference)

 Cluster corrected energies          -416.10680352 (Pople, fixed reference)
 Cluster corrected energies          -416.10508120 (Pople, relaxed reference)
 Cluster corrected energies          -416.10680352 (Pople, rotated reference)



 RESULTS FOR STATE 6.2
 =====================

 Maximum overlap with reference state  7

 Coefficient of reference function:   C(0) = 0.79812064 (fixed)   0.94528991 (relaxed)   0.94467601 (rotated)

 Energy contributions of configuration classes

 CLASS          SQ.NORM        ECORR1        ECORR2
 +++++++++++++++++++++++++++++++++++++++++++++++++++
 Internals    0.00151317   -0.00215874   -0.77825712
 Singles      0.07457805   -0.19346668   -0.24346576
 Pairs        0.04446649    0.00000012   -0.04221578
 Total        1.12055770   -0.19562531   -1.06393866
 +++++++++++++++++++++++++++++++++++++++++++++++++++


 Reference energy                    -414.91368969
 Nuclear energy                         0.00000000
 Kinetic energy                       296.31006950
 One electron energy                 -725.36852484
 Two electron energy                  309.39089649
 Virial quotient                       -1.40385924
 Correlation energy                    -1.06393866
 !MRCI STATE 6.2 Energy              -415.977628351938

 Properties without orbital relaxation:

 !MRCI STATE 6.2 Dipole moment          0.00000000     0.00000000     0.00000000
 Dipole moment /Debye                   0.00000000     0.00000000     0.00000000

 Cluster corrected energies          -416.10589435 (Davidson, fixed reference)
 Cluster corrected energies          -416.10434635 (Davidson, relaxed reference)
 Cluster corrected energies          -416.10589435 (Davidson, rotated reference)

 Cluster corrected energies          -416.10680352 (Pople, fixed reference)
 Cluster corrected energies          -416.10508120 (Pople, relaxed reference)
 Cluster corrected energies          -416.10680352 (Pople, rotated reference)



 RESULTS FOR STATE 7.2
 =====================

 Maximum overlap with reference state  5

 Coefficient of reference function:   C(0) = 0.94459341 (fixed)   0.94528837 (relaxed)   0.94467445 (rotated)

 Energy contributions of configuration classes

 CLASS          SQ.NORM        ECORR1        ECORR2
 +++++++++++++++++++++++++++++++++++++++++++++++++++
 Internals    0.00151319   -0.00215865   -0.78840124
 Singles      0.07457925   -0.19346987   -0.24346492
 Pairs        0.04446896    0.01137400   -0.03207177
 Total        1.12056140   -0.18425453   -1.06393793
 +++++++++++++++++++++++++++++++++++++++++++++++++++


 Reference energy                    -414.91368970
 Nuclear energy                         0.00000000
 Kinetic energy                       296.31006489
 One electron energy                 -725.36854262
 Two electron energy                  309.39091500
 Virial quotient                       -1.40385926
 Correlation energy                    -1.06393793
 !MRCI STATE 7.2 Energy              -415.977627624145

 Properties without orbital relaxation:

 !MRCI STATE 7.2 Dipole moment          0.00000000     0.00000000     0.00000000
 Dipole moment /Debye                   0.00000000     0.00000000     0.00000000

 Cluster corrected energies          -416.10589747 (Davidson, fixed reference)
 Cluster corrected energies          -416.10434942 (Davidson, relaxed reference)
 Cluster corrected energies          -416.10589747 (Davidson, rotated reference)

 Cluster corrected energies          -416.10680708 (Pople, fixed reference)
 Cluster corrected energies          -416.10508470 (Pople, relaxed reference)
 Cluster corrected energies          -416.10680708 (Pople, rotated reference)



 RESULTS FOR STATE 8.2
 =====================

 Coefficient of reference function:   C(0) = 0.94459261 (fixed)   0.94528760 (relaxed)   0.94467367 (rotated)

 Energy contributions of configuration classes

 CLASS          SQ.NORM        ECORR1        ECORR2
 +++++++++++++++++++++++++++++++++++++++++++++++++++
 Internals    0.00151322   -0.00215865   -0.00342962
 Singles      0.07458093   -0.19347116   -0.24346627
 Pairs        0.04446911   -0.86823363   -0.81704203
 Total        1.12056327   -1.06386344   -1.06393793
 +++++++++++++++++++++++++++++++++++++++++++++++++++


 Reference energy                    -414.91368969
 Nuclear energy                         0.00000000
 Kinetic energy                       296.30990670
 One electron energy                 -725.36846946
 Two electron energy                  309.39084184
 Virial quotient                       -1.40386001
 Correlation energy                    -1.06393793
 !MRCI STATE 8.2 Energy              -415.977627619072

 Properties without orbital relaxation:

 !MRCI STATE 8.2 Dipole moment          0.00000000     0.00000000     0.00000000
 Dipole moment /Debye                   0.00000000     0.00000000     0.00000000

 Cluster corrected energies          -416.10589945 (Davidson, fixed reference)
 Cluster corrected energies          -416.10435136 (Davidson, relaxed reference)
 Cluster corrected energies          -416.10589945 (Davidson, rotated reference)

 Cluster corrected energies          -416.10680929 (Pople, fixed reference)
 Cluster corrected energies          -416.10508686 (Pople, relaxed reference)
 Cluster corrected energies          -416.10680929 (Pople, rotated reference)



 **********************************************************************************************************************************
 DATASETS  * FILE   NREC   LENGTH (MB)   RECORD NAMES
              1      21       54.22       500      700      610      900      950      970     1000      129      960     1100   
                                          VAR     GEOM    BASINP   SYMINP    ZMAT    AOBASIS   BASIS     P2S    ABASIS      S 
                                         1400     1410     1420     1200     1210     1080     1700     1600     1650     1380   
                                           T        V       ECP      H0       H01     AOSYM    OPER      SMH    MOLCAS    JKOP   
                                         1700(1)
                                         OPER   

              2       9     3844.51       500      700      610     1000      520     2100     2140     5203     5303   
                                          VAR     GEOM    BASINP    BASIS   MCVARS     RHF     MCSCF    MRCI     MRCI   

 PROGRAMS   *        TOTAL        CI        CI     MULTI   RHF-SCF       INT      FILE
 CPU TIMES  *     85238.23  70706.09  14519.76      5.16      0.70      3.05      3.32
 REAL TIME  *     86188.61 SEC
 DISK USED  *         3.81 GB (local),       11.60 GB (total)
 SF USED    *        29.99 GB
 GA USED    *         0.00 MB       (max)       0.00 MB       (current)
 **********************************************************************************************************************************
 SETTING HLSDIAG(4)     =      -416.11856247  AU                              
 SETTING HLSDIAG(5)     =      -416.11856248  AU                              
 SETTING HLSDIAG(6)     =      -416.11856244  AU                              
 SETTING HLSDIAG(7)     =      -416.10589841  AU                              
 SETTING HLSDIAG(8)     =      -416.10589436  AU                              
 SETTING HLSDIAG(9)     =      -416.10589435  AU                              
 SETTING HLSDIAG(10)    =      -416.10589747  AU                              
 SETTING HLSDIAG(11)    =      -416.10589945  AU                              


         HLSDIAG
    -416.5547047
    -416.5547047
    -416.5547047
    -416.1185625
    -416.1185625
    -416.1185624
    -416.1058984
    -416.1058944
    -416.1058944
    -416.1058975
    -416.1058995
                                                  


 PROGRAM * CI (Multireference internally contracted CI)     Authors: H.-J. Werner, P.J. Knowles, 1987


 Diagonal elements of H will be replaced by values from variable HLSDIAG


   ******************************
   *** Spin-orbit calculation ***
   ******************************


   Spin-orbit matrix elements
   ==========================

 Wavefunction restored from record  5203.2  Symmetry=2  S= 0.5  NSTATE=   3

 Original energies:   -416.494088   -416.494088   -416.494088
 Replaced energies:   -416.554705   -416.554705   -416.554705

 Wavefunction restored from record  5303.2  Symmetry=2  S= 1.5  NSTATE=   8

 Original energies:   -416.002896   -416.002896   -416.002896   -415.977628   -415.977628   -415.977628   -415.977628   -415.977628
 Replaced energies:   -416.118562   -416.118562   -416.118562   -416.105898   -416.105894   -416.105894   -416.105897   -416.105899



   Spin-orbit calculation in the basis of zeroth order wave functions
[...]

   36    6.2  1.5 -1.5  -0.179982820  -0.000011268   0.000005956  -0.101754503   0.341014829   0.000004760
                         0.113969083   0.000013395  -0.000004577   0.064595040  -0.215844123   0.000013164

   37    7.2  1.5 -1.5  -0.000000222   0.226156303  -0.069218635  -0.000005333  -0.000006641   0.404890169
                        -0.000003591   0.376994112  -0.027492259  -0.000002035   0.000004358   0.042843331

   38    8.2  1.5 -1.5  -0.000000588   0.004057503  -0.382168693  -0.000001464   0.000005820  -0.076740673
                        -0.000000276   0.006639325  -0.151886676   0.000000606   0.000000699  -0.008200071


 Composition of spin-orbit eigenvectors
 ======================================

   Nr   State  S   Sz       1        2        3        4        5        6        7        8        9       10

    1    1.2  0.5  0.5  31.676%   0.000%   0.000%  34.968%  33.320%   0.000%   0.000%   0.000%   0.000%   0.000%
    2    2.2  0.5  0.5   0.000%  62.975%   3.683%   0.000%   0.000%  33.304%   0.000%   0.000%   0.000%   0.000%
    3    3.2  0.5  0.5   5.315%   0.000%   0.000%  61.317%  33.333%   0.000%   0.000%   0.000%   0.000%   0.000%
    4    1.2  0.5 -0.5   0.000%  31.678%  34.966%   0.000%   0.000%  33.320%   0.000%   0.000%   0.000%   0.000%
    5    2.2  0.5 -0.5  62.976%   0.000%   0.000%   3.683%  33.304%   0.000%   0.000%   0.000%   0.000%   0.000%
    6    3.2  0.5 -0.5   0.000%   5.314%  61.318%   0.000%   0.000%  33.333%   0.000%   0.000%   0.000%   0.000%
    7    1.2  1.5  1.5   0.001%   0.000%   0.000%   0.009%   0.000%   0.000%  34.126%   0.094%   0.002%   0.008%
    8    2.2  1.5  1.5   0.000%   0.003%   0.000%   0.000%   0.000%   0.002%   0.076%  42.216%   0.753%   4.080%
    9    3.2  1.5  1.5   0.000%   0.003%   0.000%   0.000%   0.000%   0.002%   0.002%  41.810%   0.851%   4.486%
   10    4.2  1.5  1.5   0.003%   0.000%   0.000%   0.000%   0.007%   0.000%   0.000%   0.000%   0.000%   0.000%
   11    5.2  1.5  1.5   0.000%   0.003%   0.000%   0.000%   0.000%   0.002%   0.000%   2.974%   0.059%   2.775%
   12    6.2  1.5  1.5   0.000%   0.003%   0.000%   0.000%   0.000%   0.002%   0.000%   3.026%   0.056%   2.726%
   13    7.2  1.5  1.5   0.003%   0.000%   0.000%   0.000%   0.007%   0.000%   0.001%   0.000%   0.000%   0.000%
   14    8.2  1.5  1.5   0.000%   0.000%   0.000%   0.003%   0.000%   0.000%   7.319%   0.000%   0.000%   0.000%
   15    1.2  1.5  0.5   0.000%   0.001%   0.000%   0.000%   0.000%   0.002%   0.051%   0.004%   0.010%  51.320%
   16    2.2  1.5  0.5   0.006%   0.000%   0.000%   0.002%   0.001%   0.000%  25.757%   0.000%   0.000%   0.100%
   17    3.2  1.5  0.5   0.003%   0.000%   0.000%   0.005%   0.001%   0.000%  25.461%   0.000%   0.000%   0.003%
   18    4.2  1.5  0.5   0.000%   0.000%   0.003%   0.000%   0.000%   0.000%   0.000%   5.050%   2.287%   0.002%
   19    5.2  1.5  0.5   0.000%   0.000%   0.000%   0.003%   0.005%   0.000%   0.208%   0.000%   0.000%   0.000%
   20    6.2  1.5  0.5   0.000%   0.000%   0.000%   0.003%   0.005%   0.000%   0.199%   0.000%   0.000%   0.000%
   21    7.2  1.5  0.5   0.000%   0.000%   0.003%   0.000%   0.000%   0.000%   0.000%   3.075%   4.261%   0.001%
   22    8.2  1.5  0.5   0.000%   0.003%   0.000%   0.000%   0.000%   0.007%   0.000%   0.000%   0.002%   1.222%
   23    1.2  1.5 -0.5   0.001%   0.000%   0.000%   0.000%   0.002%   0.000%   0.001%   0.001%   0.050%   0.025%
   24    2.2  1.5 -0.5   0.000%   0.006%   0.002%   0.000%   0.000%   0.001%   0.000%   0.525%  25.660%  12.304%
   25    3.2  1.5 -0.5   0.000%   0.003%   0.005%   0.000%   0.000%   0.001%   0.000%   0.436%  24.739%  13.398%
   26    4.2  1.5 -0.5   0.000%   0.000%   0.000%   0.003%   0.000%   0.000%   3.659%   0.000%   0.000%   0.000%
   27    5.2  1.5 -0.5   0.000%   0.000%   0.003%   0.000%   0.000%   0.005%   0.000%   0.005%   0.214%   2.533%
   28    6.2  1.5 -0.5   0.000%   0.000%   0.003%   0.000%   0.000%   0.005%   0.000%   0.003%   0.187%   2.561%
   29    7.2  1.5 -0.5   0.000%   0.000%   0.000%   0.003%   0.000%   0.000%   2.869%   0.000%   0.000%   0.000%
   30    8.2  1.5 -0.5   0.003%   0.000%   0.000%   0.000%   0.007%   0.000%   0.001%   0.000%   0.000%   0.000%
   31    1.2  1.5 -1.5   0.000%   0.001%   0.009%   0.000%   0.000%   0.000%   0.000%   0.640%  33.594%   0.007%
   32    2.2  1.5 -1.5   0.003%   0.000%   0.000%   0.000%   0.002%   0.000%   0.132%   0.001%   0.068%   0.000%
   33    3.2  1.5 -1.5   0.003%   0.000%   0.000%   0.000%   0.002%   0.000%   0.119%   0.000%   0.002%   0.000%
   34    4.2  1.5 -1.5   0.000%   0.003%   0.000%   0.000%   0.000%   0.007%   0.000%   0.000%   0.000%   1.224%
   35    5.2  1.5 -1.5   0.003%   0.000%   0.000%   0.000%   0.002%   0.000%   0.009%   0.000%   0.000%   0.000%
   36    6.2  1.5 -1.5   0.003%   0.000%   0.000%   0.000%   0.002%   0.000%   0.009%   0.000%   0.000%   0.000%
   37    7.2  1.5 -1.5   0.000%   0.003%   0.000%   0.000%   0.000%   0.007%   0.000%   0.000%   0.000%   1.225%
   38    8.2  1.5 -1.5   0.000%   0.000%   0.003%   0.000%   0.000%   0.000%   0.000%   0.137%   7.205%   0.001%

   Nr   State  S   Sz      11       12       13       14       15       16       17       18       19       20

    1    1.2  0.5  0.5   0.000%   0.000%   0.002%   0.000%   0.000%   0.002%   0.000%   0.000%   0.000%   0.000%
    2    2.2  0.5  0.5   0.000%   0.000%   0.000%   0.000%   0.004%   0.000%   0.001%   0.000%   0.000%   0.000%
    3    3.2  0.5  0.5   0.000%   0.000%   0.003%   0.000%   0.000%   0.000%   0.000%   0.000%   0.000%   0.000%
    4    1.2  0.5 -0.5   0.000%   0.000%   0.000%   0.002%   0.002%   0.000%   0.000%   0.000%   0.000%   0.000%
    5    2.2  0.5 -0.5   0.000%   0.000%   0.000%   0.000%   0.000%   0.004%   0.000%   0.001%   0.000%   0.000%
    6    3.2  0.5 -0.5   0.000%   0.000%   0.000%   0.003%   0.000%   0.000%   0.000%   0.000%   0.000%   0.000%
    7    1.2  1.5  1.5   0.005%   0.096%  50.989%   0.003%   0.032%   1.413%   0.048%   0.000%   0.000%   0.000%
    8    2.2  1.5  1.5   0.000%   0.000%   0.101%   1.669%  15.799%   0.003%  23.652%   0.000%   0.000%   0.000%
    9    3.2  1.5  1.5   0.000%   0.000%   0.003%   1.671%  15.831%   0.000%  23.697%   0.000%   0.000%   0.000%
   10    4.2  1.5  1.5   1.197%   0.026%   0.067%   0.000%   0.000%   2.424%   0.000%   1.042%   0.148%  51.165%
   11    5.2  1.5  1.5   0.000%   0.000%   0.000%   0.238%   2.255%   0.000%   0.261%   0.000%   0.073%   0.000%
   12    6.2  1.5  1.5   0.000%   0.000%   0.000%   0.238%   2.255%   0.000%   0.261%   0.000%   0.074%   0.000%
   13    7.2  1.5  1.5   1.198%   0.025%   0.057%   0.000%   0.000%   2.436%   0.000%   1.043%   0.136%  47.288%
   14    8.2  1.5  1.5   0.000%   0.021%   2.436%   0.000%   0.000%   0.057%   0.000%   0.000%   0.000%   0.008%
   15    1.2  1.5  0.5   0.025%   0.001%   0.024%   0.558%   5.271%   0.059%  31.529%   0.016%   0.000%   0.000%
   16    2.2  1.5  0.5  12.115%   0.615%  11.120%   0.001%   0.010%  29.662%   0.062%   7.883%   0.000%   0.000%
   17    3.2  1.5  0.5  13.042%   0.069%  24.197%   0.000%   0.000%  16.656%   0.002%   7.895%   0.000%   0.000%
   18    4.2  1.5  0.5   0.000%   0.000%   0.000%   2.254%   0.238%   0.000%   0.000%   0.000%   0.000%   0.000%
   19    5.2  1.5  0.5   2.486%   0.058%   2.423%   0.000%   0.000%   0.067%   0.000%   0.782%   0.001%   0.219%
   20    6.2  1.5  0.5   2.501%   0.051%   2.423%   0.000%   0.000%   0.067%   0.000%   0.781%   0.001%   0.220%
   21    7.2  1.5  0.5   0.000%   0.000%   0.000%   2.274%   0.219%   0.000%   0.000%   0.000%   0.000%   0.000%
   22    8.2  1.5  0.5   0.000%   0.000%   0.000%   0.219%   2.275%   0.000%   1.045%   0.000%   0.665%   0.002%
   23    1.2  1.5 -0.5  50.257%   1.081%   0.158%   0.015%   0.068%   5.667%   0.016%  31.530%   0.000%   0.000%
   24    2.2  1.5 -0.5   0.097%   0.002%   0.000%   6.216%  34.566%   0.011%   7.883%   0.062%   0.000%   0.000%
   25    3.2  1.5 -0.5   0.003%   0.000%   0.000%  29.916%  10.938%   0.000%   7.894%   0.002%   0.000%   0.000%
   26    4.2  1.5 -0.5   0.073%   3.608%   2.426%   0.000%   0.000%   0.067%   0.000%   0.000%   0.000%   0.000%
   27    5.2  1.5 -0.5   0.000%   0.000%   0.000%   2.252%   0.238%   0.000%   0.782%   0.000%   0.220%   0.001%
   28    6.2  1.5 -0.5   0.000%   0.000%   0.000%   2.251%   0.238%   0.000%   0.782%   0.000%   0.220%   0.001%
   29    7.2  1.5 -0.5   0.108%   4.360%   2.436%   0.000%   0.000%   0.057%   0.000%   0.000%   0.000%   0.000%
   30    8.2  1.5 -0.5   1.189%   0.035%   0.057%   0.000%   0.000%   2.437%   0.000%   1.044%   0.002%   0.663%
   31    1.2  1.5 -1.5   0.017%   0.080%   0.001%  47.392%   5.003%   0.035%   0.000%   0.048%   0.000%   0.000%
   32    2.2  1.5 -1.5   8.953%  37.973%   0.472%   0.094%   0.010%  16.995%   0.000%  23.651%   0.000%   0.000%
   33    3.2  1.5 -1.5   1.217%  45.814%   0.472%   0.003%   0.000%  17.029%   0.000%  23.696%   0.000%   0.000%
   34    4.2  1.5 -1.5   0.000%   0.000%   0.000%   0.238%   2.254%   0.000%   1.042%   0.000%  51.166%   0.148%
   35    5.2  1.5 -1.5   2.317%   3.484%   0.067%   0.000%   0.000%   2.425%   0.000%   0.261%   0.000%   0.073%
   36    6.2  1.5 -1.5   3.199%   2.602%   0.067%   0.000%   0.000%   2.425%   0.000%   0.261%   0.000%   0.074%
   37    7.2  1.5 -1.5   0.000%   0.000%   0.000%   0.219%   2.275%   0.000%   1.043%   0.000%  47.285%   0.136%
   38    8.2  1.5 -1.5   0.000%   0.000%   0.000%   2.273%   0.219%   0.000%   0.000%   0.000%   0.008%   0.000%

   Nr   State  S   Sz      21       22       23       24       25       26       27       28       29       30

    1    1.2  0.5  0.5   0.000%   0.000%   0.000%   0.000%   0.000%   0.000%   0.000%   0.000%   0.000%   0.000%
    2    2.2  0.5  0.5   0.000%   0.000%   0.000%   0.000%   0.000%   0.000%   0.000%   0.000%   0.000%   0.000%
    3    3.2  0.5  0.5   0.000%   0.000%   0.000%   0.000%   0.000%   0.000%   0.000%   0.000%   0.000%   0.000%
    4    1.2  0.5 -0.5   0.000%   0.000%   0.000%   0.000%   0.000%   0.000%   0.000%   0.000%   0.000%   0.000%
    5    2.2  0.5 -0.5   0.000%   0.000%   0.000%   0.000%   0.000%   0.000%   0.000%   0.000%   0.000%   0.000%
    6    3.2  0.5 -0.5   0.000%   0.000%   0.000%   0.000%   0.000%   0.000%   0.000%   0.000%   0.000%   0.000%
    7    1.2  1.5  1.5   0.000%   0.000%   0.000%   0.000%   0.000%   0.000%   0.000%   5.605%   0.093%   0.014%
    8    2.2  1.5  1.5   0.000%   0.000%   0.000%   0.000%   0.000%   0.000%   0.042%   0.011%   0.000%   7.035%
    9    3.2  1.5  1.5   0.000%   0.000%   0.000%   0.000%   0.000%   0.000%   0.041%   0.000%   0.000%   7.138%
   10    4.2  1.5  1.5   0.000%   0.147%   0.000%   0.000%   0.000%   0.000%   0.000%   0.000%   0.000%   0.000%
   11    5.2  1.5  1.5   5.597%   0.000%   0.000%   2.204%   0.000%  26.396%   0.104%   0.000%   0.000%  18.454%
   12    6.2  1.5  1.5   5.679%   0.000%   0.000%   2.223%   0.000%  26.294%   0.110%   0.000%   0.000%  18.098%
   13    7.2  1.5  1.5   0.000%   3.962%   0.005%   0.000%   0.001%   0.000%   0.000%   0.006%   0.000%   0.000%
   14    8.2  1.5  1.5   0.000%   0.002%  26.351%   0.000%   2.235%   0.000%   0.000%  43.349%   0.715%   0.000%
   15    1.2  1.5  0.5   0.000%   0.000%   0.000%   0.000%   0.000%   0.000%   0.000%   0.008%   0.000%   0.001%
   16    2.2  1.5  0.5   0.000%   0.000%   0.000%   0.000%   0.000%   0.000%   0.000%   4.224%   0.073%   0.000%
   17    3.2  1.5  0.5   0.000%   0.000%   0.000%   0.000%   0.000%   0.000%   0.000%   4.195%   0.065%   0.000%
   18    4.2  1.5  0.5   0.000%   0.000%   0.000%  14.875%   0.000%  13.717%  22.967%   0.000%   0.000%  21.142%
   19    5.2  1.5  0.5   0.000%  16.908%  26.301%   0.000%   2.265%   0.000%   0.000%   1.219%   0.023%   0.000%
   20    6.2  1.5  0.5   0.000%  16.920%  26.351%   0.000%   2.208%   0.000%   0.000%   1.193%   0.019%   0.000%
   21    7.2  1.5  0.5   0.004%   0.000%   0.000%   1.633%   0.000%  26.945%  16.303%   0.000%   0.000%  27.746%
   22    8.2  1.5  0.5  50.786%   0.000%   0.000%   0.000%   0.000%   0.001%   0.004%   0.000%   0.000%   0.009%
   23    1.2  1.5 -0.5   0.000%   0.000%   0.000%   0.000%   0.000%   0.000%   0.009%   0.000%   0.000%   0.000%
   24    2.2  1.5 -0.5   0.000%   0.000%   0.000%   0.000%   0.000%   0.000%   4.266%   0.000%   0.000%   0.029%
   25    3.2  1.5 -0.5   0.000%   0.000%   0.000%   0.000%   0.000%   0.000%   4.242%   0.000%   0.000%   0.020%
   26    4.2  1.5 -0.5   0.000%   0.000%  14.910%   0.000%  13.683%   0.000%   0.000%  25.200%  18.903%   0.000%
   27    5.2  1.5 -0.5  16.904%   0.000%   0.000%  26.322%   0.000%   2.244%   1.228%   0.000%   0.000%   0.011%
   28    6.2  1.5 -0.5  16.916%   0.000%   0.000%  26.372%   0.000%   2.188%   1.205%   0.000%   0.000%   0.007%
   29    7.2  1.5 -0.5   0.000%   0.004%   1.615%   0.000%  26.965%   0.000%   0.000%  14.162%  29.883%   0.000%
   30    8.2  1.5 -0.5   0.000%  50.784%   0.000%   0.000%   0.001%   0.000%   0.000%   0.003%   0.008%   0.000%
   31    1.2  1.5 -1.5   0.000%   0.000%   0.000%   0.000%   0.000%   0.000%   5.661%   0.000%   0.014%   0.034%
   32    2.2  1.5 -1.5   0.000%   0.000%   0.000%   0.000%   0.000%   0.000%   0.011%   0.117%   6.982%   0.000%
   33    3.2  1.5 -1.5   0.000%   0.000%   0.000%   0.000%   0.000%   0.000%   0.000%   0.113%   7.043%   0.000%
   34    4.2  1.5 -1.5   0.146%   0.000%   0.000%   0.000%   0.000%   0.000%   0.000%   0.000%   0.000%   0.001%
   35    5.2  1.5 -1.5   0.000%   5.595%   2.224%   0.000%  26.373%   0.000%   0.000%   0.291%  18.184%   0.000%
   36    6.2  1.5 -1.5   0.000%   5.678%   2.243%   0.000%  26.270%   0.000%   0.000%   0.302%  17.996%   0.000%
   37    7.2  1.5 -1.5   3.965%   0.000%   0.000%   0.005%   0.000%   0.001%   0.007%   0.000%   0.000%   0.000%
   38    8.2  1.5 -1.5   0.002%   0.000%   0.000%  26.364%   0.000%   2.214%  43.801%   0.000%   0.000%   0.259%

   Nr   State  S   Sz      31       32       33       34       35       36       37       38

    1    1.2  0.5  0.5   0.000%   0.000%   0.014%   0.000%   0.000%   0.009%   0.009%   0.000%
    2    2.2  0.5  0.5   0.000%   0.000%   0.000%   0.014%   0.001%   0.000%   0.000%   0.018%
    3    3.2  0.5  0.5   0.000%   0.000%   0.014%   0.000%   0.000%   0.017%   0.001%   0.000%
    4    1.2  0.5 -0.5   0.000%   0.000%   0.000%   0.014%   0.010%   0.000%   0.000%   0.008%
    5    2.2  0.5 -0.5   0.000%   0.000%   0.014%   0.000%   0.000%   0.002%   0.017%   0.000%
    6    3.2  0.5 -0.5   0.000%   0.000%   0.000%   0.014%   0.016%   0.000%   0.000%   0.002%
    7    1.2  1.5  1.5   0.000%   0.002%   0.000%   0.003%   0.000%   6.851%   0.603%   0.005%
    8    2.2  1.5  1.5   0.000%   0.755%   0.000%   1.264%   0.100%   0.013%   0.001%   2.425%
    9    3.2  1.5  1.5   0.000%   0.668%   0.000%   1.266%   0.102%   0.000%   0.000%   2.427%
   10    4.2  1.5  1.5   7.372%   0.000%  19.327%   0.000%   0.000%   1.340%  15.733%   0.000%
   11    5.2  1.5  1.5   0.000%  16.331%   0.000%   4.554%   0.707%   0.000%   0.000%  17.011%
   12    6.2  1.5  1.5   0.000%  16.681%   0.000%   4.554%   0.704%   0.000%   0.000%  17.014%
   13    7.2  1.5  1.5   7.375%   0.000%  19.359%   0.000%   0.000%   1.221%  15.875%   0.000%
   14    8.2  1.5  1.5   0.000%   0.000%   0.006%   0.000%   0.000%  16.207%   1.291%   0.000%
   15    1.2  1.5  0.5   0.004%   8.537%   0.001%   1.758%   0.029%   0.002%   0.009%   0.778%
   16    2.2  1.5  0.5   2.120%   0.017%   0.451%   0.003%   0.000%   1.003%   4.775%   0.002%
   17    3.2  1.5  0.5   2.169%   0.001%   0.469%   0.000%   0.000%   4.098%   1.671%   0.000%
   18    4.2  1.5  0.5   0.000%   0.001%   0.000%   0.000%  16.781%   0.000%   0.000%   0.681%
   19    5.2  1.5  0.5  15.291%   0.000%  14.164%   0.000%   0.000%  16.192%   1.385%   0.000%
   20    6.2  1.5  0.5  15.326%   0.000%  14.278%   0.000%   0.000%  16.004%   1.450%   0.000%
   21    7.2  1.5  0.5   0.000%   0.010%   0.000%   0.002%  16.928%   0.000%   0.000%   0.595%
   22    8.2  1.5  0.5   0.000%   7.350%   0.000%  18.567%   0.637%   0.000%   0.000%  17.204%
   23    1.2  1.5 -0.5   8.536%   0.004%   1.759%   0.001%   0.003%   0.062%   0.745%   0.009%
   24    2.2  1.5 -0.5   0.017%   2.121%   0.003%   0.449%   1.419%   0.000%   0.001%   4.360%
   25    3.2  1.5 -0.5   0.001%   2.165%   0.000%   0.467%   3.612%   0.000%   0.000%   2.158%
   26    4.2  1.5 -0.5   0.000%   0.000%   0.000%   0.000%   0.000%  16.055%   1.413%   0.000%
   27    5.2  1.5 -0.5   0.000%  15.294%   0.000%  14.164%  16.918%   0.000%   0.000%   0.662%
   28    6.2  1.5 -0.5   0.000%  15.326%   0.000%  14.278%  16.749%   0.000%   0.000%   0.707%
   29    7.2  1.5 -0.5   0.006%   0.000%   0.002%   0.000%   0.000%  16.236%   1.292%   0.000%
   30    8.2  1.5 -0.5   7.360%   0.000%  18.536%   0.000%   0.000%   1.361%  16.507%   0.000%
   31    1.2  1.5 -1.5   0.001%   0.000%   0.003%   0.000%   7.164%   0.000%   0.005%   0.291%
   32    2.2  1.5 -1.5   0.732%   0.000%   1.261%   0.000%   0.014%   0.207%   2.321%   0.001%
   33    3.2  1.5 -1.5   0.689%   0.000%   1.263%   0.000%   0.000%   0.210%   2.323%   0.000%
   34    4.2  1.5 -1.5   0.000%   7.367%   0.000%  19.295%   0.638%   0.000%   0.000%  16.471%
   35    5.2  1.5 -1.5  16.412%   0.000%   4.538%   0.000%   0.000%   1.456%  16.284%   0.000%
   36    6.2  1.5 -1.5  16.588%   0.000%   4.538%   0.000%   0.000%   1.453%  16.288%   0.000%
   37    7.2  1.5 -1.5   0.000%   7.370%   0.000%  19.327%   0.555%   0.000%   0.000%  16.577%
   38    8.2  1.5 -1.5   0.000%   0.000%   0.000%   0.006%  16.912%   0.000%   0.000%   0.596%


 Property matrices transformed in SO basis (not sym. adapted)
 ============================================================

 No matrix element <i|DMX|i> larger than 5E-7
 No matrix element <i|DMX|1> larger than 5E-7

 No matrix element <i|DMY|i> larger than 5E-7
 No matrix element <i|DMY|1> larger than 5E-7

 No matrix element <i|DMZ|i> larger than 5E-7
 No matrix element <i|DMZ|1> larger than 5E-7


 **********************************************************************************************************************************
 DATASETS  * FILE   NREC   LENGTH (MB)   RECORD NAMES
              1      21       54.22       500      700      610      900      950      970     1000      129      960     1100   
                                          VAR     GEOM    BASINP   SYMINP    ZMAT    AOBASIS   BASIS     P2S    ABASIS      S 
                                         1400     1410     1420     1200     1210     1080     1700     1600     1650     1380   
                                           T        V       ECP      H0       H01     AOSYM    OPER      SMH    MOLCAS    JKOP   
                                         1700(1)
                                         OPER   

              2       9     3844.51       500      700      610     1000      520     2100     2140     5203     5303   
                                          VAR     GEOM    BASINP    BASIS   MCVARS     RHF     MCSCF    MRCI     MRCI   

 PROGRAMS   *        TOTAL        CI        CI        CI     MULTI   RHF-SCF       INT      FILE
 CPU TIMES  *    420230.88 334992.65  70706.09  14519.76      5.16      0.70      3.05      3.32
 REAL TIME  *    425092.36 SEC
 DISK USED  *         3.81 GB (local),       11.60 GB (total)
 SF USED    *        29.99 GB
 GA USED    *         0.00 MB       (max)       0.00 MB       (current)
 **********************************************************************************************************************************

 CI/aug-cc-pWCVQZ-PP energy=   -416.101105338648

              CI              CI           MULTI         RHF-SCF
   -415.97762762   -416.49408793   -414.91368969   -415.57902153
 **********************************************************************************************************************************
 Molpro calculation terminated with 1 warning(s)
