
 Working directory              : /wrk/irikura/molpro.dIdAUDUPT1/
 Global scratch directory       : /wrk/irikura/molpro.dIdAUDUPT1/
 Wavefunction directory         : /home/irikura/wfu/
 Main file repository           : /wrk/irikura/molpro.dIdAUDUPT1/

 id        : nistki

 Nodes     nprocs
 comp-50      3
 GA implementation: MPI file
 GA implementation (serial work in mppx): MPI file

 Using customized tuning parameters: mindgm=1; mindgv=20; mindgc=4; mindgr=1; noblas=0; minvec=7
 default implementation of scratch files=sf  


 Variables initialized (1042), CPU time= 0.01 sec
 ***,Br SO-CI
                                                                                 ! active space (7/8)
                                                                                 ! doubly augmented using exponent ratio = 3.0
 memory,3000,M;
 
 gprint,orbitals,civector;
                                                                                 !gthresh,energy=1.d-10,coeff=1.d-8;
 gprint,basis
 
 symmetry,xyz
 geometry={Br};
 
 basis={spdfg,br,AWCVTZ-X2C;C; spdf,1,even,nprim=1,ratio=3.0}
 
 set,dkho=101
 
 {rhf;wf,charge=-1}
 
 NSING=3
 NTRIP=8
 
 {multi
     occ,10,12
     closed,8,6
     wf,charge=0,sym=2,spin=1;state,NSING;
     wf,charge=0,sym=2,spin=3;state,NTRIP;
     expec2,lxx,lyy,lzz
 }
 table, energy, ll
 title, Energies and &lt;L**2&gt; values
 
                                                                                 ! KL-shell uncorrelated
 core,2,3
 
 {ci;wf,sym=2,spin=1;state,NSING; save,5203.2}
 hlsdiag = energd4
 {ci;wf,sym=2,spin=3;state,NTRIP; save,5303.2}
 hlsdiag(NSING+1) = energd4
 
 table,hlsdiag
 
 lsint
 {ci;hlsmat,ls,5203.2,5303.2;print,vls=0,hls=0}                                  !compute and diagonalize SO matrix
 Commands initialized (847), CPU time= 0.01 sec, 718 directives.
 Default parameters read. Elapsed time= 0.14 sec

 Checking input...
 Passed
1


                                         ***  PROGRAM SYSTEM MOLPRO  ***
                                       Copyright, TTI GmbH Stuttgart, 2015
                                    Version 2024.1 linked Mon Jun 17 07:53:25 2024


 **********************************************************************************************************************************
 LABEL *   Br SO-CI                                                                                                                                                      
  (64 PROC) 64 bit mpp version                                                           DATE: 15-Jul-24          TIME: 08:11:39  
 **********************************************************************************************************************************

 SHA1:             0134236b472f03f1f5189f93707d8671e415b05c
 **********************************************************************************************************************************

 Memory per process:      3000 MW
 Total memory per node:   9000 MW

 GA preallocation disabled
 GA check disabled

 Variable memory set to 3000.0 MW



 ZSYMEL=XYZ

 SETTING BASIS          =    USERDEF
 SETTING DKHO           =       101.00000000                                  


 Recomputing integrals since basis changed


 Using spherical harmonics

 Library entry BR     S AWCVTZ-X2C           selected for orbital group  1
 Even tempered Br S diffuse               selected for group 1    nprim= 1    centre=  0.015    ratio= 3.000    dratio= 1.000
 Library entry BR     P AWCVTZ-X2C           selected for orbital group  1
 Even tempered Br P diffuse               selected for group 1    nprim= 1    centre=  0.012    ratio= 3.000    dratio= 1.000
 Library entry BR     D AWCVTZ-X2C           selected for orbital group  1
 Even tempered Br D diffuse               selected for group 1    nprim= 1    centre=  0.035    ratio= 3.000    dratio= 1.000
 Library entry BR     F AWCVTZ-X2C           selected for orbital group  1
 Even tempered Br F diffuse               selected for group 1    nprim= 1    centre=  0.086    ratio= 3.000    dratio= 1.000
 Library entry BR     G AWCVTZ-X2C           selected for orbital group  1


 PROGRAM * SEWARD (Integral evaluation for generally contracted gaussian basis sets)     Author: Roland Lindh, 1990

 Geometry written to block  1 of record 700

 Orientation using atomic masses  
 Molecule type: Atom
 User-specified symmetry elements: XYZ
 Symmetry elements: XYZ
 Rotational constants:       0.0000000      0.0000000      0.0000000 GHz  (calculated with average atomic masses)

 Point group  Ci  



 ATOMIC COORDINATES

 NR  ATOM    CHARGE       X              Y              Z

   1  BR     35.00    0.000000000    0.000000000    0.000000000


 BASIS DATA

   Nr Sym  Nuc  Type         Exponents   Contraction coefficients

    1.1 Ag    1  1s    10639000.000000     0.000162   -0.000052    0.000021   -0.000006    0.000000    0.000000
    2.1 Ag              1593400.000000     0.000434   -0.000141    0.000056   -0.000017    0.000000    0.000000
    3.1 Ag               362610.000000     0.001149   -0.000374    0.000149   -0.000046    0.000000    0.000000
    4.1 Ag               102700.000000     0.002874   -0.000937    0.000374   -0.000115    0.000000    0.000000
    5.1 Ag                33501.000000     0.007189   -0.002360    0.000943   -0.000290    0.000000    0.000000
    6.1 Ag                12093.000000     0.017828   -0.005897    0.002358   -0.000725    0.000000    0.000000
                           4715.900000     0.043303   -0.014657    0.005885   -0.001809    0.000000    0.000000
                           1955.600000     0.099345   -0.034866    0.014041   -0.004328    0.000000    0.000000
                            852.610000     0.201253   -0.077408    0.031638   -0.009742    0.000000    0.000000
                            387.670000     0.319197   -0.144283    0.060103   -0.018653    0.000000    0.000000
                            182.680000     0.317900   -0.198533    0.087225   -0.027067    0.000000    0.000000
                             88.245000     0.140599   -0.072533    0.032440   -0.010501    0.000000    0.000000
                             39.263000     0.013845    0.381077   -0.225890    0.074786    0.000000    0.000000
                             19.234000    -0.000839    0.576087   -0.509336    0.175340    0.000000    0.000000
                              9.405700     0.000397    0.203284   -0.110474    0.039865    0.000000    0.000000
                              4.160100    -0.000222    0.011219    0.701918   -0.330206    0.000000    0.000000
                              1.899500     0.000068    0.001044    0.547656   -0.446205    0.000000    0.000000
                              0.604720    -0.000034   -0.000170    0.039342    0.295864    1.000000    0.000000
                              0.301140     0.000022    0.000072   -0.008999    0.681012    0.000000    0.000000
                              0.125150    -0.000005   -0.000031    0.001949    0.278477    0.000000    1.000000
    7.1 Ag    1  1s           3.001500     1.000000
    8.1 Ag    1  1s           4.793200     1.000000
    9.1 Ag    1  1s           0.045593     1.000000
   10.1 Ag    1  1s           0.015198     1.000000
   11.1 Ag    1  3d0        403.830000     0.001623
                            121.170000     0.013007
                             46.345000     0.058286
                             19.721000     0.169855
                              8.862400     0.317259
                              3.996200     0.383114
                              1.763600     0.276418
                              0.706190     0.075349
                              0.263900     0.002070
   12.1 Ag    1  3d2-       403.830000     0.001623
                            121.170000     0.013007
                             46.345000     0.058286
                             19.721000     0.169855
                              8.862400     0.317259
                              3.996200     0.383114
                              1.763600     0.276418
                              0.706190     0.075349
                              0.263900     0.002070
   13.1 Ag    1  3d1+       403.830000     0.001623
                            121.170000     0.013007
                             46.345000     0.058286
                             19.721000     0.169855
                              8.862400     0.317259
                              3.996200     0.383114
                              1.763600     0.276418
                              0.706190     0.075349
                              0.263900     0.002070
   14.1 Ag    1  3d2+       403.830000     0.001623
                            121.170000     0.013007
                             46.345000     0.058286
                             19.721000     0.169855
                              8.862400     0.317259
                              3.996200     0.383114
                              1.763600     0.276418
                              0.706190     0.075349
                              0.263900     0.002070
   15.1 Ag    1  3d1-       403.830000     0.001623
                            121.170000     0.013007
                             46.345000     0.058286
                             19.721000     0.169855
                              8.862400     0.317259
                              3.996200     0.383114
                              1.763600     0.276418
                              0.706190     0.075349
                              0.263900     0.002070
   16.1 Ag    1  3d0        403.830000     0.000000
                            121.170000     0.000000
                             46.345000     0.000000
                             19.721000     0.000000
                              8.862400     0.000000
                              3.996200     0.000000
                              1.763600     0.000000
                              0.706190     1.000000
                              0.263900     0.000000
   17.1 Ag    1  3d2-       403.830000     0.000000
                            121.170000     0.000000
                             46.345000     0.000000
                             19.721000     0.000000
                              8.862400     0.000000
                              3.996200     0.000000
                              1.763600     0.000000
                              0.706190     1.000000
                              0.263900     0.000000
   18.1 Ag    1  3d1+       403.830000     0.000000
                            121.170000     0.000000
                             46.345000     0.000000
                             19.721000     0.000000
                              8.862400     0.000000
                              3.996200     0.000000
                              1.763600     0.000000
                              0.706190     1.000000
                              0.263900     0.000000
   19.1 Ag    1  3d2+       403.830000     0.000000
                            121.170000     0.000000
                             46.345000     0.000000
                             19.721000     0.000000
                              8.862400     0.000000
                              3.996200     0.000000
                              1.763600     0.000000
                              0.706190     1.000000
                              0.263900     0.000000
   20.1 Ag    1  3d1-       403.830000     0.000000
                            121.170000     0.000000
                             46.345000     0.000000
                             19.721000     0.000000
                              8.862400     0.000000
                              3.996200     0.000000
                              1.763600     0.000000
                              0.706190     1.000000
                              0.263900     0.000000
   21.1 Ag    1  3d0        403.830000     0.000000
                            121.170000     0.000000
                             46.345000     0.000000
                             19.721000     0.000000
                              8.862400     0.000000
                              3.996200     0.000000
                              1.763600     0.000000
                              0.706190     0.000000
                              0.263900     1.000000
   22.1 Ag    1  3d2-       403.830000     0.000000
                            121.170000     0.000000
                             46.345000     0.000000
                             19.721000     0.000000
                              8.862400     0.000000
                              3.996200     0.000000
                              1.763600     0.000000
                              0.706190     0.000000
                              0.263900     1.000000
   23.1 Ag    1  3d1+       403.830000     0.000000
                            121.170000     0.000000
                             46.345000     0.000000
                             19.721000     0.000000
                              8.862400     0.000000
                              3.996200     0.000000
                              1.763600     0.000000
                              0.706190     0.000000
                              0.263900     1.000000
   24.1 Ag    1  3d2+       403.830000     0.000000
                            121.170000     0.000000
                             46.345000     0.000000
                             19.721000     0.000000
                              8.862400     0.000000
                              3.996200     0.000000
                              1.763600     0.000000
                              0.706190     0.000000
                              0.263900     1.000000
   25.1 Ag    1  3d1-       403.830000     0.000000
                            121.170000     0.000000
                             46.345000     0.000000
                             19.721000     0.000000
                              8.862400     0.000000
                              3.996200     0.000000
                              1.763600     0.000000
                              0.706190     0.000000
                              0.263900     1.000000
   26.1 Ag    1  3d0          1.954600     1.000000
   27.1 Ag    1  3d2-         1.954600     1.000000
   28.1 Ag    1  3d1+         1.954600     1.000000
   29.1 Ag    1  3d2+         1.954600     1.000000
   30.1 Ag    1  3d1-         1.954600     1.000000
   31.1 Ag    1  3d0          5.152200     1.000000
   32.1 Ag    1  3d2-         5.152200     1.000000
   33.1 Ag    1  3d1+         5.152200     1.000000
   34.1 Ag    1  3d2+         5.152200     1.000000
   35.1 Ag    1  3d1-         5.152200     1.000000
   36.1 Ag    1  3d0          0.104700     1.000000
   37.1 Ag    1  3d2-         0.104700     1.000000
   38.1 Ag    1  3d1+         0.104700     1.000000
   39.1 Ag    1  3d2+         0.104700     1.000000
   40.1 Ag    1  3d1-         0.104700     1.000000
   41.1 Ag    1  3d0          0.034900     1.000000
   42.1 Ag    1  3d2-         0.034900     1.000000
   43.1 Ag    1  3d1+         0.034900     1.000000
   44.1 Ag    1  3d2+         0.034900     1.000000
   45.1 Ag    1  3d1-         0.034900     1.000000
   46.1 Ag    1  5g0          2.507700     1.000000
   47.1 Ag    1  5g2-         2.507700     1.000000
   48.1 Ag    1  5g1+         2.507700     1.000000
   49.1 Ag    1  5g4+         2.507700     1.000000
   50.1 Ag    1  5g1-         2.507700     1.000000
   51.1 Ag    1  5g2+         2.507700     1.000000
   52.1 Ag    1  5g4-         2.507700     1.000000
   53.1 Ag    1  5g3+         2.507700     1.000000
   54.1 Ag    1  5g3-         2.507700     1.000000
    1.2 Au    1  2px       8676.500000     0.000923
                           2055.900000     0.005035
                            666.230000     0.023408
                            253.100000     0.084146
                            106.120000     0.222964
                             47.242000     0.388068
                             21.825000     0.353453
                              9.968400     0.108533
                              4.517100     0.004234
                              1.998200     0.001696
                              0.709880    -0.000428
                              0.281450     0.000198
                              0.102040    -0.000069
    2.2 Au    1  2py       8676.500000     0.000923
                           2055.900000     0.005035
                            666.230000     0.023408
                            253.100000     0.084146
                            106.120000     0.222964
                             47.242000     0.388068
                             21.825000     0.353453
                              9.968400     0.108533
                              4.517100     0.004234
                              1.998200     0.001696
                              0.709880    -0.000428
                              0.281450     0.000198
                              0.102040    -0.000069
    3.2 Au    1  2pz       8676.500000     0.000923
                           2055.900000     0.005035
                            666.230000     0.023408
                            253.100000     0.084146
                            106.120000     0.222964
                             47.242000     0.388068
                             21.825000     0.353453
                              9.968400     0.108533
                              4.517100     0.004234
                              1.998200     0.001696
                              0.709880    -0.000428
                              0.281450     0.000198
                              0.102040    -0.000069
    4.2 Au    1  2px       8676.500000    -0.000373
                           2055.900000    -0.002048
                            666.230000    -0.009606
                            253.100000    -0.035512
                            106.120000    -0.098129
                             47.242000    -0.182858
                             21.825000    -0.149830
                              9.968400     0.195965
                              4.517100     0.543368
                              1.998200     0.379241
                              0.709880     0.043424
                              0.281450    -0.004041
                              0.102040     0.001714
    5.2 Au    1  2py       8676.500000    -0.000373
                           2055.900000    -0.002048
                            666.230000    -0.009606
                            253.100000    -0.035512
                            106.120000    -0.098129
                             47.242000    -0.182858
                             21.825000    -0.149830
                              9.968400     0.195965
                              4.517100     0.543368
                              1.998200     0.379241
                              0.709880     0.043424
                              0.281450    -0.004041
                              0.102040     0.001714
    6.2 Au    1  2pz       8676.500000    -0.000373
                           2055.900000    -0.002048
                            666.230000    -0.009606
                            253.100000    -0.035512
                            106.120000    -0.098129
                             47.242000    -0.182858
                             21.825000    -0.149830
                              9.968400     0.195965
                              4.517100     0.543368
                              1.998200     0.379241
                              0.709880     0.043424
                              0.281450    -0.004041
                              0.102040     0.001714
    7.2 Au    1  2px       8676.500000     0.000096
                           2055.900000     0.000531
                            666.230000     0.002480
                            253.100000     0.009260
                            106.120000     0.025529
                             47.242000     0.048613
                             21.825000     0.037686
                              9.968400    -0.063104
                              4.517100    -0.187899
                              1.998200    -0.131933
                              0.709880     0.297669
                              0.281450     0.572386
                              0.102040     0.306398
    8.2 Au    1  2py       8676.500000     0.000096
                           2055.900000     0.000531
                            666.230000     0.002480
                            253.100000     0.009260
                            106.120000     0.025529
                             47.242000     0.048613
                             21.825000     0.037686
                              9.968400    -0.063104
                              4.517100    -0.187899
                              1.998200    -0.131933
                              0.709880     0.297669
                              0.281450     0.572386
                              0.102040     0.306398
    9.2 Au    1  2pz       8676.500000     0.000096
                           2055.900000     0.000531
                            666.230000     0.002480
                            253.100000     0.009260
                            106.120000     0.025529
                             47.242000     0.048613
                             21.825000     0.037686
                              9.968400    -0.063104
                              4.517100    -0.187899
                              1.998200    -0.131933
                              0.709880     0.297669
                              0.281450     0.572386
                              0.102040     0.306398
   10.2 Au    1  2px       8676.500000     0.000000
                           2055.900000     0.000000
                            666.230000     0.000000
                            253.100000     0.000000
                            106.120000     0.000000
                             47.242000     0.000000
                             21.825000     0.000000
                              9.968400     0.000000
                              4.517100     0.000000
                              1.998200     0.000000
                              0.709880     1.000000
                              0.281450     0.000000
                              0.102040     0.000000
   11.2 Au    1  2py       8676.500000     0.000000
                           2055.900000     0.000000
                            666.230000     0.000000
                            253.100000     0.000000
                            106.120000     0.000000
                             47.242000     0.000000
                             21.825000     0.000000
                              9.968400     0.000000
                              4.517100     0.000000
                              1.998200     0.000000
                              0.709880     1.000000
                              0.281450     0.000000
                              0.102040     0.000000
   12.2 Au    1  2pz       8676.500000     0.000000
                           2055.900000     0.000000
                            666.230000     0.000000
                            253.100000     0.000000
                            106.120000     0.000000
                             47.242000     0.000000
                             21.825000     0.000000
                              9.968400     0.000000
                              4.517100     0.000000
                              1.998200     0.000000
                              0.709880     1.000000
                              0.281450     0.000000
                              0.102040     0.000000
   13.2 Au    1  2px       8676.500000     0.000000
                           2055.900000     0.000000
                            666.230000     0.000000
                            253.100000     0.000000
                            106.120000     0.000000
                             47.242000     0.000000
                             21.825000     0.000000
                              9.968400     0.000000
                              4.517100     0.000000
                              1.998200     0.000000
                              0.709880     0.000000
                              0.281450     0.000000
                              0.102040     1.000000
   14.2 Au    1  2py       8676.500000     0.000000
                           2055.900000     0.000000
                            666.230000     0.000000
                            253.100000     0.000000
                            106.120000     0.000000
                             47.242000     0.000000
                             21.825000     0.000000
                              9.968400     0.000000
                              4.517100     0.000000
                              1.998200     0.000000
                              0.709880     0.000000
                              0.281450     0.000000
                              0.102040     1.000000
   15.2 Au    1  2pz       8676.500000     0.000000
                           2055.900000     0.000000
                            666.230000     0.000000
                            253.100000     0.000000
                            106.120000     0.000000
                             47.242000     0.000000
                             21.825000     0.000000
                              9.968400     0.000000
                              4.517100     0.000000
                              1.998200     0.000000
                              0.709880     0.000000
                              0.281450     0.000000
                              0.102040     1.000000
   16.2 Au    1  2px          1.933100     1.000000
   17.2 Au    1  2py          1.933100     1.000000
   18.2 Au    1  2pz          1.933100     1.000000
   19.2 Au    1  2px          4.266400     1.000000
   20.2 Au    1  2py          4.266400     1.000000
   21.2 Au    1  2pz          4.266400     1.000000
   22.2 Au    1  2px          0.035142     1.000000
   23.2 Au    1  2py          0.035142     1.000000
   24.2 Au    1  2pz          0.035142     1.000000
   25.2 Au    1  2px          0.011714     1.000000
   26.2 Au    1  2py          0.011714     1.000000
   27.2 Au    1  2pz          0.011714     1.000000
   28.2 Au    1  4f1+         0.551500     1.000000
   29.2 Au    1  4f1-         0.551500     1.000000
   30.2 Au    1  4f0          0.551500     1.000000
   31.2 Au    1  4f3+         0.551500     1.000000
   32.2 Au    1  4f2-         0.551500     1.000000
   33.2 Au    1  4f3-         0.551500     1.000000
   34.2 Au    1  4f2+         0.551500     1.000000
   35.2 Au    1  4f1+         2.080200     1.000000
   36.2 Au    1  4f1-         2.080200     1.000000
   37.2 Au    1  4f0          2.080200     1.000000
   38.2 Au    1  4f3+         2.080200     1.000000
   39.2 Au    1  4f2-         2.080200     1.000000
   40.2 Au    1  4f3-         2.080200     1.000000
   41.2 Au    1  4f2+         2.080200     1.000000
   42.2 Au    1  4f1+         7.585600     1.000000
   43.2 Au    1  4f1-         7.585600     1.000000
   44.2 Au    1  4f0          7.585600     1.000000
   45.2 Au    1  4f3+         7.585600     1.000000
   46.2 Au    1  4f2-         7.585600     1.000000
   47.2 Au    1  4f3-         7.585600     1.000000
   48.2 Au    1  4f2+         7.585600     1.000000
   49.2 Au    1  4f1+         0.258000     1.000000
   50.2 Au    1  4f1-         0.258000     1.000000
   51.2 Au    1  4f0          0.258000     1.000000
   52.2 Au    1  4f3+         0.258000     1.000000
   53.2 Au    1  4f2-         0.258000     1.000000
   54.2 Au    1  4f3-         0.258000     1.000000
   55.2 Au    1  4f2+         0.258000     1.000000
   56.2 Au    1  4f1+         0.086000     1.000000
   57.2 Au    1  4f1-         0.086000     1.000000
   58.2 Au    1  4f0          0.086000     1.000000
   59.2 Au    1  4f3+         0.086000     1.000000
   60.2 Au    1  4f2-         0.086000     1.000000
   61.2 Au    1  4f3-         0.086000     1.000000
   62.2 Au    1  4f2+         0.086000     1.000000

 NUCLEAR CHARGE:                   35
 NUMBER OF PRIMITIVE AOS:         218
 NUMBER OF SYMMETRY AOS:          184
 NUMBER OF CONTRACTIONS:          116   (   54Ag  +   62Au  )
 NUMBER OF INNER CORE ORBITALS:     5   (    2Ag  +    3Au  )
 NUMBER OF OUTER CORE ORBITALS:     9   (    6Ag  +    3Au  )
 NUMBER OF VALENCE ORBITALS:        4   (    1Ag  +    3Au  )


 NUCLEAR REPULSION ENERGY    0.00000000

 One-electron integrals computed with SEWARD

 eXact-2-Component (X2C) method activated

 Computing Douglas-Kroll / X2C integrals

 AO integral compression algorithm  1   Integral accuracy      1.0D-11

     26.739 MB (compressed) written to integral file ( 14.0%)

     Node minimum: 7.602 MB, node maximum: 9.699 MB


 NUMBER OF SORTED TWO-ELECTRON INTEGRALS:    3905163.     BUFFER LENGTH:  32768
 NUMBER OF SEGMENTS:   1  SEGMENT LENGTH:    3905163      RECORD LENGTH: 524288

 Memory used in sort:       4.46 MW

 SORT1 READ    23841670. AND WROTE      763216. INTEGRALS IN      3 RECORDS. CPU TIME:     0.09 SEC, REAL TIME:     0.10 SEC
 SORT2 READ     2334525. AND WROTE    11712051. INTEGRALS IN    111 RECORDS. CPU TIME:     0.07 SEC, REAL TIME:     0.08 SEC

 Node minimum:     3902871.  Node maximum:     3905163. integrals

 OPERATOR DM      FOR CENTER  0  COORDINATES:    0.000000    0.000000    0.000000

 EXTRA SYMMETRY OF AOS IN SYMMETRY 1:   1 1 1 1 1 1 1 1 1 1   2 3 4 5 6 2 3 4 5 6   2 3 4 5 6 2 3 4 5 6   2 3 4 5 6 2 3 4 5 6
                                        2 3 4 5 6 7 8 91011  12131415
 EXTRA SYMMETRY OF AOS IN SYMMETRY 2:   1 2 3 1 2 3 1 2 3 1   2 3 1 2 3 1 2 3 1 2   3 1 2 3 1 2 3 4 5 6   7 8 910 4 5 6 7 8 9
                                       10 4 5 6 7 8 910 4 5   6 7 8 910 4 5 6 7 8   910

 Eigenvalues of metric

         1 0.102E-03 0.210E-02 0.144E-01 0.402E-01 0.402E-01 0.402E-01 0.402E-01 0.402E-01
         2 0.345E-02 0.345E-02 0.345E-02 0.121E-01 0.121E-01 0.121E-01 0.678E-01 0.678E-01


 **********************************************************************************************************************************
 DATASETS  * FILE   NREC   LENGTH (MB)   RECORD NAMES
              1      22       29.21       500      610      700      900      950      970     1000      129      960     1700   
                                          VAR    BASINP    GEOM    SYMINP    ZMAT    AOBASIS   BASIS     P2S    ABASIS    OPER   
                                         1101     1401     1411     1412     1650     1100     1400     1410     1200     1210   
                                          SR      EKINR    POTR     PVPR    MOLCAS      S      EKIN      POT      H0       H01  
                                         1080     1600   
                                         AOSYM     SMH  

 PROGRAMS   *        TOTAL       INT
 CPU TIMES  *         1.82      1.66
 REAL TIME  *         3.13 SEC
 DISK USED  *        29.56 MB (local),      139.21 MB (total)
 GA USED    *         0.00 MB       (max)       0.00 MB       (current)
 **********************************************************************************************************************************


 Program * Restricted Hartree-Fock


   Atom=BR basis=MINAO             lmin=0  lmax=2

 Orbital guess generated from atomic densities.

 Initial occupancy:   9   9

 NELEC=   36   SYM=1   MS2= 0   THRE=1.0D-08   THRD=3.2D-06   THRG=3.2D-06  HFMA2=F  DIIS_START=2   DIIS_MAX=10   DIIS_INCORE=F

 Level shifts:    0.00 (CLOSED)    0.00 (OPEN)    0.30 (GAP_MIN)

 ITER           ETOT              DE          GRAD        DDIFF     DIIS  NEXP   TIME(IT)  TIME(TOT)  DIAG
   1    -2604.54209545   -2604.54209545     0.00D+00     0.15D+00     0     0       0.02      0.05    start
   2    -2604.58767794      -0.04558249     0.14D-01     0.14D-01     1     0       0.02      0.07    diag
   3    -2604.60065774      -0.01297980     0.10D-01     0.29D-02     2     0       0.02      0.09    diag
   4    -2604.60114833      -0.00049059     0.55D-03     0.10D-02     3     0       0.02      0.11    diag
   5    -2604.60122398      -0.00007565     0.16D-03     0.47D-03     4     0       0.02      0.13    diag
   6    -2604.60123118      -0.00000720     0.54D-04     0.19D-03     5     0       0.02      0.15    diag
   7    -2604.60123143      -0.00000025     0.68D-05     0.33D-04     6     0       0.02      0.17    diag
   8    -2604.60123145      -0.00000001     0.13D-05     0.80D-05     7     0       0.02      0.19    fixocc
   9    -2604.60123145      -0.00000000     0.25D-06     0.19D-05     8     0       0.02      0.21    diag
  10    -2604.60123145      -0.00000000     0.42D-07     0.13D-06     0     0       0.02      0.23    diag/orth

 Final occupancy:   9   9

 !RHF STATE 1.1 Energy              -2604.601231447064
  RHF One-electron energy           -3634.563802103460
  RHF Two-electron energy            1029.962570656396
  RHF Kinetic energy                 2786.461490239721
  RHF Nuclear energy                    0.000000000000
  RHF Virial quotient                  -0.934734336208

 !RHF STATE 1.1 Dipole moment           0.00000000     0.00000000     0.00000000
 Dipole moment /Debye                   0.00000000     0.00000000     0.00000000

 ELECTRON ORBITALS
 =================

  Orbital  Occupation    Energy    Cen Mu Typ  Coefficients
    1.1     2.00000  -497.89771     1  1  s    0.99998
    2.1     2.00000   -66.75911     1  2  s    0.99985
    3.1     2.00000    -9.85687     1  3  s    0.99870
    4.1     2.00000    -2.81604     1  1  d1-  0.99971
    5.1     2.00000    -2.81604     1  1  d1+  0.99973
    6.1     2.00000    -2.81604     1  1  d0   0.55972    1  1  d2+  0.82833
    7.1     2.00000    -2.81604     1  1  d0   0.82829    1  1  d2+ -0.55983
    8.1     2.00000    -2.81604     1  1  d2-  0.99966
    9.1     2.00000    -0.71240     1  4  s    0.93295
    1.2     2.00000   -58.65693     1  1  px   0.99996
    2.2     2.00000   -58.65693     1  1  pz   0.99996
    3.2     2.00000   -58.65693     1  1  py   0.99996
    4.2     2.00000    -7.20980     1  2  px   0.99964
    5.2     2.00000    -7.20980     1  2  pz   0.99964
    6.2     2.00000    -7.20980     1  2  py   0.99964
    7.2     2.00000    -0.13762     1  3  pz   0.88979
    8.2     2.00000    -0.13762     1  3  px   0.88979
    9.2     2.00000    -0.13762     1  3  py   0.88979


 HOMO      9.2    -0.137622 =      -3.7449eV
 LUMO     10.2     0.120095 =       3.2680eV
 LUMO-HOMO         0.257718 =       7.0129eV

 Orbitals saved in record  2100.2


 **********************************************************************************************************************************
 DATASETS  * FILE   NREC   LENGTH (MB)   RECORD NAMES
              1      22       29.21       500      610      700      900      950      970     1000      129      960     1700   
                                          VAR    BASINP    GEOM    SYMINP    ZMAT    AOBASIS   BASIS     P2S    ABASIS    OPER   
                                         1101     1401     1411     1412     1650     1100     1400     1410     1200     1210   
                                          SR      EKINR    POTR     PVPR    MOLCAS      S      EKIN      POT      H0       H01  
                                         1080     1600   
                                         AOSYM     SMH  

              2       4        0.49       700     1000      520     2100   
                                         GEOM     BASIS   MCVARS     RHF  

 PROGRAMS   *        TOTAL   RHF-SCF       INT
 CPU TIMES  *         2.06      0.22      1.66
 REAL TIME  *         3.41 SEC
 DISK USED  *        30.24 MB (local),      141.25 MB (total)
 GA USED    *         0.00 MB       (max)       0.00 MB       (current)
 **********************************************************************************************************************************
 SETTING NSING          =         3.00000000                                  
 SETTING NTRIP          =         8.00000000                                  

 PROGRAM * MULTI (Direct Multiconfiguration SCF)       Authors: P.J. Knowles, H.-J. Werner (1984)
                                                                D.A. Kreplin, P.J. Knowles, H.-J. Werner (2019)

 Number of closed-shell orbitals:  14 (    8    6)
 Number of active  orbitals:        8 (    2    6)
 Number of external orbitals:      94 (   44   50)

 State symmetry 1

 Number of active electrons:   7    Spin symmetry=Doublet   Space symmetry=2
 Number of states:             3
 Number of CSFs:            1204   (1980 determinants, 3920 intermediate states)

 State symmetry 2

 Number of active electrons:   7    Spin symmetry=Quartet   Space symmetry=2
 Number of states:             8
 Number of CSFs:             656   (776 determinants, 1568 intermediate states)

 Molecular orbitals read from record     2100.2  Type=RHF/CANONICAL  
 *** IN SYMMETRY 1 ORBITAL  4 SYMMETRY CONTAMINATION OF 0.214D-01 HAS BEEN REMOVED
 *** IN SYMMETRY 1 ORBITAL  5 SYMMETRY CONTAMINATION OF 0.140D-01 HAS BEEN REMOVED
 *** IN SYMMETRY 1 ORBITAL  6 SYMMETRY CONTAMINATION OF 0.410D+00 HAS BEEN REMOVED
 *** IN SYMMETRY 1 ORBITAL  7 SYMMETRY CONTAMINATION OF 0.410D+00 HAS BEEN REMOVED
 *** IN SYMMETRY 1 ORBITAL  8 SYMMETRY CONTAMINATION OF 0.229D-01 HAS BEEN REMOVED

 EXTRA SYMMETRY OF MOS IN SYMMETRY 1:   1 1 1 6 4 5 2 3 1 1   2 5 3 4 6 1 2 4 6 3   5 1 2 4 6 3 5 2 5 3   6 4 1 6 4 2 5 3 711
                                       1415 912 81013 1 2 6   4 3 5 1
 *** IN SYMMETRY 2 ORBITAL  1 SYMMETRY CONTAMINATION OF 0.236D-02 HAS BEEN REMOVED
 *** IN SYMMETRY 2 ORBITAL  2 SYMMETRY CONTAMINATION OF 0.311D-02 HAS BEEN REMOVED
 *** IN SYMMETRY 2 ORBITAL  3 SYMMETRY CONTAMINATION OF 0.473D-02 HAS BEEN REMOVED
 *** IN SYMMETRY 2 ORBITAL  5 SYMMETRY CONTAMINATION OF 0.151D-02 HAS BEEN REMOVED
 *** IN SYMMETRY 2 ORBITAL  6 SYMMETRY CONTAMINATION OF 0.151D-02 HAS BEEN REMOVED
 *** IN SYMMETRY 2 ORBITAL  7 SYMMETRY CONTAMINATION OF 0.385D-02 HAS BEEN REMOVED
 *** IN SYMMETRY 2 ORBITAL  8 SYMMETRY CONTAMINATION OF 0.222D-02 HAS BEEN REMOVED
 *** IN SYMMETRY 2 ORBITAL  9 SYMMETRY CONTAMINATION OF 0.207D-02 HAS BEEN REMOVED
 *** IN SYMMETRY 2 ORBITAL 10 SYMMETRY CONTAMINATION OF 0.632D-04 HAS BEEN REMOVED
 *** IN SYMMETRY 2 ORBITAL 12 SYMMETRY CONTAMINATION OF 0.632D-04 HAS BEEN REMOVED
 EXTRA SYMMETRY OF MOS IN SYMMETRY 2:   1 3 2 1 3 2 3 1 2 3   1 2 1 2 310 8 4 5 6   7 9 1 2 3 6 7 9 4 5   810 3 1 2 7 9 6 5 4
                                       10 810 8 6 9 7 5 4 3   1 2 6 7 9 5 410 8 1   2 3

 Wavefunction dump at record             2140.2

 Convergence thresholds  0.10E-04 (gradient)  0.10E-05 (energy)

 Weight factors for state symmetry  1:    0.09091   0.09091   0.09091
 Weight factors for state symmetry  2:    0.09091   0.09091   0.09091   0.09091   0.09091   0.09091   0.09091   0.09091
 
 Number of orbital rotations:  1092  ( 52 closed/active, 652 closed/virtual, 0 active/active, 388 active/virtual )
 Total number of variables:    13240
 
 Second-order MCSCF: L-BFGS accelerated
 
 ITER  MIC  NCI  NEG     ENERGY(VAR)    ENERGY(PROJ) ENERGY CHANGE       GRAD(0)  GRAD(ORB)   GRAD(CI)      STEP      TIME
   1   22   89    0  -2604.14992226   -2604.31628898   -0.16636672    0.45644003 0.00143775 0.00121822  0.14E+01      1.52
   2    9   40    0  -2604.26389977   -2604.28301993   -0.01912016    0.67282994 0.00020062 0.00067335  0.38E+00      2.48
   3    8   33    0  -2604.28315803   -2604.28316185   -0.00000381    0.00674168 0.00000503 0.00001557  0.10E-01      3.34
   4    7   26    0  -2604.28316185   -2604.28316185   -0.00000000    0.00000240 0.00000001 0.00000006  0.19E-03      4.15

 CONVERGENCE REACHED!  Final gradient:    0.00000001 ( 0.89E-08)
                       Final energy:  -2604.28316185
 
 Results for state 1.2 Doublet
 =============================
 !MCSCF STATE 1.2 Doublet Energy             -2604.503065420757
 Nuclear energy                                  0.00000000
 Kinetic energy                               2787.11880171
 One electron energy                         -3624.54930970
 Two electron energy                          1020.04624428
 Virial ratio                                    1.93447867
 
 !MCSCF STATE 1.2 Doublet Dipole moment          0.00000000     0.00000000     0.00000000
 Dipole moment /Debye                            0.00000000     0.00000000     0.00000000
 
 Results for state 2.2 Doublet
 =============================
 !MCSCF STATE 2.2 Doublet Energy             -2604.503065420752
 Nuclear energy                                  0.00000000
 Kinetic energy                               2787.11880171
 One electron energy                         -3624.54930970
 Two electron energy                          1020.04624428
 Virial ratio                                    1.93447867
 
 !MCSCF STATE 2.2 Doublet Dipole moment          0.00000000     0.00000000     0.00000000
 Dipole moment /Debye                            0.00000000     0.00000000     0.00000000
 
 Results for state 3.2 Doublet
 =============================
 !MCSCF STATE 3.2 Doublet Energy             -2604.503065420748
 Nuclear energy                                  0.00000000
 Kinetic energy                               2787.11880171
 One electron energy                         -3624.54930970
 Two electron energy                          1020.04624428
 Virial ratio                                    1.93447867
 
 !MCSCF STATE 3.2 Doublet Dipole moment          0.00000000     0.00000000     0.00000000
 Dipole moment /Debye                            0.00000000     0.00000000     0.00000000
 
 Results for state 1.2 Quartet
 =============================
 !MCSCF STATE 1.2 Quartet Energy             -2604.204824636044
 Nuclear energy                                  0.00000000
 Kinetic energy                               2785.78794910
 One electron energy                         -3613.22169997
 Two electron energy                          1009.01687534
 Virial ratio                                    1.93481804
 
 !MCSCF STATE 1.2 Quartet Dipole moment          0.00000000     0.00000000     0.00000000
 Dipole moment /Debye                            0.00000000     0.00000000     0.00000000
 
 Results for state 2.2 Quartet
 =============================
 !MCSCF STATE 2.2 Quartet Energy             -2604.204824636039
 Nuclear energy                                  0.00000000
 Kinetic energy                               2785.78794910
 One electron energy                         -3613.22169997
 Two electron energy                          1009.01687534
 Virial ratio                                    1.93481804
 
 !MCSCF STATE 2.2 Quartet Dipole moment          0.00000000     0.00000000     0.00000000
 Dipole moment /Debye                            0.00000000     0.00000000     0.00000000
 
 Results for state 3.2 Quartet
 =============================
 !MCSCF STATE 3.2 Quartet Energy             -2604.204824636029
 Nuclear energy                                  0.00000000
 Kinetic energy                               2785.78794910
 One electron energy                         -3613.22169997
 Two electron energy                          1009.01687534
 Virial ratio                                    1.93481804
 
 !MCSCF STATE 3.2 Quartet Dipole moment          0.00000000     0.00000000     0.00000000
 Dipole moment /Debye                            0.00000000     0.00000000     0.00000000
 
 Results for state 4.2 Quartet
 =============================
 !MCSCF STATE 4.2 Quartet Energy             -2604.198222031851
 Nuclear energy                                  0.00000000
 Kinetic energy                               2785.80534693
 One electron energy                         -3613.27252578
 Two electron energy                          1009.07430375
 Virial ratio                                    1.93480983
 
 !MCSCF STATE 4.2 Quartet Dipole moment          0.00000000     0.00000000     0.00000000
 Dipole moment /Debye                            0.00000000     0.00000000     0.00000000
 
 Results for state 5.2 Quartet
 =============================
 !MCSCF STATE 5.2 Quartet Energy             -2604.198222031845
 Nuclear energy                                  0.00000000
 Kinetic energy                               2785.80534693
 One electron energy                         -3613.27252578
 Two electron energy                          1009.07430375
 Virial ratio                                    1.93480983
 
 !MCSCF STATE 5.2 Quartet Dipole moment          0.00000000     0.00000000     0.00000000
 Dipole moment /Debye                            0.00000000     0.00000000     0.00000000
 
 Results for state 6.2 Quartet
 =============================
 !MCSCF STATE 6.2 Quartet Energy             -2604.198222031836
 Nuclear energy                                  0.00000000
 Kinetic energy                               2785.80534693
 One electron energy                         -3613.27252578
 Two electron energy                          1009.07430375
 Virial ratio                                    1.93480983
 
 !MCSCF STATE 6.2 Quartet Dipole moment          0.00000000     0.00000000     0.00000000
 Dipole moment /Debye                            0.00000000     0.00000000     0.00000000
 
 Results for state 7.2 Quartet
 =============================
 !MCSCF STATE 7.2 Quartet Energy             -2604.198222031814
 Nuclear energy                                  0.00000000
 Kinetic energy                               2785.80534693
 One electron energy                         -3613.27252578
 Two electron energy                          1009.07430374
 Virial ratio                                    1.93480983
 
 !MCSCF STATE 7.2 Quartet Dipole moment          0.00000000     0.00000000     0.00000000
 Dipole moment /Debye                            0.00000000     0.00000000     0.00000000
 
 Results for state 8.2 Quartet
 =============================
 !MCSCF STATE 8.2 Quartet Energy             -2604.198222031796
 Nuclear energy                                  0.00000000
 Kinetic energy                               2785.80534693
 One electron energy                         -3613.27252578
 Two electron energy                          1009.07430375
 Virial ratio                                    1.93480983
 
 !MCSCF STATE 8.2 Quartet Dipole moment          0.00000000     0.00000000     0.00000000
 Dipole moment /Debye                            0.00000000     0.00000000     0.00000000
 
 State-averaged charge density matrix saved on record 2140.2 (density set 1)
 
 No non-zero expectation values
 
 Expectation values for two-electron operators:
 
 ? Warning
 ? Transition properties are only calculated between states of the same symmetry
 ? The problem occurs in mu_properties_expec2

 !MCSCF expec      <1.2 Doublet|LXLX|1.2 Doublet>     0.999999825667
 !MCSCF expec      <2.2 Doublet|LXLX|2.2 Doublet>     0.999999979291
 !MCSCF expec      <3.2 Doublet|LXLX|3.2 Doublet>     0.000000195042
 !MCSCF expec      <1.2 Quartet|LXLX|1.2 Quartet>     0.999999880125
 !MCSCF expec      <2.2 Quartet|LXLX|2.2 Quartet>     0.000000452421
 !MCSCF expec      <3.2 Quartet|LXLX|3.2 Quartet>     0.999999667454
 !MCSCF expec      <4.2 Quartet|LXLX|4.2 Quartet>     1.000002753007
 !MCSCF expec      <5.2 Quartet|LXLX|5.2 Quartet>     3.999994661767
 !MCSCF expec      <6.2 Quartet|LXLX|6.2 Quartet>     1.000000820696
 !MCSCF expec      <7.2 Quartet|LXLX|7.2 Quartet>     2.249387438877
 !MCSCF expec      <8.2 Quartet|LXLX|8.2 Quartet>     1.750614325652
 
 !MCSCF expec      <1.2 Doublet|LYLY|1.2 Doublet>     0.000045156686
 !MCSCF expec      <2.2 Doublet|LYLY|2.2 Doublet>     0.999955016834
 !MCSCF expec      <3.2 Doublet|LYLY|3.2 Doublet>     0.999999826480
 !MCSCF expec      <1.2 Quartet|LYLY|1.2 Quartet>     0.000001329253
 !MCSCF expec      <2.2 Quartet|LYLY|2.2 Quartet>     0.999999879686
 !MCSCF expec      <3.2 Quartet|LYLY|3.2 Quartet>     0.999998791061
 !MCSCF expec      <4.2 Quartet|LYLY|4.2 Quartet>     3.999994137271
 !MCSCF expec      <5.2 Quartet|LYLY|5.2 Quartet>     1.000004069424
 !MCSCF expec      <6.2 Quartet|LYLY|6.2 Quartet>     1.000003207138
 !MCSCF expec      <7.2 Quartet|LYLY|7.2 Quartet>     3.593838289674
 !MCSCF expec      <8.2 Quartet|LYLY|8.2 Quartet>     0.406160296493
 
 !MCSCF expec      <1.2 Doublet|LZLZ|1.2 Doublet>     0.999955017647
 !MCSCF expec      <2.2 Doublet|LZLZ|2.2 Doublet>     0.000045003875
 !MCSCF expec      <3.2 Doublet|LZLZ|3.2 Doublet>     0.999999978478
 !MCSCF expec      <1.2 Quartet|LZLZ|1.2 Quartet>     0.999998790622
 !MCSCF expec      <2.2 Quartet|LZLZ|2.2 Quartet>     0.999999667893
 !MCSCF expec      <3.2 Quartet|LZLZ|3.2 Quartet>     0.000001541485
 !MCSCF expec      <4.2 Quartet|LZLZ|4.2 Quartet>     1.000003109721
 !MCSCF expec      <5.2 Quartet|LZLZ|5.2 Quartet>     1.000001268809
 !MCSCF expec      <6.2 Quartet|LZLZ|6.2 Quartet>     3.999995972166
 !MCSCF expec      <7.2 Quartet|LZLZ|7.2 Quartet>     0.156774271449
 !MCSCF expec      <8.2 Quartet|LZLZ|8.2 Quartet>     3.843225377854
 
 !MCSCF expec      <1.2 Doublet|L**2|1.2 Doublet>     2.000000000000
 !MCSCF expec      <2.2 Doublet|L**2|2.2 Doublet>     2.000000000000
 !MCSCF expec      <3.2 Doublet|L**2|3.2 Doublet>     2.000000000000
 !MCSCF expec      <1.2 Quartet|L**2|1.2 Quartet>     2.000000000000
 !MCSCF expec      <2.2 Quartet|L**2|2.2 Quartet>     2.000000000000
 !MCSCF expec      <3.2 Quartet|L**2|3.2 Quartet>     2.000000000000
 !MCSCF expec      <4.2 Quartet|L**2|4.2 Quartet>     6.000000000000
 !MCSCF expec      <5.2 Quartet|L**2|5.2 Quartet>     6.000000000000
 !MCSCF expec      <6.2 Quartet|L**2|6.2 Quartet>     6.000000000000
 !MCSCF expec      <7.2 Quartet|L**2|7.2 Quartet>     6.000000000000
 !MCSCF expec      <8.2 Quartet|L**2|8.2 Quartet>     6.000000000000
 
 EXTRA SYMMETRY OF MOS IN SYMMETRY 1:   1 1 1 6 4 5 3 2 1 1   1 2 3 5 6 4 2 6 4 5   3 1 2 6 4 5 3 5 3 2   6 4 1 6 4 2 5 3 715
                                       14101311 9 812 1 2 6   4 3 5 1
 EXTRA SYMMETRY OF MOS IN SYMMETRY 2:   1 3 2 1 3 2 3 1 2 3   1 2 2 1 3 810 5 4 7   9 6 1 2 3 6 7 9 5 4   810 3 1 2 7 9 6 5 4
                                        81010 8 6 7 9 5 4 3   1 2 6 7 9 810 5 4 1   2 3
 
  NATURAL ORBITALS (STATE AVERAGED)
  =================================

  Orbital  Occupation    Energy    Cen Mu Typ  Coefficients
    1.1     2.00000  -498.43032     1  1  s    0.99998
    2.1     2.00000   -67.28957     1  2  s    0.99987
    3.1     2.00000   -10.38040     1  3  s    0.99887
    4.1     2.00000    -3.34385     1  1  d1-  1.00031
    5.1     2.00000    -3.34385     1  1  d1+  1.00031
    6.1     2.00000    -3.34385     1  1  d2+  1.00031
    7.1     2.00000    -3.34385     1  1  d2-  1.00031
    8.1     2.00000    -3.34385     1  1  d0   1.00031
    9.1     1.99788    -1.17740     1  4  s    1.04465
   10.1     0.00243     0.57972     1  3  s    0.45476    1  5  s   -1.70199    1  6  s    1.36309    1  7  s    0.50083
    1.2     2.00000   -59.18678     1  1  px   0.99996
    2.2     2.00000   -59.18678     1  1  pz   0.99996
    3.2     2.00000   -59.18678     1  1  py   0.99996
    4.2     2.00000    -7.73686     1  2  px   0.99949
    5.2     2.00000    -7.73686     1  2  pz   0.99949
    6.2     2.00000    -7.73686     1  2  py   0.99949
    7.2     1.42212    -0.49011     1  3  pz   1.07539
    8.2     1.42212    -0.49011     1  3  px   1.07539
    9.2     1.42212    -0.49011     1  3  py   1.07539
   10.2     0.24444     0.02702     1  3  pz  -0.33937    1  8  pz   0.58495    1  9  pz   0.54892
   11.2     0.24444     0.02702     1  3  px  -0.33937    1  8  px   0.58495    1  9  px   0.54892
   12.2     0.24444     0.02702     1  3  py  -0.33937    1  8  py   0.58495    1  9  py   0.54892
 
 Natural orbital dump (state averaged) at molpro section 2140.2 (Orbital set 2)
 
 Transform the CI vectors
 
 CI Coefficients of symmetry 2 (Doublet)
 =======================================
 
 20 2a2000      0.00041396     -0.00014268      0.99144739
 20 a22000     -0.00664953      0.99142518      0.00014545
 20 22a000      0.99142510      0.00664959     -0.00041299
 20 2aa00b      0.00002523     -0.00000870      0.06042880
 20 aa2b00     -0.00002523      0.00000870     -0.06042880
 20 a2a00b     -0.00040529      0.06042744      0.00000887
 20 aa20b0     -0.00040529      0.06042744      0.00000887
 20 a2ab00     -0.06042744     -0.00040529      0.00002517
 20 2aa0b0     -0.06042744     -0.00040529      0.00002517
 
 Energy:    -2604.50306542  -2604.50306542  -2604.50306542
 
 
 CI Coefficients of symmetry 2 (Quartet)
 =======================================

 State:              1               2               3               4               5               6               7
 20 2aaa00     -0.00000000      0.00000000     -0.00000000      0.00001048      0.00040008      0.00014605      0.79874298
 20 aa200a     -0.00000000     -0.00000000      0.00000000     -0.00002216      0.00014545     -0.00003013     -0.25966180
 20 aa2a00      0.00024434      0.70573122     -0.00040697     -0.00067585      0.70569889     -0.00036309     -0.00040795
 20 2aa00a     -0.00024434     -0.70573122      0.00040697     -0.00067585      0.70569889     -0.00036309     -0.00040795
 20 a2aa00      0.70573091     -0.00024479     -0.00077596      0.70569878      0.00067623      0.00071796     -0.00000608
 20 2aa0a0      0.70573091     -0.00024479     -0.00077596     -0.70569879     -0.00067623     -0.00071796      0.00000608
 20 a2a00a      0.00077611      0.00040670      0.70573084      0.00071831     -0.00036232     -0.70569900      0.00013268
 20 aa20a0      0.00077611      0.00040670      0.70573084     -0.00071831      0.00036232      0.70569900     -0.00013268
 20 a2a0a0      0.00000000     -0.00000000      0.00000000     -0.00001168      0.00054553      0.00011592      0.53908118
 
 Energy:    -2604.20482464  -2604.20482464  -2604.20482464  -2604.19822203  -2604.19822203  -2604.19822203  -2604.19822203

 State:              8
 20 2aaa00     -0.16132306
 20 aa200a      0.77239329
 20 aa2a00     -0.00027007
 20 2aa00a     -0.00027007
 20 a2aa00      0.00001811
 20 2aa0a0     -0.00001811
 20 a2a00a      0.00001716
 20 aa20a0     -0.00001716
 20 a2a0a0      0.61107023
 
 Energy:    -2604.19822203
 


 **********************************************************************************************************************************
 DATASETS  * FILE   NREC   LENGTH (MB)   RECORD NAMES
              1      24       49.02       500      610      700      900      950      970     1000      129      960     1700   
                                          VAR    BASINP    GEOM    SYMINP    ZMAT    AOBASIS   BASIS     P2S    ABASIS    OPER   
                                         1101     1401     1411     1412     1650     1100     1400     1410     1200     1210   
                                          SR      EKINR    POTR     PVPR    MOLCAS      S      EKIN      POT      H0       H01  
                                         1080     1600     1380     1700(1)
                                         AOSYM     SMH     JKOP     OPER   

              2       5        0.85       700     1000      520     2100     2140   
                                         GEOM     BASIS   MCVARS     RHF     MCSCF   

 PROGRAMS   *        TOTAL     MULTI   RHF-SCF       INT
 CPU TIMES  *         5.70      3.64      0.22      1.66
 REAL TIME  *         8.06 SEC
 DISK USED  *        49.96 MB (local),      200.42 MB (total)
 SF USED    *        50.75 MB
 GA USED    *         0.00 MB       (max)       0.00 MB       (current)
 **********************************************************************************************************************************

 Energies and &lt;L**2&gt; values

          ENERGY    LL
    -2604.503065   2.0
    -2604.503065   2.0
    -2604.503065   2.0
    -2604.204825   2.0
    -2604.204825   2.0
    -2604.204825   2.0
    -2604.198222   6.0
    -2604.198222   6.0
    -2604.198222   6.0
    -2604.198222   6.0
    -2604.198222   6.0
                                                  


 PROGRAM * CI (Multireference internally contracted CI)     Authors: H.-J. Werner, P.J. Knowles, 1987


 Convergence thresholds:  THRVAR = 1.00D-08  THRDEN = 1.00D-06

 Number of optimized states: 3  Roots:    1   2   3
 Number of reference states: 3  Roots:    1   2   3

 Reference symmetry:                   2   Doublet 
 Number of electrons:                 35
 Maximum number of shells:             7
 Maximum number of spin couplings:   429

 Reference space:      554 conf     1204 CSFs
 N elec internal:    56699 conf   278292 CSFs
 N-1 el internal:    59743 conf   501108 CSFs
 N-2 el internal:    32490 conf   411156 CSFs

 Number of electrons in valence space:                     25
 Maximum number of open shell orbitals in reference space:  7
 Maximum number of open shell orbitals in internal spaces: 13


 Number of core orbitals:           5 (   2   3 )
 Number of closed-shell orbitals:   9 (   6   3 )
 Number of active  orbitals:        8 (   2   6 )
 Number of external orbitals:      94 (  44  50 )

 Molecular orbitals read from record     2140.2  Type=MCSCF/NATURAL (state averaged)

 Integral transformation finished. Total CPU:   0.14 sec, npass=  1  Memory used:   1.31 MW


 Number of p-space configurations:  30

 Reference wavefunction optimized for reference space (refopt=1)

 State     Reference Energy 
     1     -2604.50306542
     2     -2604.50306542
     3     -2604.50306542

 Number of blocks in overlap matrix:   357   Smallest eigenvalue:  0.18D-06
 Number of N-2 electron functions:     867
 Number of N-1 electron functions:  501108

 Number of internal configurations:               139300
 Number of singly external configurations:      23553720
 Number of doubly external configurations:       1917627
 Total number of contracted configurations:     25610647
 Total number of uncontracted configurations:  929259190

 Diagonal Coupling coefficients finished.               Storage:  64534671 words, CPU-Time:    255.04 seconds.
 Energy denominators for pairs finished in 1 passes.    Storage:   4964504 words, CPU-time:      0.14 seconds.

  ITER. STATE  ROOT     SQ.NORM     CORR.ENERGY   TOTAL ENERGY   ENERGY CHANGE       DEN1      VAR(S)    VAR(P)      TIME
    1     1     1     1.00000000     0.00000000 -2604.50306542     0.00000000    -0.97725968  0.42D-01  0.64D-01   291.01
    1     2     2     1.00000000     0.00000000 -2604.50306542     0.00000000    -0.97725067  0.42D-01  0.64D-01   291.01
    1     3     3     1.00000000     0.00000000 -2604.50306542     0.00000000    -0.97727386  0.42D-01  0.64D-01   291.01
    2     1     1     1.07260282    -0.81065139 -2605.31371681    -0.81065139    -0.02028159  0.36D-02  0.11D-02  2811.32
    2     2     2     1.07260381    -0.81065050 -2605.31371592    -0.81065050    -0.02027867  0.36D-02  0.11D-02  2811.32
    2     3     3     1.07260824    -0.81064799 -2605.31371341    -0.81064799    -0.02028475  0.36D-02  0.11D-02  2811.32
    3     1     1     1.06533270    -0.82976513 -2605.33283055    -0.01911374    -0.00060695  0.43D-04  0.73D-04  5325.59
    3     2     2     1.06533421    -0.82976491 -2605.33283033    -0.01911441    -0.00060697  0.43D-04  0.74D-04  5325.59
    3     3     3     1.06533452    -0.82976488 -2605.33283030    -0.01911689    -0.00060700  0.43D-04  0.74D-04  5325.59
    4     1     1     1.06624396    -0.83043667 -2605.33350209    -0.00067154    -0.00003831  0.12D-05  0.57D-05  7837.86
    4     2     2     1.06624456    -0.83043661 -2605.33350203    -0.00067170    -0.00003835  0.12D-05  0.57D-05  7837.86
    4     3     3     1.06624470    -0.83043660 -2605.33350202    -0.00067172    -0.00003836  0.12D-05  0.57D-05  7837.86
    5     1     1     1.06672170    -0.83048219 -2605.33354761    -0.00004552    -0.00000287  0.11D-06  0.39D-06 10352.58
    5     2     2     1.06672158    -0.83048219 -2605.33354761    -0.00004558    -0.00000287  0.11D-06  0.39D-06 10352.58
    5     3     3     1.06672153    -0.83048219 -2605.33354761    -0.00004558    -0.00000287  0.11D-06  0.39D-06 10352.58
    6     1     1     1.06675994    -0.83048560 -2605.33355102    -0.00000341    -0.00000022  0.11D-07  0.28D-07 12867.68
    6     2     2     1.06676000    -0.83048560 -2605.33355102    -0.00000341    -0.00000022  0.11D-07  0.28D-07 12867.68
    6     3     3     1.06675994    -0.83048559 -2605.33355102    -0.00000341    -0.00000022  0.11D-07  0.28D-07 12867.68
    7     1     1     1.06676802    -0.83048584 -2605.33355126    -0.00000025    -0.00000002  0.10D-08  0.25D-08 15380.45
    7     2     2     1.06676803    -0.83048584 -2605.33355126    -0.00000025    -0.00000002  0.10D-08  0.25D-08 15380.45
    7     3     3     1.06676802    -0.83048584 -2605.33355126    -0.00000025    -0.00000002  0.10D-08  0.25D-08 15380.45


 =====================================
 Analysis of CPU times by interactions
 =====================================

       I      S      P

 I   0.6%
 S   0.3%  47.7%
 P   0.2%  43.2%   6.0%

 Initialization:   1.7%
 Other:            0.3%

 Total CPU:    15380.5 seconds
 =====================================



 Wavefunction saved on  5203.2

 Reference coefficients greater than 0.0500000
 =============================================
 22222220222/22000           0.0416398   0.9526333   0.1270739
 2222222022222/000           0.6866961  -0.1184782   0.6631766
 222222202222/2000          -0.6723886  -0.0620045   0.6851576
 22222220222/2/00\           0.0027080   0.0619525   0.0082640
 22222220222//20\0           0.0027080   0.0619525   0.0082640

 Coefficients of fixed reference functions:
 ==========================================

 State      Coefficients
 1           0.690992    0.041900   -0.676595
 2          -0.119219    0.958593   -0.062392
 3           0.667325    0.127869    0.689444

 Coefficients of rotated reference functions:
 ============================================

 State      Coefficients
 1           0.967991   -0.000000    0.000000
 2          -0.000000    0.967991   -0.000000
 3           0.000000   -0.000000    0.967991


 RESULTS FOR STATE 1.2
 =====================

 Coefficient of reference function:   C(0) = 0.69099194 (fixed)   0.96817433 (relaxed)   0.96799074 (rotated)

 Energy contributions of configuration classes

 CLASS          SQ.NORM        ECORR1        ECORR2
 +++++++++++++++++++++++++++++++++++++++++++++++++++
 Internals    0.00043207   -0.00048508   -1.21771491
 Singles      0.01531441   -0.06557409   -0.07335742
 Pairs        0.05148246    0.53431001    0.46058649
 Total        1.06722894    0.46825084   -0.83048584
 +++++++++++++++++++++++++++++++++++++++++++++++++++


 Reference energy                   -2604.50306542
 Nuclear energy                         0.00000000
 Kinetic energy                      2787.00430592
 One electron energy                -3622.44871918
 Two electron energy                 1017.11516791
 Virial quotient                       -0.93481504
 Correlation energy                    -0.83048584
 !MRCI STATE 1.2 Energy             -2605.333551264043

 Properties without orbital relaxation:

 !MRCI STATE 1.2 Dipole moment          0.00000000     0.00000000     0.00000000
 Dipole moment /Debye                   0.00000000     0.00000000     0.00000000

 Cluster corrected energies         -2605.38938395 (Davidson, fixed reference)
 Cluster corrected energies         -2605.38904785 (Davidson, relaxed reference)
 Cluster corrected energies         -2605.38938395 (Davidson, rotated reference)

 Cluster corrected energies         -2605.38774772 (Pople, fixed reference)
 Cluster corrected energies         -2605.38740250 (Pople, relaxed reference)
 Cluster corrected energies         -2605.38774772 (Pople, rotated reference)



 RESULTS FOR STATE 2.2
 =====================

 Coefficient of reference function:   C(0) = 0.95859271 (fixed)   0.96817432 (relaxed)   0.96799074 (rotated)

 Energy contributions of configuration classes

 CLASS          SQ.NORM        ECORR1        ECORR2
 +++++++++++++++++++++++++++++++++++++++++++++++++++
 Internals    0.00043207   -0.00048508   -0.76323095
 Singles      0.01531440   -0.06557408   -0.07335741
 Pairs        0.05148247    0.04927157    0.00610252
 Total        1.06722895   -0.01678759   -0.83048584
 +++++++++++++++++++++++++++++++++++++++++++++++++++


 Reference energy                   -2604.50306542
 Nuclear energy                         0.00000000
 Kinetic energy                      2787.00430534
 One electron energy                -3622.44871837
 Two electron energy                 1017.11516710
 Virial quotient                       -0.93481504
 Correlation energy                    -0.83048584
 !MRCI STATE 2.2 Energy             -2605.333551263543

 Properties without orbital relaxation:

 !MRCI STATE 2.2 Dipole moment          0.00000000     0.00000000     0.00000000
 Dipole moment /Debye                   0.00000000     0.00000000     0.00000000

 Cluster corrected energies         -2605.38938395 (Davidson, fixed reference)
 Cluster corrected energies         -2605.38904786 (Davidson, relaxed reference)
 Cluster corrected energies         -2605.38938395 (Davidson, rotated reference)

 Cluster corrected energies         -2605.38774773 (Pople, fixed reference)
 Cluster corrected energies         -2605.38740250 (Pople, relaxed reference)
 Cluster corrected energies         -2605.38774773 (Pople, rotated reference)



 RESULTS FOR STATE 3.2
 =====================

 Coefficient of reference function:   C(0) = 0.68944374 (fixed)   0.96817433 (relaxed)   0.96799074 (rotated)

 Energy contributions of configuration classes

 CLASS          SQ.NORM        ECORR1        ECORR2
 +++++++++++++++++++++++++++++++++++++++++++++++++++
 Internals    0.00043207   -0.00048508   -0.20690381
 Singles      0.01531441   -0.06557409   -0.07335742
 Pairs        0.05148246   -0.54445685   -0.55022461
 Total        1.06722894   -0.61051602   -0.83048584
 +++++++++++++++++++++++++++++++++++++++++++++++++++


 Reference energy                   -2604.50306542
 Nuclear energy                         0.00000000
 Kinetic energy                      2787.00430589
 One electron energy                -3622.44871918
 Two electron energy                 1017.11516792
 Virial quotient                       -0.93481504
 Correlation energy                    -0.83048584
 !MRCI STATE 3.2 Energy             -2605.333551263100

 Properties without orbital relaxation:

 !MRCI STATE 3.2 Dipole moment          0.00000000     0.00000000     0.00000000
 Dipole moment /Debye                   0.00000000     0.00000000     0.00000000

 Cluster corrected energies         -2605.38938395 (Davidson, fixed reference)
 Cluster corrected energies         -2605.38904785 (Davidson, relaxed reference)
 Cluster corrected energies         -2605.38938395 (Davidson, rotated reference)

 Cluster corrected energies         -2605.38774772 (Pople, fixed reference)
 Cluster corrected energies         -2605.38740250 (Pople, relaxed reference)
 Cluster corrected energies         -2605.38774772 (Pople, rotated reference)



 **********************************************************************************************************************************
 DATASETS  * FILE   NREC   LENGTH (MB)   RECORD NAMES
              1      24       49.02       500      610      700      900      950      970     1000      129      960     1700   
                                          VAR    BASINP    GEOM    SYMINP    ZMAT    AOBASIS   BASIS     P2S    ABASIS    OPER   
                                         1101     1401     1411     1412     1650     1100     1400     1410     1200     1210   
                                          SR      EKINR    POTR     PVPR    MOLCAS      S      EKIN      POT      H0       H01  
                                         1080     1600     1380     1700(1)
                                         AOSYM     SMH     JKOP     OPER   

              2       6      594.89       700     1000      520     2100     2140     5203   
                                         GEOM     BASIS   MCVARS     RHF     MCSCF    MRCI   

 PROGRAMS   *        TOTAL        CI     MULTI   RHF-SCF       INT
 CPU TIMES  *     15669.13  15663.42      3.64      0.22      1.66
 REAL TIME  *     15755.24 SEC
 DISK USED  *       644.00 MB (local),        1.94 GB (total)
 SF USED    *         6.48 GB
 GA USED    *         0.00 MB       (max)       0.00 MB       (current)
 **********************************************************************************************************************************
 SETTING HLSDIAG(1)     =     -2605.38938395  AU                              
 SETTING HLSDIAG(2)     =     -2605.38938395  AU                              
 SETTING HLSDIAG(3)     =     -2605.38938395  AU                              


 PROGRAM * CI (Multireference internally contracted CI)     Authors: H.-J. Werner, P.J. Knowles, 1987


 Convergence thresholds:  THRVAR = 1.00D-08  THRDEN = 1.00D-06

 Number of optimized states: 8  Roots:    1   2   3   4   5   6   7   8
 Number of reference states: 8  Roots:    1   2   3   4   5   6   7   8

 Reference symmetry:                   2   Quartet 
 Number of electrons:                 35
 Maximum number of shells:             6
 Maximum number of spin couplings:   572

 Reference space:      344 conf      656 CSFs
 N elec internal:    52189 conf   229224 CSFs
 N-1 el internal:    51137 conf   453552 CSFs
 N-2 el internal:    21984 conf   385640 CSFs

 Number of electrons in valence space:                     25
 Maximum number of open shell orbitals in reference space:  7
 Maximum number of open shell orbitals in internal spaces: 13


 Number of core orbitals:           5 (   2   3 )
 Number of closed-shell orbitals:   9 (   6   3 )
 Number of active  orbitals:        8 (   2   6 )
 Number of external orbitals:      94 (  44  50 )

 Molecular orbitals read from record     2140.2  Type=MCSCF/NATURAL (state averaged)

 Coulomb and exchange operators available. No transformation done.


 Number of p-space configurations:   9

 Reference wavefunction optimized for reference space (refopt=1)

 State     Reference Energy 
     1     -2604.20482464
     2     -2604.20482464
     3     -2604.20482464
     4     -2604.19822203
     5     -2604.19822203
     6     -2604.19822203
     7     -2604.19822203
     8     -2604.19822203

 ?WARNING: SMALL EIGENVALUE OF PAIR OVERLAP MATRIX:  0.2049D-06

 Number of blocks in overlap matrix:   799   Smallest eigenvalue:  0.20D-06
 Number of N-2 electron functions:    2251
 Number of N-1 electron functions:  453552

 Number of internal configurations:               114452
 Number of singly external configurations:      21320016
 Number of doubly external configurations:       4975507
 Total number of contracted configurations:     26409975
 Total number of uncontracted configurations:  869401542

 Diagonal Coupling coefficients finished.               Storage:  86417100 words, CPU-Time:   1261.20 seconds.
 Energy denominators for pairs finished in 1 passes.    Storage:   7740905 words, CPU-time:      0.36 seconds.

  ITER. STATE  ROOT     SQ.NORM     CORR.ENERGY   TOTAL ENERGY   ENERGY CHANGE       DEN1      VAR(S)    VAR(P)      TIME
    1     1     1     1.00000000     0.00000000 -2604.20482464    -0.00000000    -0.94067410  0.33D-01  0.55D-01  1348.88
    1     2     2     1.00000000     0.00000000 -2604.20482464     0.00000000    -0.94082774  0.33D-01  0.55D-01  1348.88
    1     3     3     1.00000000     0.00000000 -2604.20482464    -0.00000000    -0.94080910  0.33D-01  0.55D-01  1348.88
    1     4     4     1.00000000     0.00000000 -2604.19822203    -0.00000000    -0.94189074  0.35D-01  0.55D-01  1348.88
    1     5     5     1.00000000     0.00000000 -2604.19822203    -0.00000000    -0.94192315  0.35D-01  0.55D-01  1348.88
    1     6     6     1.00000000     0.00000000 -2604.19822203    -0.00000000    -0.94201699  0.35D-01  0.55D-01  1348.88
    1     7     7     1.00000000     0.00000000 -2604.19822203    -0.00000000    -0.94526962  0.35D-01  0.57D-01  1348.88
    1     8     8     1.00000000     0.00000000 -2604.19822203     0.00000000    -0.94527449  0.35D-01  0.57D-01  1348.88
    2     1     1     1.06221594    -0.78967494 -2604.99449957    -0.78967494    -0.01616994  0.16D-02  0.95D-03  9005.29
    2     2     2     1.06229098    -0.78965543 -2604.99448006    -0.78965543    -0.01620977  0.16D-02  0.95D-03  9005.29
    2     3     3     1.06228227    -0.78965423 -2604.99447887    -0.78965423    -0.01620132  0.16D-02  0.95D-03  9005.29
    2     4     4     1.06323762    -0.79017872 -2604.98840075    -0.79017872    -0.01655018  0.19D-02  0.96D-03  9005.29
    2     5     5     1.06420603    -0.79016523 -2604.98838726    -0.79016523    -0.01669714  0.18D-02  0.10D-02  9005.29
    2     6     6     1.06330674    -0.79015830 -2604.98838034    -0.79015830    -0.01658584  0.19D-02  0.95D-03  9005.29
    2     7     7     1.06427108    -0.79014260 -2604.98836464    -0.79014260    -0.01673202  0.18D-02  0.10D-02  9005.29
    2     8     8     1.06326955    -0.79013484 -2604.98835687    -0.79013484    -0.01658725  0.19D-02  0.96D-03  9005.29
    3     1     1     1.05834543    -0.80510050 -2605.00992514    -0.01542557    -0.00059671  0.26D-04  0.77D-04 16662.78
    3     2     2     1.05833952    -0.80509589 -2605.00992053    -0.01544047    -0.00059868  0.26D-04  0.77D-04 16662.78
    3     3     3     1.05833366    -0.80509237 -2605.00991700    -0.01543814    -0.00060113  0.26D-04  0.78D-04 16662.78
    3     4     4     1.05895444    -0.80607619 -2605.00429822    -0.01589747    -0.00058305  0.33D-04  0.75D-04 16662.78
    3     5     5     1.05894365    -0.80606501 -2605.00428704    -0.01589978    -0.00058864  0.33D-04  0.76D-04 16662.78
    3     6     6     1.05877350    -0.80600965 -2605.00423168    -0.01585134    -0.00062174  0.35D-04  0.79D-04 16662.78
    3     7     7     1.05876327    -0.80600274 -2605.00422478    -0.01586014    -0.00062526  0.35D-04  0.79D-04 16662.78
    3     8     8     1.05875166    -0.80599660 -2605.00421863    -0.01586176    -0.00062840  0.35D-04  0.80D-04 16662.78
    4     1     1     1.05943441    -0.80582301 -2605.01064764    -0.00072250    -0.00007014  0.33D-05  0.86D-05 24270.37
    4     2     2     1.05943039    -0.80582185 -2605.01064649    -0.00072596    -0.00007092  0.33D-05  0.87D-05 24270.37
    4     3     3     1.05942898    -0.80582161 -2605.01064625    -0.00072925    -0.00007118  0.33D-05  0.87D-05 24270.37
    4     4     4     1.05985382    -0.80677362 -2605.00499565    -0.00069743    -0.00006632  0.31D-05  0.85D-05 24270.37
    4     5     5     1.05984611    -0.80677135 -2605.00499339    -0.00070634    -0.00006788  0.32D-05  0.87D-05 24270.37
    4     6     6     1.05984084    -0.80676483 -2605.00498686    -0.00075518    -0.00007310  0.35D-05  0.90D-05 24270.37
    4     7     7     1.05983691    -0.80676363 -2605.00498567    -0.00076089    -0.00007399  0.35D-05  0.91D-05 24270.37
    4     8     8     1.05983339    -0.80676263 -2605.00498466    -0.00076604    -0.00007470  0.36D-05  0.92D-05 24270.37
    5     1     1     1.06010618    -0.80591198 -2605.01073661    -0.00008897    -0.00000702  0.34D-06  0.79D-06 31868.62
    5     2     2     1.06010588    -0.80591190 -2605.01073653    -0.00009005    -0.00000709  0.34D-06  0.79D-06 31868.62
    5     3     3     1.06010670    -0.80591190 -2605.01073653    -0.00009028    -0.00000710  0.34D-06  0.79D-06 31868.62
    5     4     4     1.06052750    -0.80685800 -2605.00508003    -0.00008438    -0.00000681  0.34D-06  0.79D-06 31868.62
    5     5     5     1.06052741    -0.80685783 -2605.00507986    -0.00008647    -0.00000696  0.35D-06  0.80D-06 31868.62
    5     6     6     1.06052589    -0.80685754 -2605.00507957    -0.00009272    -0.00000738  0.37D-06  0.84D-06 31868.62
    5     7     7     1.06052535    -0.80685748 -2605.00507951    -0.00009384    -0.00000744  0.37D-06  0.84D-06 31868.62
    5     8     8     1.06052549    -0.80685739 -2605.00507943    -0.00009476    -0.00000752  0.38D-06  0.85D-06 31868.62
    6     1     1     1.06009161    -0.80592047 -2605.01074511    -0.00000850    -0.00000075  0.27D-07  0.95D-07 39465.98
    6     2     2     1.06009190    -0.80592047 -2605.01074511    -0.00000857    -0.00000074  0.27D-07  0.95D-07 39465.98
    6     3     3     1.06009168    -0.80592047 -2605.01074511    -0.00000858    -0.00000075  0.27D-07  0.95D-07 39465.98
    6     4     4     1.06051646    -0.80686647 -2605.00508850    -0.00000847    -0.00000078  0.35D-07  0.99D-07 39465.98
    6     5     5     1.06051616    -0.80686646 -2605.00508850    -0.00000864    -0.00000078  0.35D-07  0.99D-07 39465.98
    6     6     6     1.06051565    -0.80686646 -2605.00508849    -0.00000892    -0.00000079  0.35D-07  0.99D-07 39465.98
    6     7     7     1.06052028    -0.80686630 -2605.00508833    -0.00000882    -0.00000074  0.34D-07  0.96D-07 39465.98
    6     8     8     1.06051995    -0.80686629 -2605.00508832    -0.00000889    -0.00000075  0.34D-07  0.97D-07 39465.98
    7     1     1     1.06010169    -0.80592139 -2605.01074603    -0.00000092    -0.00000012  0.62D-08  0.15D-07 47061.70
    7     2     2     1.06010172    -0.80592139 -2605.01074603    -0.00000092    -0.00000012  0.62D-08  0.15D-07 47061.70
    7     3     3     1.06010199    -0.80592139 -2605.01074603    -0.00000092    -0.00000012  0.62D-08  0.15D-07 47061.70
    7     4     4     1.06052890    -0.80686743 -2605.00508946    -0.00000096    -0.00000013  0.68D-08  0.15D-07 47061.70
    7     5     5     1.06052866    -0.80686743 -2605.00508946    -0.00000097    -0.00000013  0.67D-08  0.15D-07 47061.70
    7     6     6     1.06052856    -0.80686743 -2605.00508946    -0.00000097    -0.00000013  0.68D-08  0.15D-07 47061.70
    7     7     7     1.06053087    -0.80686722 -2605.00508926    -0.00000092    -0.00000013  0.67D-08  0.15D-07 47061.70
    7     8     8     1.06053058    -0.80686722 -2605.00508925    -0.00000094    -0.00000013  0.67D-08  0.15D-07 47061.70
    8     1     1     1.06011071    -0.80592154 -2605.01074617    -0.00000015    -0.00000002  0.14D-08  0.23D-08 54658.53
    8     2     2     1.06011078    -0.80592154 -2605.01074617    -0.00000015    -0.00000002  0.14D-08  0.23D-08 54658.53
    8     3     3     1.06011070    -0.80592154 -2605.01074617    -0.00000015    -0.00000002  0.14D-08  0.23D-08 54658.53
    8     4     4     1.06053789    -0.80686758 -2605.00508962    -0.00000015    -0.00000002  0.15D-08  0.23D-08 54658.53
    8     5     5     1.06053782    -0.80686758 -2605.00508961    -0.00000015    -0.00000002  0.15D-08  0.23D-08 54658.53
    8     6     6     1.06053780    -0.80686758 -2605.00508961    -0.00000015    -0.00000002  0.15D-08  0.23D-08 54658.53
    8     7     7     1.06053821    -0.80686738 -2605.00508941    -0.00000015    -0.00000002  0.15D-08  0.23D-08 54658.53
    8     8     8     1.06053820    -0.80686738 -2605.00508941    -0.00000015    -0.00000002  0.15D-08  0.23D-08 54658.53


 =====================================
 Analysis of CPU times by interactions
 =====================================

       I      S      P

 I   0.5%
 S   0.2%  41.1%
 P   0.2%  44.2%  10.8%

 Initialization:   2.3%
 Other:            0.7%

 Total CPU:    54658.5 seconds
 =====================================



 Wavefunction saved on  5303.2

 Reference coefficients greater than 0.0500000
 =============================================
[...]

   36    6.2  1.5 -1.5  -0.000207871  -0.000119597   0.399046237  -0.051255560  -0.000145122  -0.210504114
                         0.000529939   0.000008462  -0.098198991   0.012659621  -0.000017174   0.051447675

   37    7.2  1.5 -1.5   0.000657640   0.012185093   0.028912171   0.224945024  -0.000042292   0.000039062
                         0.000471701   0.070683631  -0.043305079  -0.336456364   0.074401110   0.000046813

   38    8.2  1.5 -1.5  -0.003757571  -0.065466166   0.005202149   0.040165441  -0.000227780  -0.000005023
                        -0.002657333  -0.402752253  -0.007359920  -0.058746951  -0.426972386  -0.000092736


 Composition of spin-orbit eigenvectors
 ======================================

   Nr   State  S   Sz       1        2        3        4        5        6        7        8        9       10

    1    1.2  0.5  0.5   5.683%  24.818%  35.307%   0.853%   0.062%  33.267%   0.000%   0.000%   0.000%   0.000%
    2    2.2  0.5  0.5  58.699%   2.249%   0.862%   4.852%  32.686%   0.644%   0.000%   0.000%   0.000%   0.000%
    3    3.2  0.5  0.5   0.261%   8.313%  57.231%   0.857%   0.582%  32.748%   0.000%   0.000%   0.000%   0.000%
    4    1.2  0.5 -0.5  24.784%   5.673%   0.855%  35.350%  33.267%   0.062%   0.000%   0.000%   0.000%   0.000%
    5    2.2  0.5 -0.5   2.244%  58.682%   4.878%   0.858%   0.644%  32.686%   0.000%   0.000%   0.000%   0.000%
    6    3.2  0.5 -0.5   8.321%   0.258%   0.860%  57.223%  32.748%   0.582%   0.000%   0.000%   0.000%   0.000%
    7    1.2  1.5  1.5   0.001%   0.000%   0.000%   0.000%   0.000%   0.000%   0.099%   0.000%   0.050%   5.494%
    8    2.2  1.5  1.5   0.000%   0.000%   0.002%   0.000%   0.000%   0.000%   0.002%   0.233%   0.483%   0.178%
    9    3.2  1.5  1.5   0.001%   0.000%   0.000%   0.000%   0.000%   0.000%   0.045%   0.000%   0.032%   2.987%
   10    4.2  1.5  1.5   0.000%   0.001%   0.000%   0.000%   0.000%   0.002%   0.010%   0.485%   0.894%   0.003%
   11    5.2  1.5  1.5   0.001%   0.000%   0.000%   0.000%   0.000%   0.000%   0.053%   0.001%   0.015%   3.003%
   12    6.2  1.5  1.5   0.001%   0.000%   0.000%   0.000%   0.000%   0.000%   0.056%   0.001%   0.018%   3.134%
   13    7.2  1.5  1.5   0.000%   0.000%   0.001%   0.000%   0.000%   0.000%   0.000%   0.128%   0.269%   0.116%
   14    8.2  1.5  1.5   0.000%   0.001%   0.000%   0.000%   0.000%   0.002%   0.011%   0.417%   0.751%   0.018%
   15    1.2  1.5  0.5   0.000%   0.001%   0.001%   0.000%   0.000%   0.000%   0.182%   6.138%  11.080%   0.212%
   16    2.2  1.5  0.5   0.000%   0.000%   0.000%   0.000%   0.001%   0.000%   0.761%   0.040%   0.909%  47.926%
   17    3.2  1.5  0.5   0.000%   0.001%   0.000%   0.000%   0.000%   0.000%   0.093%   2.743%   4.749%   0.665%
   18    4.2  1.5  0.5   0.000%   0.000%   0.000%   0.001%   0.000%   0.000%   3.584%   0.083%   0.111%   0.034%
   19    5.2  1.5  0.5   0.000%   0.000%   0.001%   0.000%   0.000%   0.001%   0.012%   1.043%   1.963%   0.009%
   20    6.2  1.5  0.5   0.000%   0.000%   0.001%   0.000%   0.000%   0.001%   0.023%   0.970%   1.772%   0.021%
   21    7.2  1.5  0.5   0.001%   0.000%   0.000%   0.000%   0.002%   0.000%   0.221%   0.003%   0.024%   1.177%
   22    8.2  1.5  0.5   0.000%   0.000%   0.000%   0.001%   0.000%   0.000%   3.240%   0.053%   0.130%   0.324%
   23    1.2  1.5 -0.5   0.001%   0.000%   0.000%   0.001%   0.000%   0.000%  26.587%   0.040%   3.635%   7.140%
   24    2.2  1.5 -0.5   0.000%   0.000%   0.000%   0.000%   0.000%   0.001%   1.608%  17.584%  29.211%   0.566%
   25    3.2  1.5 -0.5   0.001%   0.000%   0.000%   0.000%   0.000%   0.000%  18.954%   0.342%   0.504%  17.489%
   26    4.2  1.5 -0.5   0.000%   0.000%   0.001%   0.000%   0.000%   0.000%   0.250%   3.569%   0.959%   0.112%
   27    5.2  1.5 -0.5   0.000%   0.000%   0.000%   0.001%   0.001%   0.000%   0.362%   0.016%   0.049%   2.691%
   28    6.2  1.5 -0.5   0.000%   0.000%   0.000%   0.001%   0.001%   0.000%   0.159%   0.004%   0.014%   2.960%
   29    7.2  1.5 -0.5   0.000%   0.001%   0.000%   0.000%   0.000%   0.002%   0.035%   0.187%   1.379%   0.002%
   30    8.2  1.5 -0.5   0.000%   0.000%   0.001%   0.000%   0.000%   0.000%   0.214%   2.774%   1.642%   0.037%
   31    1.2  1.5 -1.5   0.000%   0.001%   0.000%   0.000%   0.000%   0.000%   0.375%  40.117%   5.100%   0.026%
   32    2.2  1.5 -1.5   0.000%   0.000%   0.000%   0.002%   0.000%   0.000%  32.155%   0.002%   0.737%   0.669%
   33    3.2  1.5 -1.5   0.000%   0.001%   0.000%   0.000%   0.000%   0.000%   2.574%  16.197%  26.946%   0.085%
   34    4.2  1.5 -1.5   0.001%   0.000%   0.000%   0.000%   0.002%   0.000%   0.028%   0.002%   0.002%   1.366%
   35    5.2  1.5 -1.5   0.000%   0.001%   0.000%   0.000%   0.000%   0.000%   0.222%   2.704%   3.740%   0.009%
   36    6.2  1.5 -1.5   0.000%   0.001%   0.000%   0.000%   0.000%   0.000%   0.178%   3.981%   2.505%   0.014%
   37    7.2  1.5 -1.5   0.000%   0.000%   0.000%   0.001%   0.000%   0.000%   7.799%   0.139%   0.325%   0.046%
   38    8.2  1.5 -1.5   0.001%   0.000%   0.000%   0.000%   0.002%   0.000%   0.110%   0.002%   0.000%   1.490%

   Nr   State  S   Sz      11       12       13       14       15       16       17       18       19       20

    1    1.2  0.5  0.5   0.000%   0.000%   0.000%   0.000%   0.000%   0.000%   0.000%   0.000%   0.000%   0.000%
    2    2.2  0.5  0.5   0.000%   0.000%   0.000%   0.000%   0.000%   0.000%   0.000%   0.000%   0.000%   0.000%
    3    3.2  0.5  0.5   0.000%   0.000%   0.000%   0.000%   0.000%   0.000%   0.000%   0.000%   0.000%   0.000%
    4    1.2  0.5 -0.5   0.000%   0.000%   0.000%   0.000%   0.000%   0.000%   0.000%   0.000%   0.000%   0.000%
    5    2.2  0.5 -0.5   0.000%   0.000%   0.000%   0.000%   0.000%   0.000%   0.000%   0.000%   0.000%   0.000%
    6    3.2  0.5 -0.5   0.000%   0.000%   0.000%   0.000%   0.000%   0.000%   0.000%   0.000%   0.000%   0.000%
    7    1.2  1.5  1.5   0.018%  40.043%   0.000%   0.000%   0.000%   0.000%   0.000%   0.000%   0.000%   0.000%
    8    2.2  1.5  1.5  32.577%   0.091%   0.000%   0.000%   0.000%   0.000%   0.000%   0.000%   0.000%   0.000%
    9    3.2  1.5  1.5   0.101%  42.722%   0.000%   0.000%   0.000%   0.000%   0.000%   0.000%   0.000%   0.000%
   10    4.2  1.5  1.5   0.029%   0.003%  48.623%   0.933%   0.484%   0.979%   0.077%   0.016%   0.129%   0.175%
   11    5.2  1.5  1.5   0.065%   3.604%   0.014%   0.002%   8.040%   4.802%   0.029%  20.003%   0.681%   0.728%
   12    6.2  1.5  1.5   0.093%   3.441%   0.003%   0.002%   0.616%   0.081%   0.009%  25.146%   4.707%   3.721%
   13    7.2  1.5  1.5   7.741%   0.057%   1.458%   0.028%   0.950%   2.290%   4.474%   0.037%   6.516%  13.492%
   14    8.2  1.5  1.5   0.431%   0.002%  47.991%   0.889%   0.421%   0.803%   0.088%   0.015%   0.185%   0.364%
   15    1.2  1.5  0.5  19.921%   0.201%   0.000%   0.000%   0.000%   0.000%   0.000%   0.000%   0.000%   0.000%
   16    2.2  1.5  0.5   0.119%   0.117%   0.000%   0.000%   0.000%   0.000%   0.000%   0.000%   0.000%   0.000%
   17    3.2  1.5  0.5  29.115%   0.183%   0.000%   0.000%   0.000%   0.000%   0.000%   0.000%   0.000%   0.000%
   18    4.2  1.5  0.5   0.036%   4.667%   0.003%   0.000%   1.688%   1.650%   0.014%  10.346%   9.455%   5.426%
   19    5.2  1.5  0.5   0.163%   0.009%   0.012%   0.000%   9.551%  21.304%   6.835%   0.019%   2.002%   5.979%
   20    6.2  1.5  0.5   0.407%   0.002%   0.009%   0.000%   0.997%   2.216%   3.608%   0.170%  13.334%  25.380%
   21    7.2  1.5  0.5   0.013%   0.190%   0.000%   0.024%  25.281%  11.099%   0.161%   4.804%   5.734%   3.652%
   22    8.2  1.5  0.5   0.051%   4.511%   0.003%   0.001%   4.139%   2.037%   0.018%  22.780%   0.257%   0.011%
   23    1.2  1.5 -0.5   0.288%   0.042%   0.000%   0.000%   0.000%   0.000%   0.000%   0.000%   0.000%   0.000%
   24    2.2  1.5 -0.5   0.902%   0.000%   0.000%   0.000%   0.000%   0.000%   0.000%   0.000%   0.000%   0.000%
   25    3.2  1.5 -0.5   0.223%   0.037%   0.000%   0.000%   0.000%   0.000%   0.000%   0.000%   0.000%   0.000%
   26    4.2  1.5 -0.5   3.601%   0.025%   0.000%   0.003%   1.776%   1.819%  10.929%   0.015%   5.120%   8.921%
   27    5.2  1.5 -0.5   0.069%   0.010%   0.000%   0.009%  21.594%   9.756%   0.027%   6.705%   5.718%   1.892%
   28    6.2  1.5 -0.5   0.048%   0.009%   0.000%   0.008%   2.155%   0.980%   0.164%   4.597%  24.891%  12.919%
   29    7.2  1.5 -0.5   0.026%   0.001%   0.029%   0.000%  10.952%  25.142%   5.061%   0.148%   3.697%   5.726%
   30    8.2  1.5 -0.5   3.617%   0.026%   0.001%   0.003%   2.098%   4.205%  22.495%   0.019%   0.028%   0.396%
   31    1.2  1.5 -1.5   0.084%   0.000%   0.000%   0.000%   0.000%   0.000%   0.000%   0.000%   0.000%   0.000%
   32    2.2  1.5 -1.5   0.000%   0.000%   0.000%   0.000%   0.000%   0.000%   0.000%   0.000%   0.000%   0.000%
   33    3.2  1.5 -1.5   0.086%   0.000%   0.000%   0.000%   0.000%   0.000%   0.000%   0.000%   0.000%   0.000%
   34    4.2  1.5 -1.5   0.021%   0.004%   0.934%  48.664%   0.956%   0.478%   0.016%   0.067%   0.175%   0.125%
   35    5.2  1.5 -1.5   0.065%   0.000%   0.002%   0.014%   5.050%   8.426%  19.693%   0.029%   0.571%   0.513%
   36    6.2  1.5 -1.5   0.066%   0.000%   0.002%   0.003%   0.055%   0.507%  26.256%   0.007%   3.317%   4.139%
   37    7.2  1.5 -1.5   0.000%   0.000%   0.028%   1.469%   2.364%   0.987%   0.031%   4.994%  13.116%   6.259%
   38    8.2  1.5 -1.5   0.023%   0.004%   0.887%  47.948%   0.832%   0.440%   0.016%   0.081%   0.367%   0.184%

   Nr   State  S   Sz      21       22       23       24       25       26       27       28       29       30

    1    1.2  0.5  0.5   0.000%   0.000%   0.000%   0.000%   0.000%   0.000%   0.000%   0.000%   0.000%   0.000%
    2    2.2  0.5  0.5   0.000%   0.000%   0.000%   0.001%   0.000%   0.000%   0.000%   0.000%   0.000%   0.000%
    3    3.2  0.5  0.5   0.000%   0.000%   0.000%   0.000%   0.000%   0.000%   0.000%   0.000%   0.000%   0.000%
    4    1.2  0.5 -0.5   0.000%   0.000%   0.000%   0.000%   0.000%   0.000%   0.000%   0.000%   0.000%   0.000%
    5    2.2  0.5 -0.5   0.000%   0.001%   0.000%   0.000%   0.000%   0.000%   0.000%   0.000%   0.000%   0.000%
    6    3.2  0.5 -0.5   0.000%   0.000%   0.000%   0.000%   0.000%   0.000%   0.000%   0.000%   0.000%   0.000%
    7    1.2  1.5  1.5   0.019%   0.003%   0.094%  17.563%   0.000%  23.132%   0.056%   5.973%   2.120%   0.015%
    8    2.2  1.5  1.5   0.000%   1.881%  47.059%   2.041%   0.000%   0.356%   6.454%   0.055%   0.024%   0.099%
    9    3.2  1.5  1.5   0.020%   0.014%   1.221%  15.920%   0.000%  23.478%   0.008%   6.261%   2.077%   0.008%
   10    4.2  1.5  1.5   0.007%   2.722%   0.097%   0.007%   1.213%   0.000%   0.002%   0.011%   0.009%   0.269%
   11    5.2  1.5  1.5   0.003%   0.001%   0.210%   2.618%   0.001%   0.303%   0.016%  14.486%   5.238%   0.147%
   12    6.2  1.5  1.5   0.003%   0.002%   0.205%   2.622%   0.000%   0.304%   0.013%  12.073%   3.943%   0.161%
   13    7.2  1.5  1.5   0.000%   0.001%   2.625%   0.206%   0.036%   0.000%  40.982%   0.030%   0.004%   0.639%
   14    8.2  1.5  1.5   0.007%   2.822%   0.002%   0.001%   1.178%   0.000%   1.152%   0.001%   0.002%   0.331%
   15    1.2  1.5  0.5   0.067%  29.464%   8.410%   1.602%   7.710%   0.468%   4.904%   0.005%   0.000%   0.137%
   16    2.2  1.5  0.5   0.003%   0.547%   1.021%   4.672%   0.119%  30.835%   0.087%   0.017%   0.027%   0.095%
   17    3.2  1.5  0.5   0.061%  15.204%  23.238%   1.547%   7.826%   0.007%   4.769%   0.004%   0.002%   0.214%
   18    4.2  1.5  0.5   2.820%   0.006%   0.005%   0.002%   0.001%   0.000%   0.019%   3.974%  38.743%   0.010%
   19    5.2  1.5  0.5   0.002%   0.104%   2.520%   0.206%   0.910%   0.000%   1.251%   0.006%   0.017%   0.757%
   20    6.2  1.5  0.5   0.000%   0.103%   2.524%   0.206%   0.911%   0.000%   1.090%   0.001%   0.004%   0.444%
   21    7.2  1.5  0.5   0.119%   0.004%   0.194%   2.516%   0.000%   1.178%   0.002%   1.368%   0.085%   0.059%
   22    8.2  1.5  0.5   2.707%   0.006%   0.012%   0.109%   0.000%   0.036%   0.026%  39.779%   1.624%   0.011%
   23    1.2  1.5 -0.5  18.060%   0.395%   1.312%  19.776%   0.468%   7.711%   0.001%   1.337%   3.729%   0.007%
   24    2.2  1.5 -0.5   0.425%   5.218%   0.358%   0.242%  30.835%   0.119%   0.002%   0.020%   0.077%   0.399%
   25    3.2  1.5 -0.5  15.785%   0.007%   1.859%  22.399%   0.007%   7.826%   0.000%   1.195%   3.587%   0.032%
   26    4.2  1.5 -0.5   0.002%   0.104%   2.520%   0.207%   0.000%   0.001%  13.618%   0.003%   0.016%  27.910%
   27    5.2  1.5 -0.5   2.820%   0.006%   0.005%   0.002%   0.000%   0.910%   0.005%   0.250%   1.295%   0.046%
   28    6.2  1.5 -0.5   2.822%   0.007%   0.001%   0.003%   0.000%   0.911%   0.000%   0.415%   0.551%   0.148%
   29    7.2  1.5 -0.5   0.007%   2.822%   0.002%   0.001%   1.178%   0.000%   0.797%   0.001%   0.001%   0.957%
   30    8.2  1.5 -0.5   0.000%   0.001%   2.625%   0.206%   0.036%   0.000%  23.842%   0.026%   0.000%  16.701%
   31    1.2  1.5 -1.5   0.441%  16.593%   0.639%   0.006%  23.132%   0.000%   0.130%   0.017%   0.063%   7.400%
   32    2.2  1.5 -1.5  50.904%   0.020%   0.001%   0.056%   0.356%   0.000%   0.001%   1.679%   4.854%   0.091%
   33    3.2  1.5 -1.5   0.051%  16.489%   0.623%   0.011%  23.478%   0.000%   0.151%   0.001%   0.003%   8.068%
   34    4.2  1.5 -1.5   0.003%   0.001%   0.211%   2.618%   0.000%   1.213%   0.000%   0.013%   0.019%   0.151%
   35    5.2  1.5 -1.5   0.007%   2.722%   0.097%   0.007%   0.303%   0.001%   0.325%   0.002%   0.005%  23.599%
   36    6.2  1.5 -1.5   0.008%   2.721%   0.103%   0.002%   0.304%   0.000%   0.291%   0.001%   0.005%  11.021%
   37    7.2  1.5 -1.5   2.706%   0.006%   0.012%   0.109%   0.000%   0.036%   0.002%  10.735%  30.993%   0.005%
   38    8.2  1.5 -1.5   0.119%   0.004%   0.194%   2.516%   0.000%   1.178%   0.000%   0.262%   0.882%   0.073%

   Nr   State  S   Sz      31       32       33       34       35       36       37       38

    1    1.2  0.5  0.5   0.000%   0.000%   0.003%   0.000%   0.001%   0.000%   0.000%   0.003%
    2    2.2  0.5  0.5   0.000%   0.000%   0.000%   0.004%   0.000%   0.000%   0.003%   0.000%
    3    3.2  0.5  0.5   0.000%   0.000%   0.003%   0.000%   0.001%   0.000%   0.000%   0.003%
    4    1.2  0.5 -0.5   0.000%   0.000%   0.000%   0.001%   0.000%   0.003%   0.003%   0.000%
    5    2.2  0.5 -0.5   0.000%   0.000%   0.000%   0.000%   0.004%   0.000%   0.000%   0.003%
    6    3.2  0.5 -0.5   0.000%   0.000%   0.000%   0.001%   0.000%   0.003%   0.003%   0.000%
    7    1.2  1.5  1.5   0.908%   0.000%   0.114%   2.803%   0.000%   0.000%   1.495%   0.000%
    8    2.2  1.5  1.5   0.025%   0.006%   8.380%   0.030%   0.000%   0.000%   0.023%   0.000%
    9    3.2  1.5  1.5   0.755%   0.001%   0.002%   2.832%   0.000%   0.000%   1.517%   0.000%
   10    4.2  1.5  1.5   0.028%   6.851%   0.000%   0.013%  16.874%   0.279%   0.003%  18.771%
   11    5.2  1.5  1.5  14.046%   0.018%   0.002%  17.152%   0.013%   0.000%   4.693%   0.014%
   12    6.2  1.5  1.5  17.780%   0.000%   0.002%  17.165%   0.000%   0.000%   4.696%   0.000%
   13    7.2  1.5  1.5   0.013%   0.189%  16.652%   0.002%   0.504%   0.008%   0.000%   0.554%
   14    8.2  1.5  1.5   0.006%   6.713%   0.512%   0.000%  16.383%   0.271%   0.000%  18.231%
   15    1.2  1.5  0.5   0.156%   2.289%   2.793%   0.019%   3.652%   0.060%   0.030%   0.498%
   16    2.2  1.5  0.5   9.646%   0.029%   0.048%   0.925%   0.056%   0.001%   1.992%   0.008%
   17    3.2  1.5  0.5   0.005%   2.460%   2.823%   0.001%   3.722%   0.062%   0.000%   0.506%
   18    4.2  1.5  0.5   0.143%   0.000%   0.013%   0.000%   0.279%  16.875%   0.000%   0.010%
   19    5.2  1.5  0.5   0.015%  14.065%  17.152%   0.002%   0.000%   0.012%   0.000%  14.078%
   20    6.2  1.5  0.5   0.007%  14.545%  17.164%   0.002%   0.000%   0.000%   0.000%  14.088%
   21    7.2  1.5  0.5   6.692%   0.000%   0.002%  16.650%   0.008%   0.506%  18.230%   0.000%
   22    8.2  1.5  0.5   0.415%   0.000%   0.000%   0.514%   0.271%  16.381%   0.553%   0.000%
   23    1.2  1.5 -0.5   2.264%   0.153%   0.000%   3.711%   0.010%   2.803%   0.498%   0.030%
   24    2.2  1.5 -0.5   0.018%   9.384%   0.000%   0.057%   0.966%   0.007%   0.008%   1.992%
   25    3.2  1.5 -0.5   2.638%   0.003%   0.000%   3.784%   0.045%   2.778%   0.506%   0.000%
   26    4.2  1.5 -0.5   0.181%   1.162%  17.152%   0.002%   0.000%   0.012%   0.010%   0.000%
   27    5.2  1.5 -0.5  14.511%   0.004%   0.013%   0.000%   0.279%  16.875%  14.078%   0.000%
   28    6.2  1.5 -0.5  14.977%   0.000%   0.000%   0.000%   0.279%  16.888%  14.088%   0.000%
   29    7.2  1.5 -0.5   0.011%   6.438%   0.512%   0.000%  16.383%   0.271%   0.000%  18.230%
   30    8.2  1.5 -0.5   0.130%   1.158%  16.652%   0.002%   0.504%   0.008%   0.000%   0.553%
   31    1.2  1.5 -1.5   0.060%   1.402%   0.000%   0.000%   2.600%   0.317%   0.000%   1.495%
   32    2.2  1.5 -1.5   0.015%   0.023%   0.000%   0.000%   0.329%   8.081%   0.000%   0.023%
   33    3.2  1.5 -1.5   0.074%   0.812%   0.000%   0.000%   2.782%   0.052%   0.000%   1.517%
   34    4.2  1.5 -1.5   6.978%   0.011%   0.002%  17.151%   0.013%   0.000%  18.770%   0.003%
   35    5.2  1.5 -1.5   0.314%   9.706%   0.000%   0.013%  16.874%   0.280%   0.014%   4.692%
   36    6.2  1.5 -1.5   0.083%  22.570%   0.000%   0.000%  16.888%   0.279%   0.000%   4.696%
   37    7.2  1.5 -1.5   0.117%   0.005%   0.000%   0.514%   0.271%  16.380%   0.554%   0.000%
   38    8.2  1.5 -1.5   6.989%   0.001%   0.002%  16.650%   0.008%   0.506%  18.231%   0.000%


 Property matrices transformed in SO basis (not sym. adapted)
 ============================================================

 No matrix element <i|DMX|i> larger than 5E-7
 No matrix element <i|DMX|1> larger than 5E-7

 No matrix element <i|DMY|i> larger than 5E-7
 No matrix element <i|DMY|1> larger than 5E-7

 No matrix element <i|DMZ|i> larger than 5E-7
 No matrix element <i|DMZ|1> larger than 5E-7


 **********************************************************************************************************************************
 DATASETS  * FILE   NREC   LENGTH (MB)   RECORD NAMES
              1      24      267.10       500      610      700      900      950      970     1000      129      960     1700   
                                          VAR    BASINP    GEOM    SYMINP    ZMAT    AOBASIS   BASIS     P2S    ABASIS    OPER   
                                         1101     1401     1411     1412     1650     1100     1400     1410     1200     1210   
                                          SR      EKINR    POTR     PVPR    MOLCAS      S      EKIN      POT      H0       H01  
                                         1080     1600     1380     1700(1)
                                         AOSYM     SMH     JKOP     OPER   

              2       7     2227.50       700     1000      520     2100     2140     5203     5303   
                                         GEOM     BASIS   MCVARS     RHF     MCSCF    MRCI     MRCI   

 PROGRAMS   *        TOTAL        CI     LSINT        CI        CI     MULTI   RHF-SCF       INT
 CPU TIMES  *    367506.39 290848.96      8.52  60979.73  15663.42      3.64      0.22      1.66
 REAL TIME  *    369367.85 SEC
 DISK USED  *         2.22 GB (local),        7.43 GB (total)
 SF USED    *        17.37 GB
 GA USED    *         0.00 MB       (max)       0.00 MB       (current)
 **********************************************************************************************************************************

 CI/USERDEF energy=  -2605.044116265224

              CI              CI           MULTI         RHF-SCF
  -2605.00508941  -2605.33355126  -2604.19822203  -2604.60123145
 **********************************************************************************************************************************
 Molpro calculation terminated with 1 warning(s)
