
 Working directory              : /wrk/irikura/molpro.fSf4y2nIK9/
 Global scratch directory       : /wrk/irikura/molpro.fSf4y2nIK9/
 Wavefunction directory         : /home/irikura/wfu/
 Main file repository           : /wrk/irikura/molpro.fSf4y2nIK9/

 id        : nistki

 Nodes     nprocs
 comp-12      3
 GA implementation: MPI file
 GA implementation (serial work in mppx): MPI file

 Using customized tuning parameters: mindgm=1; mindgv=20; mindgc=4; mindgr=1; noblas=0; minvec=7
 default implementation of scratch files=sf  


 Variables initialized (1042), CPU time= 0.00 sec
 ***,Br SO-CI
                                                                                 ! active space (7/8)
 memory,3000,M;
 
 gprint,orbitals,civector;
                                                                                 !gthresh,energy=1.d-10,coeff=1.d-8;
 
 symmetry,xyz
 geometry={Br};
 
 basis=cc-pwCVTZ-X2C
 
 set,dkho=101
 
 {rhf;wf,charge=-1}
 
 NSING=3
 NTRIP=8
 
 {multi
     occ,10,12
     closed,8,6
     wf,charge=0,sym=2,spin=1;state,NSING;
     wf,charge=0,sym=2,spin=3;state,NTRIP;
     expec2,lxx,lyy,lzz
 }
 table, energy, ll
 title, Energies and &lt;L**2&gt; values
 
                                                                                 ! KL-shell uncorrelated
 core,2,3
 
 {ci;wf,sym=2,spin=1;state,NSING; save,5203.2}
 hlsdiag = energd4
 {ci;wf,sym=2,spin=3;state,NTRIP; save,5303.2}
 hlsdiag(NSING+1) = energd4
 
 table,hlsdiag
 
 lsint
 {ci;hlsmat,ls,5203.2,5303.2;print,vls=0,hls=0}                                  !compute and diagonalize SO matrix
 Commands initialized (847), CPU time= 0.01 sec, 718 directives.
 Default parameters read. Elapsed time= 0.12 sec

 Checking input...
 Passed
1


                                         ***  PROGRAM SYSTEM MOLPRO  ***
                                       Copyright, TTI GmbH Stuttgart, 2015
                                    Version 2024.1 linked Mon Jun 17 07:53:25 2024


 **********************************************************************************************************************************
 LABEL *   Br SO-CI                                                                                                                                                      
  (64 PROC) 64 bit mpp version                                                           DATE: 08-Jul-24          TIME: 13:09:58  
 **********************************************************************************************************************************

 SHA1:             0134236b472f03f1f5189f93707d8671e415b05c
 **********************************************************************************************************************************

 Memory per process:      3000 MW
 Total memory per node:   9000 MW

 GA preallocation disabled
 GA check disabled

 Variable memory set to 3000.0 MW


 ZSYMEL=XYZ

 SETTING BASIS          =    CC-PWCVTZ-X2C
 SETTING DKHO           =       101.00000000                                  


 Recomputing integrals since basis changed


 Using spherical harmonics

 Library entry BR     S cc-pwCVTZ-X2C        selected for orbital group  1
 Library entry BR     P cc-pwCVTZ-X2C        selected for orbital group  1
 Library entry BR     D cc-pwCVTZ-X2C        selected for orbital group  1
 Library entry BR     F cc-pwCVTZ-X2C        selected for orbital group  1
 Library entry BR     G cc-pwCVTZ-X2C        selected for orbital group  1


 PROGRAM * SEWARD (Integral evaluation for generally contracted gaussian basis sets)     Author: Roland Lindh, 1990

 Geometry written to block  1 of record 700

 Orientation using atomic masses  
 Molecule type: Atom
 User-specified symmetry elements: XYZ
 Symmetry elements: XYZ
 Rotational constants:       0.0000000      0.0000000      0.0000000 GHz  (calculated with average atomic masses)

 Point group  Ci  



 ATOMIC COORDINATES

 NR  ATOM    CHARGE       X              Y              Z

   1  BR     35.00    0.000000000    0.000000000    0.000000000

 NUCLEAR CHARGE:                   35
 NUMBER OF PRIMITIVE AOS:         178
 NUMBER OF SYMMETRY AOS:          152
 NUMBER OF CONTRACTIONS:           84   (   42Ag  +   42Au  )
 NUMBER OF INNER CORE ORBITALS:     5   (    2Ag  +    3Au  )
 NUMBER OF OUTER CORE ORBITALS:     9   (    6Ag  +    3Au  )
 NUMBER OF VALENCE ORBITALS:        4   (    1Ag  +    3Au  )


 NUCLEAR REPULSION ENERGY    0.00000000

 One-electron integrals computed with SEWARD

 eXact-2-Component (X2C) method activated

 Computing Douglas-Kroll / X2C integrals

 AO integral compression algorithm  1   Integral accuracy      1.0D-11

     7.864 MB (compressed) written to integral file ( 15.8%)

     Node minimum: 2.097 MB, node maximum: 2.884 MB


 NUMBER OF SORTED TWO-ELECTRON INTEGRALS:    1088115.     BUFFER LENGTH:  32768
 NUMBER OF SEGMENTS:   1  SEGMENT LENGTH:    1088115      RECORD LENGTH: 524288

 Memory used in sort:       1.65 MW

 SORT1 READ     6107234. AND WROTE      213124. INTEGRALS IN      1 RECORDS. CPU TIME:     0.02 SEC, REAL TIME:     0.03 SEC
 SORT2 READ      645328. AND WROTE     3262539. INTEGRALS IN     33 RECORDS. CPU TIME:     0.03 SEC, REAL TIME:     0.03 SEC

 Node minimum:     1086911.  Node maximum:     1088115. integrals

 OPERATOR DM      FOR CENTER  0  COORDINATES:    0.000000    0.000000    0.000000

 EXTRA SYMMETRY OF AOS IN SYMMETRY 1:   1 1 1 1 1 1 1 1 2 3   4 5 6 2 3 4 5 6 2 3   4 5 6 2 3 4 5 6 2 3   4 5 6 7 8 910111213
                                       1415
 EXTRA SYMMETRY OF AOS IN SYMMETRY 2:   1 2 3 1 2 3 1 2 3 1   2 3 1 2 3 1 2 3 1 2   3 4 5 6 7 8 910 4 5   6 7 8 910 4 5 6 7 8
                                        910

 Eigenvalues of metric

         1 0.119E-03 0.342E-02 0.205E-01 0.418E-01 0.418E-01 0.418E-01 0.418E-01 0.418E-01
         2 0.360E-02 0.360E-02 0.360E-02 0.167E-01 0.167E-01 0.167E-01 0.839E-01 0.839E-01


 **********************************************************************************************************************************
 DATASETS  * FILE   NREC   LENGTH (MB)   RECORD NAMES
              1      22       28.97       500      610      700      900      950      970     1000      129      960     1700   
                                          VAR    BASINP    GEOM    SYMINP    ZMAT    AOBASIS   BASIS     P2S    ABASIS    OPER   
                                         1101     1401     1411     1412     1650     1100     1400     1410     1200     1210   
                                          SR      EKINR    POTR     PVPR    MOLCAS      S      EKIN      POT      H0       H01  
                                         1080     1600   
                                         AOSYM     SMH  

 PROGRAMS   *        TOTAL       INT
 CPU TIMES  *         0.95      0.81
 REAL TIME  *         2.30 SEC
 DISK USED  *        29.31 MB (local),      103.69 MB (total)
 GA USED    *         0.00 MB       (max)       0.00 MB       (current)
 **********************************************************************************************************************************


 Program * Restricted Hartree-Fock

 Orbital guess generated from atomic densities.

 Initial occupancy:   9   9

 NELEC=   36   SYM=1   MS2= 0   THRE=1.0D-08   THRD=3.2D-06   THRG=3.2D-06  HFMA2=F  DIIS_START=2   DIIS_MAX=10   DIIS_INCORE=F

 Level shifts:    0.00 (CLOSED)    0.00 (OPEN)    0.30 (GAP_MIN)

 ITER           ETOT              DE          GRAD        DDIFF     DIIS  NEXP   TIME(IT)  TIME(TOT)  DIAG
   1    -2604.54113413   -2604.54113413     0.00D+00     0.20D+00     0     0       0.01      0.02    start
   2    -2604.58050659      -0.03937246     0.17D-01     0.29D-01     1     0       0.01      0.03    diag
   3    -2604.59608607      -0.01557947     0.13D-01     0.45D-02     2     0       0.00      0.03    diag
   4    -2604.59617298      -0.00008691     0.51D-03     0.86D-03     3     0       0.01      0.04    diag
   5    -2604.59617817      -0.00000519     0.15D-03     0.28D-03     4     0       0.01      0.05    diag
   6    -2604.59617826      -0.00000010     0.21D-04     0.38D-04     5     0       0.00      0.05    diag
   7    -2604.59617826      -0.00000000     0.10D-05     0.33D-05     6     0       0.01      0.06    diag
   8    -2604.59617827      -0.00000000     0.85D-07     0.44D-06     7     0       0.00      0.06    fixocc
   9    -2604.59617826       0.00000000     0.54D-08     0.21D-07     0     0       0.01      0.07    diag

 Final occupancy:   9   9

 !RHF STATE 1.1 Energy              -2604.596178265000
  RHF One-electron energy           -3635.148612346741
  RHF Two-electron energy            1030.552434081741
  RHF Kinetic energy                 2786.516587164786
  RHF Nuclear energy                    0.000000000000
  RHF Virial quotient                  -0.934714040556

 !RHF STATE 1.1 Dipole moment           0.00000000     0.00000000     0.00000000
 Dipole moment /Debye                   0.00000000     0.00000000     0.00000000

 ELECTRON ORBITALS
 =================

  Orbital  Occupation    Energy    Cen Mu Typ  Coefficients
    1.1     2.00000  -497.87939     1  1  s    0.99998
    2.1     2.00000   -66.74109     1  2  s    0.99983
    3.1     2.00000    -9.83911     1  3  s    0.99964
    4.1     2.00000    -2.79833     1  1  d1+ -0.44259    1  1  d1-  0.89645
    5.1     2.00000    -2.79833     1  1  d1+  0.89645    1  1  d1-  0.44261
    6.1     2.00000    -2.79833     1  1  d0   0.98959
    7.1     2.00000    -2.79833     1  1  d2- -0.26612    1  1  d2+  0.95390
    8.1     2.00000    -2.79833     1  1  d2-  0.96371    1  1  d2+  0.26334
    9.1     2.00000    -0.69886     1  4  s    0.89075
    1.2     2.00000   -58.63892     1  1  py   0.99996
    2.2     2.00000   -58.63892     1  1  pz   0.99996
    3.2     2.00000   -58.63892     1  1  px   0.99996
    4.2     2.00000    -7.19214     1  2  py   1.00013
    5.2     2.00000    -7.19214     1  2  pz   1.00013
    6.2     2.00000    -7.19214     1  2  px   1.00013
    7.2     2.00000    -0.12619     1  3  pz   0.83246
    8.2     2.00000    -0.12619     1  3  py   0.83246
    9.2     2.00000    -0.12619     1  3  px   0.83246


 HOMO      9.2    -0.126187 =      -3.4337eV
 LUMO     10.2     0.619351 =      16.8534eV
 LUMO-HOMO         0.745538 =      20.2871eV

 Orbitals saved in record  2100.2


 **********************************************************************************************************************************
 DATASETS  * FILE   NREC   LENGTH (MB)   RECORD NAMES
              1      22       28.97       500      610      700      900      950      970     1000      129      960     1700   
                                          VAR    BASINP    GEOM    SYMINP    ZMAT    AOBASIS   BASIS     P2S    ABASIS    OPER   
                                         1101     1401     1411     1412     1650     1100     1400     1410     1200     1210   
                                          SR      EKINR    POTR     PVPR    MOLCAS      S      EKIN      POT      H0       H01  
                                         1080     1600   
                                         AOSYM     SMH  

              2       4        0.44       700     1000      520     2100   
                                         GEOM     BASIS   MCVARS     RHF  

 PROGRAMS   *        TOTAL   RHF-SCF       INT
 CPU TIMES  *         1.02      0.07      0.81
 REAL TIME  *         2.42 SEC
 DISK USED  *        29.71 MB (local),      104.91 MB (total)
 GA USED    *         0.00 MB       (max)       0.00 MB       (current)
 **********************************************************************************************************************************
 SETTING NSING          =         3.00000000                                  
 SETTING NTRIP          =         8.00000000                                  

 PROGRAM * MULTI (Direct Multiconfiguration SCF)       Authors: P.J. Knowles, H.-J. Werner (1984)
                                                                D.A. Kreplin, P.J. Knowles, H.-J. Werner (2019)

 Number of closed-shell orbitals:  14 (    8    6)
 Number of active  orbitals:        8 (    2    6)
 Number of external orbitals:      62 (   32   30)

 State symmetry 1

 Number of active electrons:   7    Spin symmetry=Doublet   Space symmetry=2
 Number of states:             3
 Number of CSFs:            1204   (1980 determinants, 3920 intermediate states)

 State symmetry 2

 Number of active electrons:   7    Spin symmetry=Quartet   Space symmetry=2
 Number of states:             8
 Number of CSFs:             656   (776 determinants, 1568 intermediate states)

 Molecular orbitals read from record     2100.2  Type=RHF/CANONICAL  
 *** IN SYMMETRY 1 ORBITAL  4 SYMMETRY CONTAMINATION OF 0.334D+00 HAS BEEN REMOVED
 *** IN SYMMETRY 1 ORBITAL  5 SYMMETRY CONTAMINATION OF 0.335D+00 HAS BEEN REMOVED
 *** IN SYMMETRY 1 ORBITAL  6 SYMMETRY CONTAMINATION OF 0.131D+00 HAS BEEN REMOVED
 *** IN SYMMETRY 1 ORBITAL  7 SYMMETRY CONTAMINATION OF 0.302D+00 HAS BEEN REMOVED
 *** IN SYMMETRY 1 ORBITAL  8 SYMMETRY CONTAMINATION OF 0.240D+00 HAS BEEN REMOVED

 EXTRA SYMMETRY OF MOS IN SYMMETRY 1:   1 1 1 6 4 2 5 3 1 1   2 3 5 4 6 3 5 6 4 2   1 2 4 6 3 5 7 91514  1112 81013 1 2 4 6 5
                                        3 1
 *** IN SYMMETRY 2 ORBITAL  1 SYMMETRY CONTAMINATION OF 0.258D-02 HAS BEEN REMOVED
 *** IN SYMMETRY 2 ORBITAL  2 SYMMETRY CONTAMINATION OF 0.324D-02 HAS BEEN REMOVED
 *** IN SYMMETRY 2 ORBITAL  3 SYMMETRY CONTAMINATION OF 0.155D-02 HAS BEEN REMOVED
 *** IN SYMMETRY 2 ORBITAL  4 SYMMETRY CONTAMINATION OF 0.391D-03 HAS BEEN REMOVED
 *** IN SYMMETRY 2 ORBITAL  5 SYMMETRY CONTAMINATION OF 0.370D-03 HAS BEEN REMOVED
 *** IN SYMMETRY 2 ORBITAL  6 SYMMETRY CONTAMINATION OF 0.399D-04 HAS BEEN REMOVED
 *** IN SYMMETRY 2 ORBITAL  7 SYMMETRY CONTAMINATION OF 0.844D-03 HAS BEEN REMOVED
 *** IN SYMMETRY 2 ORBITAL  8 SYMMETRY CONTAMINATION OF 0.121D-02 HAS BEEN REMOVED
 *** IN SYMMETRY 2 ORBITAL  9 SYMMETRY CONTAMINATION OF 0.396D-03 HAS BEEN REMOVED
 *** IN SYMMETRY 2 ORBITAL 10 SYMMETRY CONTAMINATION OF 0.179D-03 HAS BEEN REMOVED
 *** IN SYMMETRY 2 ORBITAL 11 SYMMETRY CONTAMINATION OF 0.107D-03 HAS BEEN REMOVED
 *** IN SYMMETRY 2 ORBITAL 12 SYMMETRY CONTAMINATION OF 0.115D-03 HAS BEEN REMOVED
 EXTRA SYMMETRY OF MOS IN SYMMETRY 2:   2 3 1 2 3 1 3 2 1 2   1 3 4 5 7 9 6 810 3   2 1 810 6 4 5 9 7 3   2 1 6 7 9 4 510 8 2
                                        1 3

 Wavefunction dump at record             2140.2

 Convergence thresholds  0.10E-04 (gradient)  0.10E-05 (energy)

 Weight factors for state symmetry  1:    0.09091   0.09091   0.09091
 Weight factors for state symmetry  2:    0.09091   0.09091   0.09091   0.09091   0.09091   0.09091   0.09091   0.09091
 
 Number of orbital rotations:  732  ( 52 closed/active, 436 closed/virtual, 0 active/active, 244 active/virtual )
 Total number of variables:    12880
 
 Second-order MCSCF: L-BFGS accelerated
 
 ITER  MIC  NCI  NEG     ENERGY(VAR)    ENERGY(PROJ) ENERGY CHANGE       GRAD(0)  GRAD(ORB)   GRAD(CI)      STEP      TIME
   1   11   46    0  -2604.15811104   -2604.17039129   -0.01228026    0.16048668 0.00243839 0.00196925  0.40E+00      0.75
   2    8   39    0  -2604.17098479   -2604.17131122   -0.00032643    0.04815888 0.00011401 0.00061307  0.13E+00      1.45
   3   12   47    0  -2604.17131239   -2604.17131244   -0.00000005    0.00008262 0.00000000 0.00000000  0.20E-02      2.30
   4    2    4    0  -2604.17131244   -2604.17131244    0.00000000    0.00000001 0.00000000 0.00000002  0.10E-06      2.52

 CONVERGENCE REACHED!  Final gradient:    0.00000001 ( 0.61E-08)
                       Final energy:  -2604.17131244
 
 Results for state 1.2 Doublet
 =============================
 !MCSCF STATE 1.2 Doublet Energy             -2604.525212198439
 Nuclear energy                                  0.00000000
 Kinetic energy                               2786.49158820
 One electron energy                         -3622.64236504
 Two electron energy                          1018.11715284
 Virial ratio                                    1.93469696
 
 !MCSCF STATE 1.2 Doublet Dipole moment          0.00000000     0.00000000     0.00000000
 Dipole moment /Debye                            0.00000000     0.00000000     0.00000000
 
 Results for state 2.2 Doublet
 =============================
 !MCSCF STATE 2.2 Doublet Energy             -2604.525212198431
 Nuclear energy                                  0.00000000
 Kinetic energy                               2786.49158820
 One electron energy                         -3622.64236504
 Two electron energy                          1018.11715284
 Virial ratio                                    1.93469696
 
 !MCSCF STATE 2.2 Doublet Dipole moment          0.00000000     0.00000000     0.00000000
 Dipole moment /Debye                            0.00000000     0.00000000     0.00000000
 
 Results for state 3.2 Doublet
 =============================
 !MCSCF STATE 3.2 Doublet Energy             -2604.525212198425
 Nuclear energy                                  0.00000000
 Kinetic energy                               2786.49158820
 One electron energy                         -3622.64236504
 Two electron energy                          1018.11715284
 Virial ratio                                    1.93469696
 
 !MCSCF STATE 3.2 Doublet Dipole moment          0.00000000     0.00000000     0.00000000
 Dipole moment /Debye                            0.00000000     0.00000000     0.00000000
 
 Results for state 1.2 Quartet
 =============================
 !MCSCF STATE 1.2 Quartet Energy             -2604.059397098905
 Nuclear energy                                  0.00000000
 Kinetic energy                               2786.48872060
 One electron energy                         -3617.74579530
 Two electron energy                          1013.68639820
 Virial ratio                                    1.93453075
 
 !MCSCF STATE 1.2 Quartet Dipole moment          0.00000000     0.00000000     0.00000000
 Dipole moment /Debye                            0.00000000     0.00000000     0.00000000
 
 Results for state 2.2 Quartet
 =============================
 !MCSCF STATE 2.2 Quartet Energy             -2604.059397098867
 Nuclear energy                                  0.00000000
 Kinetic energy                               2786.48872060
 One electron energy                         -3617.74579530
 Two electron energy                          1013.68639820
 Virial ratio                                    1.93453075
 
 !MCSCF STATE 2.2 Quartet Dipole moment          0.00000000     0.00000000     0.00000000
 Dipole moment /Debye                            0.00000000     0.00000000     0.00000000
 
 Results for state 3.2 Quartet
 =============================
 !MCSCF STATE 3.2 Quartet Energy             -2604.059397098856
 Nuclear energy                                  0.00000000
 Kinetic energy                               2786.48872060
 One electron energy                         -3617.74579530
 Two electron energy                          1013.68639820
 Virial ratio                                    1.93453075
 
 !MCSCF STATE 3.2 Quartet Dipole moment          0.00000000     0.00000000     0.00000000
 Dipole moment /Debye                            0.00000000     0.00000000     0.00000000
 
 Results for state 4.2 Quartet
 =============================
 !MCSCF STATE 4.2 Quartet Energy             -2604.026121797193
 Nuclear energy                                  0.00000000
 Kinetic energy                               2786.60924242
 One electron energy                         -3618.06123602
 Two electron energy                          1014.03511422
 Virial ratio                                    1.93447839
 
 !MCSCF STATE 4.2 Quartet Dipole moment          0.00000000     0.00000000     0.00000000
 Dipole moment /Debye                            0.00000000     0.00000000     0.00000000
 
 Results for state 5.2 Quartet
 =============================
 !MCSCF STATE 5.2 Quartet Energy             -2604.026121797166
 Nuclear energy                                  0.00000000
 Kinetic energy                               2786.60924242
 One electron energy                         -3618.06123601
 Two electron energy                          1014.03511422
 Virial ratio                                    1.93447839
 
 !MCSCF STATE 5.2 Quartet Dipole moment          0.00000000     0.00000000     0.00000000
 Dipole moment /Debye                            0.00000000     0.00000000     0.00000000
 
 Results for state 6.2 Quartet
 =============================
 !MCSCF STATE 6.2 Quartet Energy             -2604.026121797152
 Nuclear energy                                  0.00000000
 Kinetic energy                               2786.60924242
 One electron energy                         -3618.06123602
 Two electron energy                          1014.03511422
 Virial ratio                                    1.93447839
 
 !MCSCF STATE 6.2 Quartet Dipole moment          0.00000000     0.00000000     0.00000000
 Dipole moment /Debye                            0.00000000     0.00000000     0.00000000
 
 Results for state 7.2 Quartet
 =============================
 !MCSCF STATE 7.2 Quartet Energy             -2604.026121797141
 Nuclear energy                                  0.00000000
 Kinetic energy                               2786.60924242
 One electron energy                         -3618.06123602
 Two electron energy                          1014.03511422
 Virial ratio                                    1.93447839
 
 !MCSCF STATE 7.2 Quartet Dipole moment          0.00000000     0.00000000     0.00000000
 Dipole moment /Debye                            0.00000000     0.00000000     0.00000000
 
 Results for state 8.2 Quartet
 =============================
 !MCSCF STATE 8.2 Quartet Energy             -2604.026121797102
 Nuclear energy                                  0.00000000
 Kinetic energy                               2786.60924242
 One electron energy                         -3618.06123601
 Two electron energy                          1014.03511422
 Virial ratio                                    1.93447839
 
 !MCSCF STATE 8.2 Quartet Dipole moment          0.00000000     0.00000000     0.00000000
 Dipole moment /Debye                            0.00000000     0.00000000     0.00000000
 
 State-averaged charge density matrix saved on record 2140.2 (density set 1)
 
 No non-zero expectation values
 
 Expectation values for two-electron operators:
 
 ? Warning
 ? Transition properties are only calculated between states of the same symmetry
 ? The problem occurs in mu_properties_expec2

 !MCSCF expec      <1.2 Doublet|LXLX|1.2 Doublet>     0.000000008829
 !MCSCF expec      <2.2 Doublet|LXLX|2.2 Doublet>     0.999999997208
 !MCSCF expec      <3.2 Doublet|LXLX|3.2 Doublet>     0.999999993964
 !MCSCF expec      <1.2 Quartet|LXLX|1.2 Quartet>     0.999999999988
 !MCSCF expec      <2.2 Quartet|LXLX|2.2 Quartet>     0.000000200935
 !MCSCF expec      <3.2 Quartet|LXLX|3.2 Quartet>     0.999999799077
 !MCSCF expec      <4.2 Quartet|LXLX|4.2 Quartet>     1.000000095787
 !MCSCF expec      <5.2 Quartet|LXLX|5.2 Quartet>     1.362124199300
 !MCSCF expec      <6.2 Quartet|LXLX|6.2 Quartet>     3.999999784605
 !MCSCF expec      <7.2 Quartet|LXLX|7.2 Quartet>     1.000000123206
 !MCSCF expec      <8.2 Quartet|LXLX|8.2 Quartet>     2.637875797102
 
 !MCSCF expec      <1.2 Doublet|LYLY|1.2 Doublet>     0.999999993960
 !MCSCF expec      <2.2 Doublet|LYLY|2.2 Doublet>     0.999999798047
 !MCSCF expec      <3.2 Doublet|LYLY|3.2 Doublet>     0.000000207993
 !MCSCF expec      <1.2 Quartet|LYLY|1.2 Quartet>     0.999999989559
 !MCSCF expec      <2.2 Quartet|LYLY|2.2 Quartet>     0.999999799078
 !MCSCF expec      <3.2 Quartet|LYLY|3.2 Quartet>     0.000000211363
 !MCSCF expec      <4.2 Quartet|LYLY|4.2 Quartet>     1.000000001351
 !MCSCF expec      <5.2 Quartet|LYLY|5.2 Quartet>     0.677342382673
 !MCSCF expec      <6.2 Quartet|LYLY|6.2 Quartet>     1.000000128992
 !MCSCF expec      <7.2 Quartet|LYLY|7.2 Quartet>     3.999999873736
 !MCSCF expec      <8.2 Quartet|LYLY|8.2 Quartet>     3.322657613248
 
 !MCSCF expec      <1.2 Doublet|LZLZ|1.2 Doublet>     0.999999997211
 !MCSCF expec      <2.2 Doublet|LZLZ|2.2 Doublet>     0.000000204746
 !MCSCF expec      <3.2 Doublet|LZLZ|3.2 Doublet>     0.999999798043
 !MCSCF expec      <1.2 Quartet|LZLZ|1.2 Quartet>     0.000000010453
 !MCSCF expec      <2.2 Quartet|LZLZ|2.2 Quartet>     0.999999999987
 !MCSCF expec      <3.2 Quartet|LZLZ|3.2 Quartet>     0.999999989560
 !MCSCF expec      <4.2 Quartet|LZLZ|4.2 Quartet>     3.999999902862
 !MCSCF expec      <5.2 Quartet|LZLZ|5.2 Quartet>     3.960533418028
 !MCSCF expec      <6.2 Quartet|LZLZ|6.2 Quartet>     1.000000086403
 !MCSCF expec      <7.2 Quartet|LZLZ|7.2 Quartet>     1.000000003058
 !MCSCF expec      <8.2 Quartet|LZLZ|8.2 Quartet>     0.039466589650
 
 !MCSCF expec      <1.2 Doublet|L**2|1.2 Doublet>     2.000000000000
 !MCSCF expec      <2.2 Doublet|L**2|2.2 Doublet>     2.000000000000
 !MCSCF expec      <3.2 Doublet|L**2|3.2 Doublet>     2.000000000000
 !MCSCF expec      <1.2 Quartet|L**2|1.2 Quartet>     2.000000000000
 !MCSCF expec      <2.2 Quartet|L**2|2.2 Quartet>     2.000000000000
 !MCSCF expec      <3.2 Quartet|L**2|3.2 Quartet>     2.000000000000
 !MCSCF expec      <4.2 Quartet|L**2|4.2 Quartet>     6.000000000000
 !MCSCF expec      <5.2 Quartet|L**2|5.2 Quartet>     6.000000000000
 !MCSCF expec      <6.2 Quartet|L**2|6.2 Quartet>     6.000000000000
 !MCSCF expec      <7.2 Quartet|L**2|7.2 Quartet>     6.000000000000
 !MCSCF expec      <8.2 Quartet|L**2|8.2 Quartet>     6.000000000000
 
 EXTRA SYMMETRY OF MOS IN SYMMETRY 1:   1 1 1 4 6 3 5 2 1 1   5 3 4 6 2 5 3 4 6 2   1 4 6 3 5 2 7101315  14 911 812 1 2 4 6 3
                                        5 1
 EXTRA SYMMETRY OF MOS IN SYMMETRY 2:   2 3 1 2 3 1 2 1 3 2   1 3 4 5 7 9 610 8 3   2 1 810 6 7 9 4 5 3   2 1 6 7 9 4 510 8 2
                                        1 3
 
  NATURAL ORBITALS (STATE AVERAGED)
  =================================

  Orbital  Occupation    Energy    Cen Mu Typ  Coefficients
    1.1     2.00000  -498.33671     1  1  s    0.99998
    2.1     2.00000   -67.19758     1  2  s    0.99985
    3.1     2.00000   -10.29518     1  3  s    0.99992
    4.1     2.00000    -3.25346     1  1  d1+  1.00009
    5.1     2.00000    -3.25346     1  1  d1-  1.00009
    6.1     2.00000    -3.25346     1  1  d2-  1.00009
    7.1     2.00000    -3.25346     1  1  d2+  1.00009
    8.1     2.00000    -3.25346     1  1  d0   1.00009
    9.1     1.99227    -1.08727     1  4  s    1.03218
   10.1     0.00743     0.39895     1  3  s   -0.37328    1  4  s   -1.83733    1  5  s   -0.28418    1  6  s    2.33893
    1.2     2.00000   -59.09471     1  1  py   0.99996
    2.2     2.00000   -59.09471     1  1  pz   0.99996
    3.2     2.00000   -59.09471     1  1  px   0.99996
    4.2     2.00000    -7.64667     1  2  py   0.99993
    5.2     2.00000    -7.64667     1  2  pz   0.99993
    6.2     2.00000    -7.64667     1  2  px   0.99993
    7.2     1.42129    -0.41118     1  3  py   1.00676
    8.2     1.42129    -0.41118     1  3  px   1.00676
    9.2     1.42129    -0.41118     1  3  pz   1.00676
   10.2     0.24548     0.31082     1  2  py  -0.44986    1  3  py  -2.01000    1  4  py   0.56902    1  5  py   2.06594
   11.2     0.24548     0.31082     1  2  px  -0.44986    1  3  px  -2.01000    1  4  px   0.56902    1  5  px   2.06594
   12.2     0.24548     0.31082     1  2  pz  -0.44986    1  3  pz  -2.01000    1  4  pz   0.56902    1  5  pz   2.06594
 
 Natural orbital dump (state averaged) at molpro section 2140.2 (Orbital set 2)
 
 Transform the CI vectors
 
 CI Coefficients of symmetry 2 (Doublet)
 =======================================
 
 20 2a2000      0.98881179      0.00005225      0.00007683
 20 22a000     -0.00005222      0.98881170     -0.00044437
 20 a22000     -0.00007685      0.00044436      0.98881170
 20 2aa00b      0.05602834      0.00000296      0.00000435
 20 aa2b00     -0.05602834     -0.00000296     -0.00000435
 20 2aa0b0      0.00000296     -0.05602833      0.00002518
 20 a2ab00      0.00000296     -0.05602833      0.00002518
 20 a2a00b     -0.00000435      0.00002518      0.05602833
 20 aa20b0     -0.00000435      0.00002518      0.05602833
 
 Energy:    -2604.52521220  -2604.52521220  -2604.52521220
 
 
 CI Coefficients of symmetry 2 (Quartet)
 =======================================

 State:              1               2               3               4               5               6               7
 20 aa200a     -0.00000000     -0.00000000     -0.00000000      0.00001478     -0.08081749     -0.00006107      0.00002755
 20 2aaa00     -0.00000000      0.00000000     -0.00000000     -0.00004680      0.74153795      0.00003891     -0.00001434
 20 a2aa00      0.69985322      0.00000248     -0.00007151      0.70461390      0.00004049     -0.00012313     -0.00002637
 20 2aa0a0      0.69985322      0.00000248     -0.00007151     -0.70461390     -0.00004049      0.00012313      0.00002637
 20 a2a00a      0.00007151     -0.00031370      0.69985315     -0.00002640     -0.00000293     -0.00014140     -0.70461389
 20 aa20a0      0.00007151     -0.00031370      0.69985315      0.00002640      0.00000293      0.00014140      0.70461389
 20 2aa00a      0.00000245     -0.69985315     -0.00031371      0.00012313     -0.00001358      0.70461388     -0.00014140
 20 aa2a00     -0.00000245      0.69985315      0.00031371      0.00012313     -0.00001358      0.70461388     -0.00014140
 20 a2a0a0     -0.00000000      0.00000000      0.00000000     -0.00003202      0.66072046     -0.00002216      0.00001321
 aa 22a000     -0.11515269     -0.00000041      0.00001177     -0.00000000     -0.00000000      0.00000000      0.00000000
 aa 2a2000      0.00000040     -0.11515268     -0.00005162      0.00000000      0.00000000      0.00000000     -0.00000000
 aa a22000      0.00001177     -0.00005162      0.11515268     -0.00000000      0.00000000     -0.00000000     -0.00000000
 
 Energy:    -2604.05939710  -2604.05939710  -2604.05939710  -2604.02612180  -2604.02612180  -2604.02612180  -2604.02612180

 State:              8
 20 aa200a      0.80959427
 20 2aaa00     -0.33480714
 20 a2aa00     -0.00000883
 20 2aa0a0      0.00000883
 20 a2a00a      0.00002368
 20 aa20a0     -0.00002368
 20 2aa00a      0.00005180
 20 aa2a00      0.00005180
 20 a2a0a0      0.47478713
 aa 22a000     -0.00000000
 aa 2a2000     -0.00000000
 aa a22000      0.00000000
 
 Energy:    -2604.02612180
 


 **********************************************************************************************************************************
 DATASETS  * FILE   NREC   LENGTH (MB)   RECORD NAMES
              1      24       39.37       500      610      700      900      950      970     1000      129      960     1700   
                                          VAR    BASINP    GEOM    SYMINP    ZMAT    AOBASIS   BASIS     P2S    ABASIS    OPER   
                                         1101     1401     1411     1412     1650     1100     1400     1410     1200     1210   
                                          SR      EKINR    POTR     PVPR    MOLCAS      S      EKIN      POT      H0       H01  
                                         1080     1600     1380     1700(1)
                                         AOSYM     SMH     JKOP     OPER   

              2       5        0.68       700     1000      520     2100     2140   
                                         GEOM     BASIS   MCVARS     RHF     MCSCF   

 PROGRAMS   *        TOTAL     MULTI   RHF-SCF       INT
 CPU TIMES  *         3.26      2.24      0.07      0.81
 REAL TIME  *         5.26 SEC
 DISK USED  *        40.13 MB (local),      136.16 MB (total)
 SF USED    *        26.68 MB
 GA USED    *         0.00 MB       (max)       0.00 MB       (current)
 **********************************************************************************************************************************

 Energies and &lt;L**2&gt; values

          ENERGY    LL
    -2604.525212   2.0
    -2604.525212   2.0
    -2604.525212   2.0
    -2604.059397   2.0
    -2604.059397   2.0
    -2604.059397   2.0
    -2604.026122   6.0
    -2604.026122   6.0
    -2604.026122   6.0
    -2604.026122   6.0
    -2604.026122   6.0
                                                  


 PROGRAM * CI (Multireference internally contracted CI)     Authors: H.-J. Werner, P.J. Knowles, 1987


 Convergence thresholds:  THRVAR = 1.00D-08  THRDEN = 1.00D-06

 Number of optimized states: 3  Roots:    1   2   3
 Number of reference states: 3  Roots:    1   2   3

 Reference symmetry:                   2   Doublet 
 Number of electrons:                 35
 Maximum number of shells:             7
 Maximum number of spin couplings:   429

 Reference space:      554 conf     1204 CSFs
 N elec internal:    56699 conf   278292 CSFs
 N-1 el internal:    59743 conf   501108 CSFs
 N-2 el internal:    32490 conf   411156 CSFs

 Number of electrons in valence space:                     25
 Maximum number of open shell orbitals in reference space:  7
 Maximum number of open shell orbitals in internal spaces: 13


 Number of core orbitals:           5 (   2   3 )
 Number of closed-shell orbitals:   9 (   6   3 )
 Number of active  orbitals:        8 (   2   6 )
 Number of external orbitals:      62 (  32  30 )

 Molecular orbitals read from record     2140.2  Type=MCSCF/NATURAL (state averaged)

 Integral transformation finished. Total CPU:   0.05 sec, npass=  1  Memory used:   0.73 MW


 Number of p-space configurations:   3

 Reference wavefunction optimized for reference space (refopt=1)

 State     Reference Energy 
     1     -2604.52521220
     2     -2604.52521220
     3     -2604.52521220

 Number of blocks in overlap matrix:   340   Smallest eigenvalue:  0.52D-06
 Number of N-2 electron functions:     867
 Number of N-1 electron functions:  501108

 Number of internal configurations:               139300
 Number of singly external configurations:      15533800
 Number of doubly external configurations:        834771
 Total number of contracted configurations:     16507871
 Total number of uncontracted configurations:  408892166

 Diagonal Coupling coefficients finished.               Storage:  64533711 words, CPU-Time:    248.00 seconds.
 Energy denominators for pairs finished in 1 passes.    Storage:   4725608 words, CPU-time:      0.05 seconds.

  ITER. STATE  ROOT     SQ.NORM     CORR.ENERGY   TOTAL ENERGY   ENERGY CHANGE       DEN1      VAR(S)    VAR(P)      TIME
    1     1     1     1.00000000     0.00000000 -2604.52521220    -0.00000000    -0.95482753  0.28D-01  0.60D-01   286.53
    1     2     2     1.00000000     0.00000000 -2604.52521220     0.00000000    -0.95475713  0.28D-01  0.60D-01   286.53
    1     3     3     1.00000000     0.00000000 -2604.52521220    -0.00000000    -0.95488176  0.28D-01  0.60D-01   286.53
    2     1     1     1.06147819    -0.79899316 -2605.32420536    -0.79899316    -0.01561406  0.16D-02  0.82D-03  2293.33
    2     2     2     1.06151298    -0.79897017 -2605.32418237    -0.79897017    -0.01564054  0.16D-02  0.82D-03  2293.33
    2     3     3     1.06153651    -0.79895604 -2605.32416824    -0.79895604    -0.01565379  0.16D-02  0.82D-03  2293.33
    3     1     1     1.05926364    -0.81342153 -2605.33863373    -0.01442838    -0.00039972  0.20D-04  0.48D-04  4296.72
    3     2     2     1.05926240    -0.81342075 -2605.33863295    -0.01445058    -0.00040008  0.20D-04  0.48D-04  4296.72
    3     3     3     1.05926326    -0.81342073 -2605.33863293    -0.01446469    -0.00040009  0.20D-04  0.48D-04  4296.72
    4     1     1     1.06017163    -0.81385349 -2605.33906569    -0.00043196    -0.00002783  0.12D-05  0.39D-05  6300.04
    4     2     2     1.06017138    -0.81385337 -2605.33906556    -0.00043261    -0.00002792  0.12D-05  0.40D-05  6300.04
    4     3     3     1.06017190    -0.81385335 -2605.33906555    -0.00043262    -0.00002793  0.12D-05  0.40D-05  6300.04
    5     1     1     1.06057457    -0.81388629 -2605.33909849    -0.00003280    -0.00000197  0.11D-06  0.21D-06  8295.41
    5     2     2     1.06057475    -0.81388629 -2605.33909849    -0.00003292    -0.00000197  0.11D-06  0.21D-06  8295.41
    5     3     3     1.06057489    -0.81388629 -2605.33909849    -0.00003294    -0.00000197  0.11D-06  0.21D-06  8295.41
    6     1     1     1.06058981    -0.81388845 -2605.33910065    -0.00000216    -0.00000011  0.70D-08  0.11D-07 10292.81
    6     2     2     1.06058980    -0.81388845 -2605.33910065    -0.00000216    -0.00000011  0.70D-08  0.11D-07 10292.81
    6     3     3     1.06058990    -0.81388845 -2605.33910065    -0.00000216    -0.00000011  0.69D-08  0.11D-07 10292.81
    7     1     1     1.06059319    -0.81388856 -2605.33910076    -0.00000011    -0.00000001  0.33D-09  0.80D-09 12294.18
    7     2     2     1.06059319    -0.81388856 -2605.33910076    -0.00000011    -0.00000001  0.33D-09  0.80D-09 12294.18
    7     3     3     1.06059322    -0.81388856 -2605.33910076    -0.00000011    -0.00000001  0.33D-09  0.80D-09 12294.18


 =====================================
 Analysis of CPU times by interactions
 =====================================

       I      S      P

 I   0.9%
 S   0.3%  36.3%
 P   0.3%  53.0%   6.9%

 Initialization:   2.0%
 Other:            0.2%

 Total CPU:    12294.2 seconds
 =====================================



 Wavefunction saved on  5203.2

 Reference coefficients greater than 0.0500000
 =============================================
 2222222022222/000           0.0000000  -0.0000000   0.9626016
 222222202222/2000           0.7805225   0.5633706  -0.0000000
 22222220222/22000          -0.5633706   0.7805225   0.0000000
 22222220222/2/\00          -0.0000000   0.0000000  -0.0559621
 222222202222//0\0           0.0000000   0.0000000  -0.0559621

 Coefficients of fixed reference functions:
 ==========================================

 State      Coefficients
 1           0.787090    0.000000   -0.568111
 2           0.568111   -0.000000    0.787090
 3          -0.000000    0.970701    0.000000

 Coefficients of rotated reference functions:
 ============================================

 State      Coefficients
 1           0.970701    0.000000   -0.000000
 2           0.000000    0.970701   -0.000000
 3          -0.000000   -0.000000    0.970701

 Energy contributions of internal configurations for state 3
 ===========================================================

   NUMBER        NORM          ECORR1        OCCUPATION

 30093       0.00000763    -1.17021529       22222220222221000               


 RESULTS FOR STATE 1.2
 =====================

 Coefficient of reference function:   C(0) = 0.78708955 (fixed)   0.97096434 (relaxed)   0.97070061 (rotated)

 Energy contributions of configuration classes

 CLASS          SQ.NORM        ECORR1        ECORR2
 +++++++++++++++++++++++++++++++++++++++++++++++++++
 Internals    0.00064622   -0.00084885   -1.10902234
 Singles      0.01331878   -0.07145281   -0.07754091
 Pairs        0.04731356    0.43401994    0.37267469
 Total        1.06127857    0.36171828   -0.81388856
 +++++++++++++++++++++++++++++++++++++++++++++++++++


 Reference energy                   -2604.52521220
 Nuclear energy                         0.00000000
 Kinetic energy                      2786.78386727
 One electron energy                -3621.61931852
 Two electron energy                 1016.28021777
 Virial quotient                       -0.93489098
 Correlation energy                    -0.81388856
 !MRCI STATE 1.2 Energy             -2605.339100756008

 Properties without orbital relaxation:

 !MRCI STATE 1.2 Dipole moment          0.00000000     0.00000000     0.00000000
 Dipole moment /Debye                   0.00000000     0.00000000     0.00000000

 Cluster corrected energies         -2605.38897468 (Davidson, fixed reference)
 Cluster corrected energies         -2605.38850553 (Davidson, relaxed reference)
 Cluster corrected energies         -2605.38897468 (Davidson, rotated reference)

 Cluster corrected energies         -2605.38726341 (Pople, fixed reference)
 Cluster corrected energies         -2605.38678652 (Pople, relaxed reference)
 Cluster corrected energies         -2605.38726341 (Pople, rotated reference)



 RESULTS FOR STATE 2.2
 =====================

 Maximum overlap with reference state  3

 Coefficient of reference function:   C(0) = 0.78708955 (fixed)   0.97096434 (relaxed)   0.97070061 (rotated)

 Energy contributions of configuration classes

 CLASS          SQ.NORM        ECORR1        ECORR2
 +++++++++++++++++++++++++++++++++++++++++++++++++++
 Internals    0.00064622   -0.00084885   -0.13346946
 Singles      0.01331879   -0.07145281   -0.07754092
 Pairs        0.04731356   -0.60131342   -0.60287818
 Total        1.06127857   -0.67361508   -0.81388856
 +++++++++++++++++++++++++++++++++++++++++++++++++++


 Reference energy                   -2604.52521220
 Nuclear energy                         0.00000000
 Kinetic energy                      2786.78386686
 One electron energy                -3621.61931827
 Two electron energy                 1016.28021751
 Virial quotient                       -0.93489098
 Correlation energy                    -0.81388856
 !MRCI STATE 2.2 Energy             -2605.339100755987

 Properties without orbital relaxation:

 !MRCI STATE 2.2 Dipole moment          0.00000000     0.00000000     0.00000000
 Dipole moment /Debye                   0.00000000     0.00000000     0.00000000

 Cluster corrected energies         -2605.38897468 (Davidson, fixed reference)
 Cluster corrected energies         -2605.38850553 (Davidson, relaxed reference)
 Cluster corrected energies         -2605.38897468 (Davidson, rotated reference)

 Cluster corrected energies         -2605.38726342 (Pople, fixed reference)
 Cluster corrected energies         -2605.38678652 (Pople, relaxed reference)
 Cluster corrected energies         -2605.38726342 (Pople, rotated reference)



 RESULTS FOR STATE 3.2
 =====================

 Maximum overlap with reference state  2

 Coefficient of reference function:   C(0) = 0.97070060 (fixed)   0.97096432 (relaxed)   0.97070060 (rotated)

 Energy contributions of configuration classes

 CLASS          SQ.NORM        ECORR1        ECORR2
 +++++++++++++++++++++++++++++++++++++++++++++++++++
 Internals    0.00064622   -0.00084885   -0.70006283
 Singles      0.01331879   -0.07145281   -0.07754092
 Pairs        0.04731359    0.00000000   -0.03628481
 Total        1.06127860   -0.07230166   -0.81388856
 +++++++++++++++++++++++++++++++++++++++++++++++++++


 Reference energy                   -2604.52521220
 Nuclear energy                         0.00000000
 Kinetic energy                      2786.78387024
 One electron energy                -3621.61932049
 Two electron energy                 1016.28021974
 Virial quotient                       -0.93489098
 Correlation energy                    -0.81388856
 !MRCI STATE 3.2 Energy             -2605.339100755851

 Properties without orbital relaxation:

 !MRCI STATE 3.2 Dipole moment          0.00000000     0.00000000     0.00000000
 Dipole moment /Debye                   0.00000000     0.00000000     0.00000000

 Cluster corrected energies         -2605.38897470 (Davidson, fixed reference)
 Cluster corrected energies         -2605.38850555 (Davidson, relaxed reference)
 Cluster corrected energies         -2605.38897470 (Davidson, rotated reference)

 Cluster corrected energies         -2605.38726344 (Pople, fixed reference)
 Cluster corrected energies         -2605.38678654 (Pople, relaxed reference)
 Cluster corrected energies         -2605.38726344 (Pople, rotated reference)



 **********************************************************************************************************************************
 DATASETS  * FILE   NREC   LENGTH (MB)   RECORD NAMES
              1      24       39.37       500      610      700      900      950      970     1000      129      960     1700   
                                          VAR    BASINP    GEOM    SYMINP    ZMAT    AOBASIS   BASIS     P2S    ABASIS    OPER   
                                         1101     1401     1411     1412     1650     1100     1400     1410     1200     1210   
                                          SR      EKINR    POTR     PVPR    MOLCAS      S      EKIN      POT      H0       H01  
                                         1080     1600     1380     1700(1)
                                         AOSYM     SMH     JKOP     OPER   

              2       6      385.90       700     1000      520     2100     2140     5203   
                                         GEOM     BASIS   MCVARS     RHF     MCSCF    MRCI   

 PROGRAMS   *        TOTAL        CI     MULTI   RHF-SCF       INT
 CPU TIMES  *     12546.47  12543.20      2.24      0.07      0.81
 REAL TIME  *     12608.84 SEC
 DISK USED  *       425.36 MB (local),        1.26 GB (total)
 SF USED    *         4.19 GB
 GA USED    *         0.00 MB       (max)       0.00 MB       (current)
 **********************************************************************************************************************************
 SETTING HLSDIAG(1)     =     -2605.38897468  AU                              
 SETTING HLSDIAG(2)     =     -2605.38897468  AU                              
 SETTING HLSDIAG(3)     =     -2605.38897470  AU                              


 PROGRAM * CI (Multireference internally contracted CI)     Authors: H.-J. Werner, P.J. Knowles, 1987


 Convergence thresholds:  THRVAR = 1.00D-08  THRDEN = 1.00D-06

 Number of optimized states: 8  Roots:    1   2   3   4   5   6   7   8
 Number of reference states: 8  Roots:    1   2   3   4   5   6   7   8

 Reference symmetry:                   2   Quartet 
 Number of electrons:                 35
 Maximum number of shells:             6
 Maximum number of spin couplings:   572

 Reference space:      344 conf      656 CSFs
 N elec internal:    52189 conf   229224 CSFs
 N-1 el internal:    51137 conf   453552 CSFs
 N-2 el internal:    21984 conf   385640 CSFs

 Number of electrons in valence space:                     25
 Maximum number of open shell orbitals in reference space:  7
 Maximum number of open shell orbitals in internal spaces: 13


 Number of core orbitals:           5 (   2   3 )
 Number of closed-shell orbitals:   9 (   6   3 )
 Number of active  orbitals:        8 (   2   6 )
 Number of external orbitals:      62 (  32  30 )

 Molecular orbitals read from record     2140.2  Type=MCSCF/NATURAL (state averaged)

 Coulomb and exchange operators available. No transformation done.


 Number of p-space configurations:   9

 Reference wavefunction optimized for reference space (refopt=1)

 State     Reference Energy 
     1     -2604.05939710
     2     -2604.05939710
     3     -2604.05939710
     4     -2604.02612180
     5     -2604.02612180
     6     -2604.02612180
     7     -2604.02612180
     8     -2604.02612180

 ?WARNING: SMALL EIGENVALUE OF PAIR OVERLAP MATRIX:  0.2309D-06

 Number of blocks in overlap matrix:   742   Smallest eigenvalue:  0.23D-06
 Number of N-2 electron functions:    2258
 Number of N-1 electron functions:  453552

 Number of internal configurations:               114452
 Number of singly external configurations:      14059088
 Number of doubly external configurations:       2172434
 Total number of contracted configurations:     16345974
 Total number of uncontracted configurations:  382087878

 Diagonal Coupling coefficients finished.               Storage:  86460451 words, CPU-Time:   1256.94 seconds.
 Energy denominators for pairs finished in 1 passes.    Storage:   7459296 words, CPU-time:      0.12 seconds.

  ITER. STATE  ROOT     SQ.NORM     CORR.ENERGY   TOTAL ENERGY   ENERGY CHANGE       DEN1      VAR(S)    VAR(P)      TIME
    1     1     1     1.00000000     0.00000000 -2604.05939710    -0.00000000    -0.94584321  0.35D-01  0.56D-01  1352.68
    1     2     2     1.00000000     0.00000000 -2604.05939710    -0.00000000    -0.94614222  0.35D-01  0.56D-01  1352.68
    1     3     3     1.00000000     0.00000000 -2604.05939710     0.00000000    -0.94622878  0.35D-01  0.56D-01  1352.68
    1     4     4     1.00000000     0.00000000 -2604.02612180     0.00000000    -0.95984132  0.44D-01  0.57D-01  1352.68
    1     5     5     1.00000000     0.00000000 -2604.02612180     0.00000000    -0.96021731  0.44D-01  0.57D-01  1352.68
    1     6     6     1.00000000     0.00000000 -2604.02612180    -0.00000000    -0.96007850  0.45D-01  0.57D-01  1352.68
    1     7     7     1.00000000     0.00000000 -2604.02612180     0.00000000    -0.96022417  0.45D-01  0.57D-01  1352.68
    1     8     8     1.00000000     0.00000000 -2604.02612180    -0.00000000    -0.96139552  0.44D-01  0.58D-01  1352.68
    2     1     1     1.06251640    -0.78533440 -2604.84473150    -0.78533440    -0.01638653  0.19D-02  0.93D-03  7084.00
    2     2     2     1.06264942    -0.78525024 -2604.84464734    -0.78525024    -0.01648267  0.19D-02  0.94D-03  7084.00
    2     3     3     1.06268062    -0.78523657 -2604.84463367    -0.78523657    -0.01650969  0.19D-02  0.94D-03  7084.00
    2     4     4     1.06842165    -0.79024554 -2604.81636734    -0.79024554    -0.01902322  0.29D-02  0.11D-02  7084.00
    2     5     5     1.06838249    -0.79007405 -2604.81619584    -0.79007405    -0.01916050  0.30D-02  0.10D-02  7084.00
    2     6     6     1.06882687    -0.79005783 -2604.81617962    -0.79005783    -0.01928101  0.30D-02  0.11D-02  7084.00
    2     7     7     1.06852504    -0.78990877 -2604.81603057    -0.78990877    -0.01934247  0.31D-02  0.11D-02  7084.00
    2     8     8     1.06858703    -0.78989409 -2604.81601589    -0.78989409    -0.01937309  0.31D-02  0.11D-02  7084.00
    3     1     1     1.05643265    -0.80063009 -2604.86002719    -0.01529569    -0.00040788  0.20D-04  0.49D-04 12800.25
    3     2     2     1.05643041    -0.80062835 -2604.86002545    -0.01537811    -0.00040875  0.20D-04  0.49D-04 12800.25
    3     3     3     1.05642765    -0.80062710 -2604.86002420    -0.01539053    -0.00040948  0.20D-04  0.49D-04 12800.25
    3     4     4     1.05930096    -0.80781938 -2604.83394118    -0.01757385    -0.00043388  0.28D-04  0.51D-04 12800.25
    3     5     5     1.05926383    -0.80780980 -2604.83393160    -0.01773576    -0.00043901  0.28D-04  0.51D-04 12800.25
    3     6     6     1.05919215    -0.80778136 -2604.83390316    -0.01772354    -0.00045776  0.29D-04  0.54D-04 12800.25
    3     7     7     1.05918398    -0.80777679 -2604.83389859    -0.01786802    -0.00046213  0.30D-04  0.55D-04 12800.25
    3     8     8     1.05917028    -0.80777122 -2604.83389301    -0.01787712    -0.00046490  0.30D-04  0.55D-04 12800.25
    4     1     1     1.05688448    -0.80107436 -2604.86047145    -0.00044426    -0.00003092  0.15D-05  0.42D-05 18498.82
    4     2     2     1.05688149    -0.80107420 -2604.86047130    -0.00044585    -0.00003118  0.15D-05  0.42D-05 18498.82
    4     3     3     1.05688074    -0.80107382 -2604.86047092    -0.00044672    -0.00003133  0.15D-05  0.43D-05 18498.82
    4     4     4     1.05967394    -0.80828321 -2604.83440501    -0.00046383    -0.00002725  0.13D-05  0.39D-05 18498.82
    4     5     5     1.05965888    -0.80828204 -2604.83440384    -0.00047224    -0.00002850  0.14D-05  0.40D-05 18498.82
    4     6     6     1.05962726    -0.80827803 -2604.83439983    -0.00049667    -0.00003169  0.16D-05  0.45D-05 18498.82
    4     7     7     1.05962602    -0.80827753 -2604.83439933    -0.00050074    -0.00003178  0.16D-05  0.45D-05 18498.82
    4     8     8     1.05962004    -0.80827656 -2604.83439836    -0.00050535    -0.00003252  0.16D-05  0.46D-05 18498.82
    5     1     1     1.05726776    -0.80111089 -2604.86050799    -0.00003653    -0.00000235  0.14D-06  0.24D-06 24187.65
    5     2     2     1.05726793    -0.80111077 -2604.86050787    -0.00003658    -0.00000234  0.14D-06  0.24D-06 24187.65
    5     3     3     1.05726812    -0.80111075 -2604.86050785    -0.00003693    -0.00000238  0.14D-06  0.25D-06 24187.65
    5     4     4     1.05999891    -0.80831583 -2604.83443763    -0.00003262    -0.00000244  0.16D-06  0.26D-06 24187.65
    5     5     5     1.05999914    -0.80831572 -2604.83443752    -0.00003368    -0.00000212  0.13D-06  0.23D-06 24187.65
    5     6     6     1.05999780    -0.80831549 -2604.83443728    -0.00003746    -0.00000252  0.16D-06  0.27D-06 24187.65
    5     7     7     1.05999766    -0.80831548 -2604.83443728    -0.00003795    -0.00000245  0.16D-06  0.26D-06 24187.65
    5     8     8     1.05999811    -0.80831527 -2604.83443707    -0.00003871    -0.00000199  0.12D-06  0.22D-06 24187.65
    6     1     1     1.05728352    -0.80111348 -2604.86051058    -0.00000259    -0.00000012  0.75D-08  0.13D-07 29877.80
    6     2     2     1.05728331    -0.80111337 -2604.86051047    -0.00000260    -0.00000012  0.78D-08  0.13D-07 29877.80
    6     3     3     1.05728329    -0.80111336 -2604.86051046    -0.00000261    -0.00000012  0.78D-08  0.13D-07 29877.80
    6     4     4     1.06001980    -0.80831852 -2604.83444032    -0.00000269    -0.00000014  0.13D-07  0.15D-07 29877.80
    6     5     5     1.06001908    -0.80831826 -2604.83444006    -0.00000254    -0.00000014  0.13D-07  0.16D-07 29877.80
    6     6     6     1.06001924    -0.80831818 -2604.83443997    -0.00000269    -0.00000014  0.13D-07  0.15D-07 29877.80
    6     7     7     1.06002075    -0.80831806 -2604.83443986    -0.00000258    -0.00000012  0.11D-07  0.13D-07 29877.80
    6     8     8     1.06002013    -0.80831747 -2604.83443927    -0.00000220    -0.00000011  0.10D-07  0.12D-07 29877.80
    7     1     1     1.05729146    -0.80111361 -2604.86051071    -0.00000013    -0.00000001  0.43D-09  0.12D-08 35561.38
    7     2     2     1.05729137    -0.80111350 -2604.86051060    -0.00000013    -0.00000001  0.44D-09  0.12D-08 35561.38
    7     3     3     1.05729139    -0.80111349 -2604.86051059    -0.00000013    -0.00000001  0.43D-09  0.11D-08 35561.38
    7     4     4     1.06003133    -0.80831867 -2604.83444047    -0.00000015    -0.00000001  0.79D-09  0.14D-08 35561.38
    7     5     5     1.06003095    -0.80831841 -2604.83444021    -0.00000015    -0.00000001  0.81D-09  0.14D-08 35561.38
    7     6     6     1.06003094    -0.80831833 -2604.83444012    -0.00000015    -0.00000001  0.79D-09  0.13D-08 35561.38
    7     7     7     1.06003172    -0.80831819 -2604.83443999    -0.00000013    -0.00000001  0.69D-09  0.13D-08 35561.38
    7     8     8     1.06003124    -0.80831759 -2604.83443939    -0.00000012    -0.00000001  0.63D-09  0.12D-08 35561.38


 =====================================
 Analysis of CPU times by interactions
 =====================================

       I      S      P

 I   0.7%
 S   0.2%  32.6%
 P   0.3%  50.3%  11.9%

 Initialization:   3.5%
 Other:            0.3%

 Total CPU:    35561.4 seconds
 =====================================



 Wavefunction saved on  5303.2

 Reference coefficients greater than 0.0500000
 =============================================
 22222220222//200/           0.0000000  -0.0000000  -0.0000000   0.0000617   0.0001063   0.0000076  -0.0859418   0.7852334
 222222202222///00          -0.0000000  -0.0000000   0.0000000  -0.0001359   0.0021180  -0.0002420   0.7229988  -0.3181897
 22222220222/2/00/           0.0017837   0.0062076   0.6810620  -0.0014112   0.0004035  -0.6840921  -0.0002390  -0.0000194
 222222202222//0/0           0.6810906   0.0004193  -0.0017876   0.6840915  -0.0001029  -0.0014113   0.0001101  -0.0000417
 22222220222/2//00           0.6810912   0.0004193  -0.0017876  -0.6840912   0.0001029   0.0014113  -0.0001101   0.0000416
 22222220222//20/0           0.0017837   0.0062076   0.6810636   0.0014112  -0.0004035   0.6840905   0.0002390   0.0000195
 222222202222//00/           0.0004356  -0.6810641   0.0062064   0.0001041   0.6840903   0.0004040  -0.0021481  -0.0003277
 22222220222//2/00          -0.0004356   0.6810660  -0.0062065   0.0001041   0.6840884   0.0004040  -0.0021481  -0.0003277
 22222220222/2/0/0           0.0000000  -0.0000000   0.0000000  -0.0000742   0.0022243  -0.0002343   0.6370582   0.4670433
 222222//22222/000          -0.1046022  -0.0000644   0.0002745  -0.0000004  -0.0000000   0.0000000  -0.0000000   0.0000000
 222222//2222/2000           0.0000669  -0.1045974   0.0009532  -0.0000000   0.0000002  -0.0000000  -0.0000000   0.0000000
 222222//222/22000           0.0002739   0.0009534   0.1045971   0.0000000  -0.0000000  -0.0000001  -0.0000000   0.0000000

 Coefficients of fixed reference functions:
 ==========================================

 State      Coefficients
 1           0.972317   -0.000622    0.002546   -0.000000    0.000000   -0.000000    0.000000    0.000000
 2           0.000599    0.972280    0.008862   -0.000000   -0.000000    0.000001    0.000000   -0.000000
 3          -0.002552   -0.008860    0.972276   -0.000000    0.000000   -0.000000    0.000001   -0.000000
 4           0.000000    0.000000    0.000000    0.971084   -0.000156    0.000148    0.002003    0.000061
 5           0.000000   -0.000001    0.000000   -0.000146    0.003054    0.971082   -0.000573    0.000436
 6          -0.000000   -0.000000   -0.000001   -0.002003   -0.000337    0.000574    0.971084   -0.000024
 7          -0.000000    0.000000   -0.000000    0.000156    0.971038   -0.003049    0.000339   -0.009145
 8          -0.000000    0.000000    0.000000   -0.000059    0.009143   -0.000465    0.000028    0.971043

 Coefficients of rotated reference functions:
 ============================================

 State      Coefficients
 1           0.972320    0.000000   -0.000000   -0.000000    0.000000   -0.000000    0.000000   -0.000000
 2           0.000000    0.972320   -0.000000    0.000000    0.000000   -0.000000    0.000000    0.000000
 3          -0.000000   -0.000000    0.972320    0.000000   -0.000000   -0.000000   -0.000000    0.000000
 4          -0.000000    0.000000    0.000000    0.971087   -0.000000   -0.000000    0.000000   -0.000000
 5           0.000000    0.000000   -0.000000   -0.000000    0.971087    0.000000   -0.000000   -0.000000
 6          -0.000000   -0.000000   -0.000000   -0.000000    0.000000    0.971087    0.000000    0.000000
 7           0.000000    0.000000   -0.000000    0.000000   -0.000000    0.000000    0.971086    0.000000
 8          -0.000000    0.000000    0.000000   -0.000000   -0.000000    0.000000    0.000000    0.971087


 RESULTS FOR STATE 1.2
 =====================

 Coefficient of reference function:   C(0) = 0.97231663 (fixed)   0.97248534 (relaxed)   0.97232017 (rotated)

 Energy contributions of configuration classes

 CLASS          SQ.NORM        ECORR1        ECORR2
 +++++++++++++++++++++++++++++++++++++++++++++++++++
 Internals    0.00042996   -0.00077276   -0.68321681
 Singles      0.01591984   -0.07878816   -0.08654398
 Pairs        0.04139625   -0.00000001   -0.03135282
 Total        1.05774605   -0.07956093   -0.80111361
 +++++++++++++++++++++++++++++++++++++++++++++++++++


 Reference energy                   -2604.05939710
 Nuclear energy                         0.00000000
 Kinetic energy                      2786.93042429
 One electron energy                -3616.88697874
 Two electron energy                 1012.02646803
 Virial quotient                       -0.93467009
 Correlation energy                    -0.80111361
 !MRCI STATE 1.2 Energy             -2604.860510709477

 Properties without orbital relaxation:

 !MRCI STATE 1.2 Dipole moment          0.00000000     0.00000000     0.00000000
 Dipole moment /Debye                   0.00000000     0.00000000     0.00000000

 Cluster corrected energies         -2604.90677186 (Davidson, fixed reference)
 Cluster corrected energies         -2604.90648403 (Davidson, relaxed reference)
 Cluster corrected energies         -2604.90677186 (Davidson, rotated reference)

 Cluster corrected energies         -2604.90463843 (Pople, fixed reference)
 Cluster corrected energies         -2604.90435052 (Pople, relaxed reference)
 Cluster corrected energies         -2604.90463843 (Pople, rotated reference)



 RESULTS FOR STATE 2.2
 =====================

 Coefficient of reference function:   C(0) = 0.97227964 (fixed)   0.97248539 (relaxed)   0.97232021 (rotated)

 Energy contributions of configuration classes

 CLASS          SQ.NORM        ECORR1        ECORR2
 +++++++++++++++++++++++++++++++++++++++++++++++++++
 Internals    0.00042996   -0.00077276   -0.68321686
 Singles      0.01591979   -0.07878808   -0.08654383
 Pairs        0.04139621    0.00000000   -0.03135282
 Total        1.05774596   -0.07956085   -0.80111350
 +++++++++++++++++++++++++++++++++++++++++++++++++++


 Reference energy                   -2604.05939710
 Nuclear energy                         0.00000000
 Kinetic energy                      2786.93044007
 One electron energy                -3616.88699227
 Two electron energy                 1012.02648167
 Virial quotient                       -0.93467008
 Correlation energy                    -0.80111350
 !MRCI STATE 2.2 Energy             -2604.860510603785

 Properties without orbital relaxation:

 !MRCI STATE 2.2 Dipole moment          0.00000000     0.00000000     0.00000000
 Dipole moment /Debye                   0.00000000     0.00000000     0.00000000

 Cluster corrected energies         -2604.90677167 (Davidson, fixed reference)
 Cluster corrected energies         -2604.90648384 (Davidson, relaxed reference)
 Cluster corrected energies         -2604.90677167 (Davidson, rotated reference)

 Cluster corrected energies         -2604.90463825 (Pople, fixed reference)
 Cluster corrected energies         -2604.90435033 (Pople, relaxed reference)
 Cluster corrected energies         -2604.90463825 (Pople, rotated reference)



 RESULTS FOR STATE 3.2
 =====================

 Coefficient of reference function:   C(0) = 0.97227648 (fixed)   0.97248538 (relaxed)   0.97232020 (rotated)

 Energy contributions of configuration classes

 CLASS          SQ.NORM        ECORR1        ECORR2
 +++++++++++++++++++++++++++++++++++++++++++++++++++
 Internals    0.00042996   -0.00077277   -0.68321687
 Singles      0.01591976   -0.07878803   -0.08654375
 Pairs        0.04139626    0.00000000   -0.03135286
 Total        1.05774599   -0.07956079   -0.80111349
 +++++++++++++++++++++++++++++++++++++++++++++++++++


 Reference energy                   -2604.05939710
 Nuclear energy                         0.00000000
 Kinetic energy                      2786.93043213
 One electron energy                -3616.88698449
 Two electron energy                 1012.02647390
 Virial quotient                       -0.93467009
 Correlation energy                    -0.80111349
 !MRCI STATE 3.2 Energy             -2604.860510585233

 Properties without orbital relaxation:

 !MRCI STATE 3.2 Dipole moment          0.00000000     0.00000000     0.00000000
 Dipole moment /Debye                   0.00000000     0.00000000     0.00000000

 Cluster corrected energies         -2604.90677167 (Davidson, fixed reference)
 Cluster corrected energies         -2604.90648384 (Davidson, relaxed reference)
 Cluster corrected energies         -2604.90677167 (Davidson, rotated reference)

 Cluster corrected energies         -2604.90463825 (Pople, fixed reference)
 Cluster corrected energies         -2604.90435033 (Pople, relaxed reference)
 Cluster corrected energies         -2604.90463825 (Pople, rotated reference)



 RESULTS FOR STATE 4.2
 =====================

 Coefficient of reference function:   C(0) = 0.97108442 (fixed)   0.97121925 (relaxed)   0.97108651 (rotated)

 Energy contributions of configuration classes

 CLASS          SQ.NORM        ECORR1        ECORR2
 +++++++++++++++++++++++++++++++++++++++++++++++++++
 Internals    0.00038105   -0.00086158   -0.68226371
 Singles      0.01856888   -0.08508511   -0.09438849
 Pairs        0.04148533   -0.00004508   -0.03166646
 Total        1.06043525   -0.08599176   -0.80831867
 +++++++++++++++++++++++++++++++++++++++++++++++++++


 Reference energy                   -2604.02612180
 Nuclear energy                         0.00000000
 Kinetic energy                      2786.99056077
 One electron energy                -3617.09205912
 Two electron energy                 1012.25761866
 Virial quotient                       -0.93464057
 Correlation energy                    -0.80831867
 !MRCI STATE 4.2 Energy             -2604.834440467680

 Properties without orbital relaxation:

 !MRCI STATE 4.2 Dipole moment          0.00000000     0.00000000     0.00000000
 Dipole moment /Debye                   0.00000000     0.00000000     0.00000000

 Cluster corrected energies         -2604.88329141 (Davidson, fixed reference)
 Cluster corrected energies         -2604.88305713 (Davidson, relaxed reference)
 Cluster corrected energies         -2604.88329141 (Davidson, rotated reference)

 Cluster corrected energies         -2604.88114499 (Pople, fixed reference)
 Cluster corrected energies         -2604.88090957 (Pople, relaxed reference)
 Cluster corrected energies         -2604.88114499 (Pople, rotated reference)



 RESULTS FOR STATE 5.2
 =====================

 Maximum overlap with reference state  6

 Coefficient of reference function:   C(0) = 0.97108160 (fixed)   0.97121942 (relaxed)   0.97108668 (rotated)

 Energy contributions of configuration classes

 CLASS          SQ.NORM        ECORR1        ECORR2
 +++++++++++++++++++++++++++++++++++++++++++++++++++
 Internals    0.00038106   -0.00086158   -0.68200029
 Singles      0.01856870   -0.08508487   -0.09438809
 Pairs        0.04148512   -0.00032466   -0.03193003
 Total        1.06043488   -0.08627111   -0.80831841
 +++++++++++++++++++++++++++++++++++++++++++++++++++


 Reference energy                   -2604.02612180
 Nuclear energy                         0.00000000
 Kinetic energy                      2786.99057152
 One electron energy                -3617.09207037
 Two electron energy                 1012.25763016
 Virial quotient                       -0.93464056
 Correlation energy                    -0.80831841
 !MRCI STATE 5.2 Energy             -2604.834440209984

 Properties without orbital relaxation:

 !MRCI STATE 5.2 Dipole moment          0.00000000     0.00000000     0.00000000
 Dipole moment /Debye                   0.00000000     0.00000000     0.00000000

 Cluster corrected energies         -2604.88329084 (Davidson, fixed reference)
 Cluster corrected energies         -2604.88305656 (Davidson, relaxed reference)
 Cluster corrected energies         -2604.88329084 (Davidson, rotated reference)

 Cluster corrected energies         -2604.88114442 (Pople, fixed reference)
 Cluster corrected energies         -2604.88090899 (Pople, relaxed reference)
 Cluster corrected energies         -2604.88114442 (Pople, rotated reference)



 RESULTS FOR STATE 6.2
 =====================

 Maximum overlap with reference state  7

 Coefficient of reference function:   C(0) = 0.97108439 (fixed)   0.97121942 (relaxed)   0.97108668 (rotated)

 Energy contributions of configuration classes

 CLASS          SQ.NORM        ECORR1        ECORR2
 +++++++++++++++++++++++++++++++++++++++++++++++++++
 Internals    0.00038106   -0.00086158   -0.68232356
 Singles      0.01856858   -0.08508470   -0.09438788
 Pairs        0.04148524    0.00001806   -0.03160689
 Total        1.06043488   -0.08592822   -0.80831833
 +++++++++++++++++++++++++++++++++++++++++++++++++++


 Reference energy                   -2604.02612180
 Nuclear energy                         0.00000000
 Kinetic energy                      2786.99056013
 One electron energy                -3617.09206105
 Two electron energy                 1012.25762093
 Virial quotient                       -0.93464057
 Correlation energy                    -0.80831833
 !MRCI STATE 6.2 Energy             -2604.834440122403

 Properties without orbital relaxation:

 !MRCI STATE 6.2 Dipole moment          0.00000000     0.00000000     0.00000000
 Dipole moment /Debye                   0.00000000     0.00000000     0.00000000

 Cluster corrected energies         -2604.88329074 (Davidson, fixed reference)
 Cluster corrected energies         -2604.88305646 (Davidson, relaxed reference)
 Cluster corrected energies         -2604.88329074 (Davidson, rotated reference)

 Cluster corrected energies         -2604.88114432 (Pople, fixed reference)
 Cluster corrected energies         -2604.88090889 (Pople, relaxed reference)
 Cluster corrected energies         -2604.88114432 (Pople, rotated reference)



 RESULTS FOR STATE 7.2
 =====================

 Maximum overlap with reference state  5

 Coefficient of reference function:   C(0) = 0.97103841 (fixed)   0.97121907 (relaxed)   0.97108632 (rotated)

 Energy contributions of configuration classes

 CLASS          SQ.NORM        ECORR1        ECORR2
 +++++++++++++++++++++++++++++++++++++++++++++++++++
 Internals    0.00038107   -0.00086150   -0.68872090
 Singles      0.01856863   -0.08508459   -0.09438777
 Pairs        0.04148596    0.00680257   -0.02520952
 Total        1.06043566   -0.07914352   -0.80831819
 +++++++++++++++++++++++++++++++++++++++++++++++++++


 Reference energy                   -2604.02612180
 Nuclear energy                         0.00000000
 Kinetic energy                      2786.99044214
 One electron energy                -3617.09198465
 Two electron energy                 1012.25754466
 Virial quotient                       -0.93464061
 Correlation energy                    -0.80831819
 !MRCI STATE 7.2 Energy             -2604.834439991138

 Properties without orbital relaxation:

 !MRCI STATE 7.2 Dipole moment          0.00000000     0.00000000     0.00000000
 Dipole moment /Debye                   0.00000000     0.00000000     0.00000000

 Cluster corrected energies         -2604.88329124 (Davidson, fixed reference)
 Cluster corrected energies         -2604.88305694 (Davidson, relaxed reference)
 Cluster corrected energies         -2604.88329124 (Davidson, rotated reference)

 Cluster corrected energies         -2604.88114482 (Pople, fixed reference)
 Cluster corrected energies         -2604.88090937 (Pople, relaxed reference)
 Cluster corrected energies         -2604.88114482 (Pople, rotated reference)



 RESULTS FOR STATE 8.2
 =====================

 Coefficient of reference function:   C(0) = 0.97104341 (fixed)   0.97121929 (relaxed)   0.97108657 (rotated)

 Energy contributions of configuration classes

 CLASS          SQ.NORM        ECORR1        ECORR2
 +++++++++++++++++++++++++++++++++++++++++++++++++++
 Internals    0.00038101   -0.00086150   -0.00113311
 Singles      0.01856814   -0.08508387   -0.09438671
 Pairs        0.04148597   -0.72234011   -0.71279777
 Total        1.06043513   -0.80828548   -0.80831759
 +++++++++++++++++++++++++++++++++++++++++++++++++++


 Reference energy                   -2604.02612180
 Nuclear energy                         0.00000000
 Kinetic energy                      2786.99042629
 One electron energy                -3617.09198984
 Two electron energy                 1012.25755045
 Virial quotient                       -0.93464061
 Correlation energy                    -0.80831759
 !MRCI STATE 8.2 Energy             -2604.834439392008

 Properties without orbital relaxation:

 !MRCI STATE 8.2 Dipole moment          0.00000000     0.00000000     0.00000000
 Dipole moment /Debye                   0.00000000     0.00000000     0.00000000

 Cluster corrected energies         -2604.88329017 (Davidson, fixed reference)
 Cluster corrected energies         -2604.88305592 (Davidson, relaxed reference)
 Cluster corrected energies         -2604.88329017 (Davidson, rotated reference)

 Cluster corrected energies         -2604.88114375 (Pople, fixed reference)
 Cluster corrected energies         -2604.88090835 (Pople, relaxed reference)
 Cluster corrected energies         -2604.88114375 (Pople, rotated reference)



 **********************************************************************************************************************************
 DATASETS  * FILE   NREC   LENGTH (MB)   RECORD NAMES
              1      24       39.37       500      610      700      900      950      970     1000      129      960     1700   
                                          VAR    BASINP    GEOM    SYMINP    ZMAT    AOBASIS   BASIS     P2S    ABASIS    OPER   
                                         1101     1401     1411     1412     1650     1100     1400     1410     1200     1210   
                                          SR      EKINR    POTR     PVPR    MOLCAS      S      EKIN      POT      H0       H01  
                                         1080     1600     1380     1700(1)
                                         AOSYM     SMH     JKOP     OPER   

              2       7     1402.70       700     1000      520     2100     2140     5203     5303   
                                         GEOM     BASIS   MCVARS     RHF     MCSCF    MRCI     MRCI   

 PROGRAMS   *        TOTAL        CI        CI     MULTI   RHF-SCF       INT
 CPU TIMES  *     53721.65  41175.17  12543.20      2.24      0.07      0.81
 REAL TIME  *     54000.82 SEC
 DISK USED  *         1.41 GB (local),        4.24 GB (total)
 SF USED    *        10.88 GB
 GA USED    *         0.00 MB       (max)       0.00 MB       (current)
 **********************************************************************************************************************************
 SETTING HLSDIAG(4)     =     -2604.90677186  AU                              
 SETTING HLSDIAG(5)     =     -2604.90677167  AU                              
 SETTING HLSDIAG(6)     =     -2604.90677167  AU                              
 SETTING HLSDIAG(7)     =     -2604.88329141  AU                              
 SETTING HLSDIAG(8)     =     -2604.88329084  AU                              
 SETTING HLSDIAG(9)     =     -2604.88329074  AU                              
 SETTING HLSDIAG(10)    =     -2604.88329124  AU                              
 SETTING HLSDIAG(11)    =     -2604.88329017  AU                              


         HLSDIAG
    -2605.388975
    -2605.388975
    -2605.388975
    -2604.906772
    -2604.906772
    -2604.906772
    -2604.883291
    -2604.883291
    -2604.883291
    -2604.883291
    -2604.883290
                                                  

 eXact-2-Component (X2C) method activated

 Computing Douglas-Kroll / X2C integrals

  

 PROGRAM * SEWLS (Spin-orbit & spin-spin integral evaluation)

 Modified from original SEWARD code by Alexander Mitrushchenkov

 Original version: December 2001, 2D-derivatives modifications: Stuttgart 2004
  
  
 The following spin-orbit components are calculated:
  
    Operator      Symmetry
  
      LSX            1
      LSY            1
      LSZ            1
  
 Integral cutoff:   0.10E-09

 Time for Seward_LS:       2.66 sec

        3455180. SPIN-ORBIT INTEGRALS WRITTEN OUT IN      947 RECORDS ON RECORD     11290 OF FILE 1


 CPU time:      2.66 sec, REAL time:      2.70 sec


 SORTLS1 read     3854414. and wrote     3854414. SO integrals in    18 records. CPU time:      0.03 sec, REAL time:      0.06 sec
 SORTLS2 read     3854414. and wrote    19118190. SO integrals in     9 records. CPU time:      0.02 sec, REAL time:      0.07 sec

 FILE SIZES: FILE 1:   103.4 MBYTE, FILE 4:     0.0 MBYTE, TOTAL:   103.4 MBYTE


 **********************************************************************************************************************************
 DATASETS  * FILE   NREC   LENGTH (MB)   RECORD NAMES
              1      24       98.60       500      610      700      900      950      970     1000      129      960     1700   
                                          VAR    BASINP    GEOM    SYMINP    ZMAT    AOBASIS   BASIS     P2S    ABASIS    OPER   
                                         1101     1401     1411     1412     1650     1100     1400     1410     1200     1210   
                                          SR      EKINR    POTR     PVPR    MOLCAS      S      EKIN      POT      H0       H01  
                                         1080     1600     1380     1700(1)
                                         AOSYM     SMH     JKOP     OPER   

              2       7     1402.70       700     1000      520     2100     2140     5203     5303   
                                         GEOM     BASIS   MCVARS     RHF     MCSCF    MRCI     MRCI   

 PROGRAMS   *        TOTAL     LSINT        CI        CI     MULTI   RHF-SCF       INT
 CPU TIMES  *     53725.22      3.55  41175.17  12543.20      2.24      0.07      0.81
 REAL TIME  *     54004.60 SEC
 DISK USED  *         1.41 GB (local),        4.44 GB (total)
 SF USED    *        10.88 GB
 GA USED    *         0.00 MB       (max)       0.00 MB       (current)
 **********************************************************************************************************************************


 PROGRAM * CI (Multireference internally contracted CI)     Authors: H.-J. Werner, P.J. Knowles, 1987


 Diagonal elements of H will be replaced by values from variable HLSDIAG


   ******************************
   *** Spin-orbit calculation ***
   ******************************


   Spin-orbit matrix elements
   ==========================

 eXact-2-Component (X2C) method activated

 Computing Douglas-Kroll / X2C integrals


 Preparing effective Fock matrices
 eXact-2-Component (X2C) method activated

 Computing Douglas-Kroll / X2C integrals

 Total X Y Z Fock matrices evaluated:     3    3    3
  
 Wavefunction restored from record  5203.2  Symmetry=2  S= 0.5  NSTATE=   3

 Original energies:  -2605.339101  -2605.339101  -2605.339101
 Replaced energies:  -2605.388975  -2605.388975  -2605.388975

 Wavefunction restored from record  5303.2  Symmetry=2  S= 1.5  NSTATE=   8

 Original energies:  -2604.860511  -2604.860511  -2604.860511  -2604.834440  -2604.834440  -2604.834440  -2604.834440  -2604.834439
 Replaced energies:  -2604.906772  -2604.906772  -2604.906772  -2604.883291  -2604.883291  -2604.883291  -2604.883291  -2604.883290

 >>> Fock matrix approximation error in all internal so: 
  -55.507829262737111       (exact)   -55.979049414361334       (Fock matrix)
 >>> Fock matrix approximation error in all internal so: 
   76.903387287585090       (exact)    77.556239751665046       (Fock matrix)
 >>> Fock matrix approximation error in all internal so: 
  0.24838699526751781       (exact)   0.25587602532926829       (Fock matrix)
 >>> Fock matrix approximation error in all internal so: 
  -3.4175251103416113E-002  (exact)   -3.4465427887293322E-002  (Fock matrix)
 >>> Fock matrix approximation error in all internal so: 
   4.7350725122711858E-002  (exact)    4.7752726599136472E-002  (Fock matrix)
 >>> Fock matrix approximation error in all internal so: 
  0.86441594670585076       (exact)   0.89047860783558652       (Fock matrix)
 >>> Fock matrix approximation error in all internal so: 
  0.14568830986703329       (exact)   0.14692527358942767       (Fock matrix)
 >>> Fock matrix approximation error in all internal so: 
 -0.20184382343468807       (exact)  -0.20355742909077656       (Fock matrix)
 >>> Fock matrix approximation error in all internal so: 
   94.839232857913260       (exact)    97.698706096273995       (Fock matrix)
 >>> Fock matrix approximation error in all internal so: 
   58.094918605084793       (exact)    58.592306362247349       (Fock matrix)
 >>> Fock matrix approximation error in all internal so: 
  -80.506079429231647       (exact)   -81.195783398224080       (Fock matrix)
[...]
                         0.108010313  -0.001494048  -0.402278562  -0.004951170  -0.000752724   0.180104456

   37    7.2  1.5 -1.5  -0.000690000  -0.140061216   0.002537764  -0.257467210  -0.353383009   0.000754452
                         0.000021357   0.246910410  -0.001983779   0.211182358   0.263882921  -0.000452395

   38    8.2  1.5 -1.5  -0.000098852   0.160936263   0.001569851  -0.217392354  -0.038719979   0.000105670
                        -0.000058577  -0.291517101  -0.000813866   0.182504808   0.028870021  -0.000068871


 Composition of spin-orbit eigenvectors
 ======================================

   Nr   State  S   Sz       1        2        3        4        5        6        7        8        9       10

    1    1.2  0.5  0.5   0.000%  16.339%  50.314%   0.000%   0.000%  33.325%   0.000%   0.000%   0.000%   0.000%
    2    2.2  0.5  0.5   0.000%  17.016%  49.637%   0.000%   0.000%  33.325%   0.000%   0.000%   0.000%   0.000%
    3    3.2  0.5  0.5  66.625%   0.000%   0.000%   0.028%  33.325%   0.000%   0.000%   0.000%   0.000%   0.000%
    4    1.2  0.5 -0.5  16.339%   0.000%   0.000%  50.314%  33.325%   0.000%   0.000%   0.000%   0.000%   0.000%
    5    2.2  0.5 -0.5  17.016%   0.000%   0.000%  49.637%  33.325%   0.000%   0.000%   0.000%   0.000%   0.000%
    6    3.2  0.5 -0.5   0.000%  66.625%   0.028%   0.000%   0.000%  33.325%   0.000%   0.000%   0.000%   0.000%
    7    1.2  1.5  1.5   0.000%   0.000%   0.006%   0.000%   0.000%   0.000%   0.012%   0.000%   0.000%  37.419%
    8    2.2  1.5  1.5   0.002%   0.000%   0.000%   0.000%   0.001%   0.000%   0.000%   4.797%   0.571%   0.000%
    9    3.2  1.5  1.5   0.002%   0.000%   0.000%   0.000%   0.001%   0.000%   0.000%   4.671%   0.457%   0.000%
   10    4.2  1.5  1.5   0.000%   0.002%   0.000%   0.000%   0.000%   0.004%   0.454%   0.000%   0.000%   0.000%
   11    5.2  1.5  1.5   0.002%   0.000%   0.000%   0.000%   0.001%   0.000%   0.000%   1.017%   0.009%   0.000%
   12    6.2  1.5  1.5   0.002%   0.000%   0.000%   0.000%   0.001%   0.000%   0.000%   1.026%   0.017%   0.000%
   13    7.2  1.5  1.5   0.000%   0.002%   0.000%   0.000%   0.000%   0.004%   0.453%   0.000%   0.000%   0.028%
   14    8.2  1.5  1.5   0.000%   0.000%   0.002%   0.000%   0.000%   0.000%   0.002%   0.000%   0.000%   2.664%
   15    1.2  1.5  0.5   0.001%   0.000%   0.000%   0.000%   0.001%   0.000%   0.000%  56.802%   0.019%   0.000%
   16    2.2  1.5  0.5   0.000%   0.003%   0.002%   0.000%   0.000%   0.000%  13.485%   0.000%   0.000%  28.774%
   17    3.2  1.5  0.5   0.000%   0.003%   0.002%   0.000%   0.000%   0.000%  14.933%   0.000%   0.000%  27.359%
   18    4.2  1.5  0.5   0.000%   0.000%   0.000%   0.002%   0.000%   0.000%   0.000%   0.000%   1.494%   0.000%
   19    5.2  1.5  0.5   0.000%   0.000%   0.002%   0.000%   0.000%   0.003%   0.936%   0.000%   0.000%   0.084%
   20    6.2  1.5  0.5   0.000%   0.000%   0.002%   0.000%   0.000%   0.003%   0.955%   0.000%   0.000%   0.066%
   21    7.2  1.5  0.5   0.000%   0.000%   0.000%   0.002%   0.000%   0.000%   0.000%   0.009%   0.920%   0.000%
   22    8.2  1.5  0.5   0.002%   0.000%   0.000%   0.000%   0.004%   0.000%   0.000%   0.445%   0.014%   0.000%
   23    1.2  1.5 -0.5   0.000%   0.001%   0.000%   0.000%   0.000%   0.001%  56.804%   0.000%   0.000%   0.018%
   24    2.2  1.5 -0.5   0.003%   0.000%   0.000%   0.002%   0.000%   0.000%   0.000%  13.459%  28.831%   0.000%
   25    3.2  1.5 -0.5   0.003%   0.000%   0.000%   0.002%   0.000%   0.000%   0.000%  14.961%  27.363%   0.000%
   26    4.2  1.5 -0.5   0.000%   0.000%   0.002%   0.000%   0.000%   0.000%   0.000%   0.000%   0.000%   1.508%
   27    5.2  1.5 -0.5   0.000%   0.000%   0.000%   0.002%   0.003%   0.000%   0.000%   0.936%   0.085%   0.000%
   28    6.2  1.5 -0.5   0.000%   0.000%   0.000%   0.002%   0.003%   0.000%   0.000%   0.956%   0.065%   0.000%
   29    7.2  1.5 -0.5   0.000%   0.000%   0.002%   0.000%   0.000%   0.000%   0.009%   0.000%   0.000%   0.907%
   30    8.2  1.5 -0.5   0.000%   0.002%   0.000%   0.000%   0.000%   0.004%   0.445%   0.000%   0.000%   0.014%
   31    1.2  1.5 -1.5   0.000%   0.000%   0.000%   0.006%   0.000%   0.000%   0.000%   0.013%  37.460%   0.000%
   32    2.2  1.5 -1.5   0.000%   0.002%   0.000%   0.000%   0.000%   0.001%   4.791%   0.000%   0.000%   0.624%
   33    3.2  1.5 -1.5   0.000%   0.002%   0.000%   0.000%   0.000%   0.001%   4.677%   0.000%   0.000%   0.508%
   34    4.2  1.5 -1.5   0.002%   0.000%   0.000%   0.000%   0.004%   0.000%   0.000%   0.454%   0.000%   0.000%
   35    5.2  1.5 -1.5   0.000%   0.002%   0.000%   0.000%   0.000%   0.001%   1.017%   0.000%   0.000%   0.010%
   36    6.2  1.5 -1.5   0.000%   0.002%   0.000%   0.000%   0.000%   0.001%   1.026%   0.000%   0.000%   0.018%
   37    7.2  1.5 -1.5   0.002%   0.000%   0.000%   0.000%   0.004%   0.000%   0.000%   0.453%   0.028%   0.000%
   38    8.2  1.5 -1.5   0.000%   0.000%   0.000%   0.002%   0.000%   0.000%   0.000%   0.002%   2.667%   0.000%

   Nr   State  S   Sz      11       12       13       14       15       16       17       18       19       20

    1    1.2  0.5  0.5   0.000%   0.000%   0.000%   0.003%   0.001%   0.000%   0.001%   0.000%   0.000%   0.000%
    2    2.2  0.5  0.5   0.000%   0.000%   0.000%   0.003%   0.001%   0.000%   0.001%   0.000%   0.000%   0.000%
    3    3.2  0.5  0.5   0.000%   0.000%   0.000%   0.000%   0.000%   0.004%   0.000%   0.001%   0.000%   0.000%
    4    1.2  0.5 -0.5   0.000%   0.000%   0.003%   0.000%   0.000%   0.001%   0.000%   0.001%   0.000%   0.000%
    5    2.2  0.5 -0.5   0.000%   0.000%   0.003%   0.000%   0.000%   0.001%   0.000%   0.001%   0.000%   0.000%
    6    3.2  0.5 -0.5   0.000%   0.000%   0.000%   0.000%   0.004%   0.000%   0.001%   0.000%   0.000%   0.000%
    7    1.2  1.5  1.5   0.451%   0.000%   0.000%  57.396%   0.016%   0.000%   0.000%   0.000%   0.000%   0.000%
    8    2.2  1.5  1.5   0.000%  46.718%   0.006%   0.000%   0.000%  19.131%   0.000%  24.627%   0.000%   0.000%
    9    3.2  1.5  1.5   0.000%  46.958%   0.006%   0.000%   0.000%  19.131%   0.000%  24.627%   0.000%   0.000%
   10    4.2  1.5  1.5   0.000%   0.000%   0.000%   0.000%   0.861%   0.000%   0.298%   0.000%  50.119%   0.000%
   11    5.2  1.5  1.5   0.000%   1.132%   0.000%   0.000%   0.000%   0.861%   0.000%   0.075%   0.000%   0.023%
   12    6.2  1.5  1.5   0.000%   1.114%   0.000%   0.000%   0.000%   0.861%   0.000%   0.075%   0.000%   0.001%
   13    7.2  1.5  1.5   0.000%   0.000%   0.000%   0.007%   0.854%   0.000%   0.295%   0.000%  49.249%   0.000%
   14    8.2  1.5  1.5   0.032%   0.000%   0.000%   0.854%   0.007%   0.000%   0.004%   0.000%   0.133%   0.000%
   15    1.2  1.5  0.5   0.000%   0.001%   0.002%   0.000%   0.000%   6.377%   0.000%  32.834%   0.000%   0.000%
   16    2.2  1.5  0.5   0.355%   0.000%   0.000%  18.407%  26.249%   0.000%   8.209%   0.000%   0.000%   0.000%
   17    3.2  1.5  0.5   0.322%   0.000%   0.000%  19.873%  24.783%   0.000%   8.209%   0.000%   0.000%   0.000%
   18    4.2  1.5  0.5   0.000%   1.230%   0.861%   0.000%   0.000%   0.000%   0.000%   0.000%   0.000%   0.076%
   19    5.2  1.5  0.5   0.001%   0.000%   0.000%   0.861%   0.000%   0.000%   0.224%   0.000%   0.085%   0.000%
   20    6.2  1.5  0.5   0.001%   0.000%   0.000%   0.861%   0.000%   0.000%   0.224%   0.000%   0.261%   0.000%
   21    7.2  1.5  0.5   0.000%   1.768%   0.854%   0.000%   0.000%   0.007%   0.000%   0.004%   0.000%   0.011%
   22    8.2  1.5  0.5   0.000%   0.022%   0.007%   0.000%   0.000%   0.854%   0.000%   0.295%   0.000%   0.041%
   23    1.2  1.5 -0.5   0.001%   0.000%   0.000%   0.002%   6.377%   0.000%  32.834%   0.000%   0.000%   0.000%
   24    2.2  1.5 -0.5   0.000%   0.324%  18.363%   0.000%   0.000%  26.293%   0.000%   8.209%   0.000%   0.000%
   25    3.2  1.5 -0.5   0.000%   0.291%  19.918%   0.000%   0.000%  24.738%   0.000%   8.209%   0.000%   0.000%
   26    4.2  1.5 -0.5   1.216%   0.000%   0.000%   0.861%   0.000%   0.000%   0.000%   0.000%   0.076%   0.000%
   27    5.2  1.5 -0.5   0.000%   0.001%   0.861%   0.000%   0.000%   0.000%   0.000%   0.224%   0.000%   0.085%
   28    6.2  1.5 -0.5   0.000%   0.001%   0.861%   0.000%   0.000%   0.000%   0.000%   0.224%   0.000%   0.261%
   29    7.2  1.5 -0.5   1.782%   0.000%   0.000%   0.854%   0.007%   0.000%   0.004%   0.000%   0.011%   0.000%
   30    8.2  1.5 -0.5   0.022%   0.000%   0.000%   0.007%   0.854%   0.000%   0.295%   0.000%   0.041%   0.000%
   31    1.2  1.5 -1.5   0.000%   0.410%  57.394%   0.000%   0.000%   0.018%   0.000%   0.000%   0.000%   0.000%
   32    2.2  1.5 -1.5  46.671%   0.000%   0.000%   0.005%  19.132%   0.000%  24.627%   0.000%   0.000%   0.000%
   33    3.2  1.5 -1.5  46.901%   0.000%   0.000%   0.005%  19.132%   0.000%  24.627%   0.000%   0.000%   0.000%
   34    4.2  1.5 -1.5   0.000%   0.000%   0.000%   0.000%   0.000%   0.861%   0.000%   0.298%   0.000%  50.119%
   35    5.2  1.5 -1.5   1.130%   0.000%   0.000%   0.000%   0.861%   0.000%   0.075%   0.000%   0.023%   0.000%
   36    6.2  1.5 -1.5   1.114%   0.000%   0.000%   0.000%   0.861%   0.000%   0.075%   0.000%   0.001%   0.000%
   37    7.2  1.5 -1.5   0.000%   0.000%   0.007%   0.000%   0.000%   0.854%   0.000%   0.295%   0.000%  49.251%
   38    8.2  1.5 -1.5   0.000%   0.029%   0.854%   0.000%   0.000%   0.007%   0.000%   0.004%   0.000%   0.133%

   Nr   State  S   Sz      21       22       23       24       25       26       27       28       29       30

    1    1.2  0.5  0.5   0.000%   0.000%   0.000%   0.000%   0.000%   0.000%   0.000%   0.000%   0.000%   0.000%
    2    2.2  0.5  0.5   0.000%   0.000%   0.000%   0.000%   0.000%   0.000%   0.000%   0.000%   0.000%   0.000%
    3    3.2  0.5  0.5   0.000%   0.000%   0.000%   0.000%   0.000%   0.000%   0.000%   0.000%   0.000%   0.000%
    4    1.2  0.5 -0.5   0.000%   0.000%   0.000%   0.000%   0.000%   0.000%   0.000%   0.000%   0.000%   0.000%
    5    2.2  0.5 -0.5   0.000%   0.000%   0.000%   0.000%   0.000%   0.000%   0.000%   0.000%   0.000%   0.000%
    6    3.2  0.5 -0.5   0.000%   0.000%   0.000%   0.000%   0.000%   0.000%   0.000%   0.000%   0.000%   0.000%
    7    1.2  1.5  1.5   0.000%   0.000%   0.000%   0.000%   0.000%   0.000%   0.000%   0.028%   0.000%   0.213%
    8    2.2  1.5  1.5   0.000%   0.000%   0.000%   0.000%   0.000%   0.000%   2.565%   0.000%   0.349%   0.000%
    9    3.2  1.5  1.5   0.000%   0.000%   0.000%   0.000%   0.000%   0.000%   2.661%   0.000%   0.148%   0.000%
   10    4.2  1.5  1.5   0.006%   0.000%   0.000%   0.581%   0.724%   0.000%   0.000%   0.007%   0.000%   7.269%
   11    5.2  1.5  1.5   0.006%  30.321%   0.916%   0.000%   0.000%   3.019%  21.136%   0.000%  14.189%   0.001%
   12    6.2  1.5  1.5   0.005%  25.994%   0.067%   0.000%   0.000%   8.217%  18.931%   0.000%  18.791%   0.000%
   13    7.2  1.5  1.5   0.051%   0.000%   0.000%   0.167%   1.689%   0.000%   0.001%   0.029%   0.000%   8.531%
   14    8.2  1.5  1.5   0.247%   0.000%   0.000%  26.322%   2.135%   0.000%   0.000%   0.611%   0.000%   3.634%
   15    1.2  1.5  0.5   0.000%   0.000%   0.000%   0.000%   0.000%   0.000%   0.003%   0.000%   2.856%   0.000%
   16    2.2  1.5  0.5   0.000%   0.000%   0.000%   0.000%   0.000%   0.000%   0.000%   0.014%   0.000%   0.197%
   17    3.2  1.5  0.5   0.000%   0.000%   0.000%   0.000%   0.000%   0.000%   0.000%   0.029%   0.000%   1.546%
   18    4.2  1.5  0.5   0.005%  23.310%   5.158%   0.000%   0.000%   0.027%  32.397%   0.000%   1.267%   0.001%
   19    5.2  1.5  0.5   0.014%   0.000%   0.000%  38.461%   7.157%   0.000%   0.000%   0.000%   0.000%  12.406%
   20    6.2  1.5  0.5   0.677%   0.000%   0.000%  16.715%  28.063%   0.000%   0.000%   0.064%   0.000%  18.142%
   21    7.2  1.5  0.5   0.004%  19.338%   9.345%   0.000%   0.000%   0.147%  21.194%   0.000%   4.262%   0.000%
   22    8.2  1.5  0.5   0.000%   0.018%   2.250%   0.000%   0.000%  48.845%   0.344%   0.000%   6.204%   0.000%
   23    1.2  1.5 -0.5   0.000%   0.000%   0.000%   0.000%   0.000%   0.000%   0.000%   0.003%   0.000%   2.846%
   24    2.2  1.5 -0.5   0.000%   0.000%   0.000%   0.000%   0.000%   0.000%   0.014%   0.000%   0.204%   0.000%
   25    3.2  1.5 -0.5   0.000%   0.000%   0.000%   0.000%   0.000%   0.000%   0.028%   0.000%   1.535%   0.000%
   26    4.2  1.5 -0.5  23.305%   0.005%   0.000%   5.162%   0.028%   0.000%   0.000%  32.442%   0.001%   1.302%
   27    5.2  1.5 -0.5   0.000%   0.014%  38.429%   0.000%   0.000%   7.189%   0.000%   0.000%  12.493%   0.000%
   28    6.2  1.5 -0.5   0.000%   0.680%  16.755%   0.000%   0.000%  28.021%   0.062%   0.000%  18.153%   0.000%
   29    7.2  1.5 -0.5  19.344%   0.004%   0.000%   9.337%   0.149%   0.000%   0.000%  21.145%   0.000%   4.378%
   30    8.2  1.5 -0.5   0.018%   0.000%   0.000%   2.270%  48.825%   0.000%   0.000%   0.345%   0.000%   6.165%
   31    1.2  1.5 -1.5   0.000%   0.000%   0.000%   0.000%   0.000%   0.000%   0.027%   0.000%   0.207%   0.000%
   32    2.2  1.5 -1.5   0.000%   0.000%   0.000%   0.000%   0.000%   0.000%   0.000%   2.564%   0.000%   0.350%
   33    3.2  1.5 -1.5   0.000%   0.000%   0.000%   0.000%   0.000%   0.000%   0.000%   2.661%   0.000%   0.146%
   34    4.2  1.5 -1.5   0.000%   0.006%   0.579%   0.000%   0.000%   0.726%   0.007%   0.000%   7.294%   0.000%
   35    5.2  1.5 -1.5  30.321%   0.006%   0.000%   0.917%   3.018%   0.000%   0.000%  21.148%   0.001%  14.094%
   36    6.2  1.5 -1.5  25.996%   0.005%   0.000%   0.069%   8.213%   0.000%   0.000%  18.910%   0.000%  18.778%
   37    7.2  1.5 -1.5   0.000%   0.051%   0.166%   0.000%   0.000%   1.689%   0.028%   0.001%   8.538%   0.000%
   38    8.2  1.5 -1.5   0.000%   0.249%  26.335%   0.000%   0.000%   2.120%   0.601%   0.000%   3.508%   0.000%

   Nr   State  S   Sz      31       32       33       34       35       36       37       38

    1    1.2  0.5  0.5   0.000%   0.000%   0.006%   0.000%   0.004%   0.000%   0.000%   0.008%
    2    2.2  0.5  0.5   0.000%   0.000%   0.007%   0.000%   0.002%   0.000%   0.000%   0.008%
    3    3.2  0.5  0.5   0.000%   0.000%   0.000%   0.003%   0.000%   0.006%   0.008%   0.000%
    4    1.2  0.5 -0.5   0.000%   0.000%   0.000%   0.004%   0.000%   0.005%   0.008%   0.000%
    5    2.2  0.5 -0.5   0.000%   0.000%   0.000%   0.007%   0.000%   0.003%   0.008%   0.000%
    6    3.2  0.5 -0.5   0.000%   0.000%   0.001%   0.000%   0.008%   0.000%   0.000%   0.008%
    7    1.2  1.5  1.5   1.878%   0.000%   2.223%   0.000%   0.359%   0.000%   0.000%   0.000%
    8    2.2  1.5  1.5   0.000%   0.000%   0.000%   0.272%   0.000%   0.588%   0.373%   0.000%
    9    3.2  1.5  1.5   0.000%   0.104%   0.000%   0.272%   0.000%   0.588%   0.373%   0.000%
   10    4.2  1.5  1.5   0.842%   0.000%   2.660%   0.000%  16.484%   0.003%   0.000%  19.684%
   11    5.2  1.5  1.5   0.000%   3.234%   0.000%   6.043%   0.001%  13.087%   4.929%   0.000%
   12    6.2  1.5  1.5   0.000%   0.836%   0.000%   6.043%   0.003%  13.086%   4.929%   0.000%
   13    7.2  1.5  1.5   0.039%   0.000%   4.256%   0.000%  14.890%   0.001%   0.000%  19.451%
   14    8.2  1.5  1.5  43.975%   0.000%  14.890%   0.000%   4.256%   0.000%   0.000%   0.233%
   15    1.2  1.5  0.5   0.000%   0.320%   0.000%   0.091%   0.000%   0.196%   0.496%   0.000%
   16    2.2  1.5  0.5   2.174%   0.000%   1.587%   0.000%   0.420%   0.000%   0.000%   0.124%
   17    3.2  1.5  0.5   0.810%   0.000%   0.213%   0.000%   1.794%   0.000%   0.000%   0.124%
   18    4.2  1.5  0.5   0.000%  15.041%   0.000%  13.088%   0.000%   6.043%   0.000%   0.000%
   19    5.2  1.5  0.5   5.852%   0.001%  16.485%   0.000%   2.654%   0.000%   0.000%  14.772%
   20    6.2  1.5  0.5   0.053%   0.000%  16.474%   0.000%   2.662%   0.000%   0.000%  14.776%
   21    7.2  1.5  0.5   0.000%  22.769%   0.000%  11.082%   0.001%   8.049%   0.233%   0.000%
   22    8.2  1.5  0.5   0.000%   2.050%   0.000%   8.047%   0.002%  11.077%  19.478%   0.000%
   23    1.2  1.5 -0.5   0.330%   0.000%   0.040%   0.000%   0.247%   0.000%   0.000%   0.496%
   24    2.2  1.5 -0.5   0.000%   2.167%   0.000%   1.874%   0.000%   0.133%   0.124%   0.000%
   25    3.2  1.5 -0.5   0.000%   0.822%   0.000%   0.027%   0.000%   1.979%   0.124%   0.000%
   26    4.2  1.5 -0.5  14.961%   0.000%  16.473%   0.000%   2.657%   0.000%   0.000%   0.000%
   27    5.2  1.5 -0.5   0.001%   5.766%   0.000%  13.099%   0.000%   6.040%  14.772%   0.000%
   28    6.2  1.5 -0.5   0.000%   0.044%   0.000%  13.086%   0.000%   6.050%  14.776%   0.000%
   29    7.2  1.5 -0.5  22.703%   0.000%  14.881%   0.000%   4.251%   0.000%   0.000%   0.233%
   30    8.2  1.5 -0.5   2.088%   0.000%   4.250%   0.000%  14.874%   0.002%   0.000%  19.478%
   31    1.2  1.5 -1.5   0.000%   1.885%   0.000%   1.766%   0.000%   0.815%   0.000%   0.000%
   32    2.2  1.5 -1.5   0.000%   0.000%   0.119%   0.000%   0.740%   0.000%   0.000%   0.373%
   33    3.2  1.5 -1.5   0.106%   0.000%   0.119%   0.000%   0.740%   0.000%   0.000%   0.373%
   34    4.2  1.5 -1.5   0.000%   0.817%   0.000%   6.049%   0.003%  13.095%  19.684%   0.000%
   35    5.2  1.5 -1.5   3.317%   0.000%   2.657%   0.000%  16.473%   0.001%   0.000%   4.929%
   36    6.2  1.5 -1.5   0.870%   0.000%   2.657%   0.000%  16.472%   0.003%   0.000%   4.929%
   37    7.2  1.5 -1.5   0.000%   0.033%   0.000%   8.058%   0.001%  11.089%  19.451%   0.000%
   38    8.2  1.5 -1.5   0.000%  44.111%   0.000%  11.088%   0.000%   8.057%   0.233%   0.000%


 Property matrices transformed in SO basis (not sym. adapted)
 ============================================================

 No matrix element <i|DMX|i> larger than 5E-7
 No matrix element <i|DMX|1> larger than 5E-7

 No matrix element <i|DMY|i> larger than 5E-7
 No matrix element <i|DMY|1> larger than 5E-7

 No matrix element <i|DMZ|i> larger than 5E-7
 No matrix element <i|DMZ|1> larger than 5E-7


 **********************************************************************************************************************************
 DATASETS  * FILE   NREC   LENGTH (MB)   RECORD NAMES
              1      24       98.60       500      610      700      900      950      970     1000      129      960     1700   
                                          VAR    BASINP    GEOM    SYMINP    ZMAT    AOBASIS   BASIS     P2S    ABASIS    OPER   
                                         1101     1401     1411     1412     1650     1100     1400     1410     1200     1210   
                                          SR      EKINR    POTR     PVPR    MOLCAS      S      EKIN      POT      H0       H01  
                                         1080     1600     1380     1700(1)
                                         AOSYM     SMH     JKOP     OPER   

              2       7     1402.70       700     1000      520     2100     2140     5203     5303   
                                         GEOM     BASIS   MCVARS     RHF     MCSCF    MRCI     MRCI   

 PROGRAMS   *        TOTAL        CI     LSINT        CI        CI     MULTI   RHF-SCF       INT
 CPU TIMES  *    522073.96 468348.74      3.55  41175.17  12543.20      2.24      0.07      0.81
 REAL TIME  *    525256.80 SEC
 DISK USED  *         1.41 GB (local),        4.44 GB (total)
 SF USED    *        10.88 GB
 GA USED    *         0.00 MB       (max)       0.00 MB       (current)
 **********************************************************************************************************************************

 CI/cc-pWCVTZ-X2C energy=  -2604.877043929110

              CI              CI           MULTI         RHF-SCF
  -2604.83443939  -2605.33910076  -2604.02612180  -2604.59617826
 **********************************************************************************************************************************
 Molpro calculation terminated with 1 warning(s)
