
 Working directory              : /wrk/irikura/molpro.CnrE4wTqLt/
 Global scratch directory       : /wrk/irikura/molpro.CnrE4wTqLt/
 Wavefunction directory         : /home/irikura/wfu/
 Main file repository           : /wrk/irikura/molpro.CnrE4wTqLt/

 id        : nistki

 Nodes     nprocs
 comp-63      3
 Distribution of processes:   nprocs(total)=    4   nprocs(compute)=    3   nprocs(helper)=    1
 GA implementation: MPI file
 GA implementation (serial work in mppx): MPI file

 Using customized tuning parameters: mindgm=1; mindgv=20; mindgc=4; mindgr=1; noblas=0; minvec=7
 default implementation of scratch files=sf  


 Variables initialized (1042), CPU time= 0.00 sec
 ***,Br SO-CI
                                                                                 ! active space (7/4)
                                                                                 ! additional diffuse spdf functions
 memory,3000,M;
 
 gprint,orbitals,civector;
                                                                                 !gthresh,energy=1.d-10,coeff=1.d-8;
 
 symmetry,xyz
 geometry={Br};
 
 basis={
 ecp,br,ECP10MDF;
 spdfghi,br,aug-cc-pwCV5Z-PP;C; spdf,1,even,nprim=1,ratio=3.0;
 }
 
 {rhf;wf,charge=-1}
 
 NDOUB=3
 NQUAR=8
 
 {multi
     occ,8,9
     closed,6,3
     wf,charge=0,sym=2,spin=1;state,NDOUB;
     wf,charge=0,sym=2,spin=3;state,NQUAR;
     expec2,lxx,lyy,lzz;
 }
 table, energy, ll
 title, Energies and &lt;L**2&gt; values
 
 core,0,0
 
 {ci;wf,sym=2,spin=1;state,NDOUB; save,5203.2}
 hlsdiag = energd4
 {ci;wf,sym=2,spin=3;state,NQUAR; save,5303.2}
 hlsdiag(NDOUB+1) = energd4
 
 table,hlsdiag
 
 {ci;hlsmat,ecp,5203.2,5303.2;print,vls=0,hls=0}                                 !compute and diagonalize SO matrix
 Commands initialized (847), CPU time= 0.00 sec, 718 directives.
 Default parameters read. Elapsed time= 0.13 sec

 Checking input...
 Passed
1


                                         ***  PROGRAM SYSTEM MOLPRO  ***
                                       Copyright, TTI GmbH Stuttgart, 2015
                                    Version 2024.1 linked Wed Jan 31 08:33:13 2024


 **********************************************************************************************************************************
 LABEL *   Br SO-CI                                                                                                                                                      
  (16 PROC) 64 bit mpp version                                                           DATE: 25-Jul-24          TIME: 14:37:57  
 **********************************************************************************************************************************

 SHA1:             675817fde4514a4a933b69e420913a90cee4ef91
 **********************************************************************************************************************************

 Memory per process:      3000 MW
 Total memory per node:   9000 MW

 GA preallocation disabled
 GA check disabled

 Variable memory set to 3000.0 MW


 ZSYMEL=XYZ

 SETTING BASIS          =    USERDEF


 Recomputing integrals since basis changed


 Using spherical harmonics

 Library entry Br   ECP ECP10MDF                 selected for group  1
 Library entry BR     S AUG-CC-PWCV5Z-PP     selected for orbital group  1
 Even tempered Br S diffuse               selected for group 1    nprim= 1    centre=  0.013    ratio= 3.000    dratio= 1.000
 Library entry BR     P AUG-CC-PWCV5Z-PP     selected for orbital group  1
 Even tempered Br P diffuse               selected for group 1    nprim= 1    centre=  0.009    ratio= 3.000    dratio= 1.000
 Library entry BR     D AUG-CC-PWCV5Z-PP     selected for orbital group  1
 Even tempered Br D diffuse               selected for group 1    nprim= 1    centre=  0.022    ratio= 3.000    dratio= 1.000
 Library entry BR     F AUG-CC-PWCV5Z-PP     selected for orbital group  1
 Even tempered Br F diffuse               selected for group 1    nprim= 1    centre=  0.043    ratio= 3.000    dratio= 1.000
 Library entry BR     G AUG-CC-PWCV5Z-PP     selected for orbital group  1
 Library entry BR     H AUG-CC-PWCV5Z-PP     selected for orbital group  1
 Library entry BR     I AUG-CC-PWCV5Z-PP     selected for orbital group  1


 PROGRAM * SEWARD (Integral evaluation for generally contracted gaussian basis sets)     Author: Roland Lindh, 1990

 Geometry written to block  1 of record 700

 Orientation using atomic masses  
 Molecule type: Atom
 User-specified symmetry elements: XYZ
 Symmetry elements: XYZ
 Rotational constants:       0.0000000      0.0000000      0.0000000 GHz  (calculated with average atomic masses)

 Point group  Ci  



 ATOMIC COORDINATES

 NR  ATOM    CHARGE       X              Y              Z

   1  BR     25.00    0.000000000    0.000000000    0.000000000

 NUCLEAR CHARGE:                   25
 NUMBER OF PRIMITIVE AOS:         485
 NUMBER OF SYMMETRY AOS:          348
 NUMBER OF CONTRACTIONS:          281   (  135Ag  +  146Au  )
 NUMBER OF INNER CORE ORBITALS:     0   (    0Ag  +    0Au  )
 NUMBER OF OUTER CORE ORBITALS:     9   (    6Ag  +    3Au  )
 NUMBER OF VALENCE ORBITALS:        4   (    1Ag  +    3Au  )


 LX: Ag           LY: Ag           LZ: Ag 


 NUCLEAR REPULSION ENERGY    0.00000000

 EXTRA SYMMETRY OF AOS IN SYMMETRY 1:   1 1 1 1 1 1 1 1 1 1   1 1 1 2 3 4 5 6 2 3   4 5 6 2 3 4 5 6 2 3   4 5 6 2 3 4 5 6 2 3
                                        4 5 6 2 3 4 5 6 2 3   4 5 6 2 3 4 5 6 2 3   4 5 6 2 3 4 5 6 7 8   9101112131415 7 8 9
                                       101112131415 7 8 910  1112131415 7 8 91011  12131415 7 8 9101112  131415 7 8 910111213
                                       14151617181920212223  2425262728
 EXTRA SYMMETRY OF AOS IN SYMMETRY 2:   1 2 3 1 2 3 1 2 3 1   2 3 1 2 3 1 2 3 1 2   3 1 2 3 1 2 3 1 2 3   1 2 3 1 2 3 1 2 3 4
                                        5 6 7 8 910 4 5 6 7   8 910 4 5 6 7 8 910   4 5 6 7 8 910 4 5 6   7 8 910 4 5 6 7 8 9
                                       10 4 5 6 7 8 910 4 5   6 7 8 910 4 5 6 7 8   9101112131415161718  19202111121314151617
                                       18192021111213141516  17181920211112131415  161718192021


 Eigenvalues of metric

         1 0.358E-04 0.144E-03 0.508E-03 0.113E-02 0.113E-02 0.113E-02 0.113E-02 0.113E-02
         2 0.224E-04 0.224E-04 0.224E-04 0.513E-03 0.513E-03 0.513E-03 0.324E-02 0.324E-02


 Contracted 2-electron integrals neglected if value below      1.0D-12
 AO integral compression algorithm  1   Integral accuracy      1.0D-12

     684.458 MB (compressed) written to integral file ( 13.2%)

     Node minimum: 208.404 MB, node maximum: 241.172 MB


 NUMBER OF SORTED TWO-ELECTRON INTEGRALS:  131758329.     BUFFER LENGTH:  32768
 NUMBER OF SEGMENTS:   9  SEGMENT LENGTH:   15997680      RECORD LENGTH: 524288

 Memory used in sort:      16.55 MW

 SORT1 READ   646821870. AND WROTE    21840764. INTEGRALS IN     67 RECORDS. CPU TIME:     2.50 SEC, REAL TIME:     2.76 SEC
 SORT2 READ    68060996. AND WROTE   395255076. INTEGRALS IN   2760 RECORDS. CPU TIME:     1.34 SEC, REAL TIME:     1.54 SEC

 Node minimum:   131745055.  Node maximum:   131758329. integrals

 OPERATOR DM      FOR CENTER  0  COORDINATES:    0.000000    0.000000    0.000000


 **********************************************************************************************************************************
 DATASETS  * FILE   NREC   LENGTH (MB)   RECORD NAMES
              1      19       30.69       500      610      700      900      950      970     1000      129      960     1100   
                                          VAR    BASINP    GEOM    SYMINP    ZMAT    AOBASIS   BASIS     P2S    ABASIS      S 
                                         1400     1410     1420     1200     1210     1080     1700     1600     1650   
                                           T        V       ECP      H0       H01     AOSYM    OPER      SMH    MOLCAS    

 PROGRAMS   *        TOTAL       INT
 CPU TIMES  *        19.24     19.09
 REAL TIME  *        21.50 SEC
 DISK USED  *        31.11 MB (local),        1.44 GB (total)
 GA USED    *         0.00 MB       (max)       0.00 MB       (current)
 **********************************************************************************************************************************


 Program * Restricted Hartree-Fock

 Orbital guess generated from atomic densities.

 Initial occupancy:   7   6

 NELEC=   26   SYM=1   MS2= 0   THRE=1.0D-08   THRD=3.2D-06   THRG=3.2D-06  HFMA2=F  DIIS_START=2   DIIS_MAX=10   DIIS_INCORE=F

 Level shifts:    0.00 (CLOSED)    0.00 (OPEN)    0.30 (GAP_MIN)

 ITER           ETOT              DE          GRAD        DDIFF     DIIS  NEXP   TIME(IT)  TIME(TOT)  DIAG
   1     -415.54383629    -415.54383629     0.00D+00     0.46D-01     0     0       0.58      1.15    start
   2     -415.57625381      -0.03241752     0.34D-02     0.22D-02     1     0       0.59      1.74    diag
   3     -415.57869957      -0.00244576     0.21D-02     0.50D-03     2     0       0.59      2.33    diag
   4     -415.57906520      -0.00036562     0.46D-03     0.25D-03     3     0       0.59      2.92    diag
   5     -415.57917031      -0.00010512     0.12D-03     0.17D-03     4     0       0.59      3.51    diag
   6     -415.57917880      -0.00000849     0.35D-04     0.56D-04     5     0       0.59      4.10    diag
   7     -415.57917924      -0.00000043     0.52D-05     0.15D-04     6     0       0.59      4.69    diag
   8     -415.57917925      -0.00000001     0.11D-05     0.31D-05     7     0       0.59      5.28    fixocc
   9     -415.57917925      -0.00000000     0.29D-06     0.47D-06     8     0       0.60      5.88    diag
  10     -415.57917925      -0.00000000     0.94D-07     0.14D-06     0     0       0.59      6.47    diag/orth

 Final occupancy:   7   6

 !RHF STATE 1.1 Energy               -415.579179251566
  RHF One-electron energy            -738.024426993346
  RHF Two-electron energy             322.445247741781
  RHF Kinetic energy                  295.794774269800
  RHF Nuclear energy                    0.000000000000
  RHF Virial quotient                  -1.404957813327

 !RHF STATE 1.1 Dipole moment           0.00000000     0.00000000     0.00000000
 Dipole moment /Debye                   0.00000000     0.00000000     0.00000000

 ELECTRON ORBITALS
 =================

  Orbital  Occupation    Energy    Cen Mu Typ  Coefficients
    1.1     2.00000    -9.52315     1  1  s    0.99989
    2.1     2.00000    -2.82153     1  1  d1+  0.85804    1  1  d2+ -0.49825
    3.1     2.00000    -2.82153     1  1  d2-  0.51019    1  1  d1-  0.85982
    4.1     2.00000    -2.82153     1  1  d2- -0.42364    1  1  d1+  0.38116    1  1  d2+  0.77881    1  1  d1-  0.26152
    5.1     2.00000    -2.82153     1  1  d2-  0.73991    1  1  d1+  0.34391    1  1  d2+  0.38026    1  1  d1- -0.43528
    6.1     2.00000    -2.82153     1  1  d0   0.99980
    7.1     2.00000    -0.71242     1  1  s   -0.39934    1  5  s    0.50026    1  6  s    0.51371
    1.2     2.00000    -7.27046     1  1  px   1.00004
    2.2     2.00000    -7.27046     1  1  pz   1.00002
    3.2     2.00000    -7.27046     1  1  py   1.00002
    4.2     2.00000    -0.13748     1  1  px  -0.26502    1  4  px   0.26547    1  5  px   0.39269    1  6  px   0.33350
    5.2     2.00000    -0.13748     1  5  py   0.32750    1  6  py   0.27814
    6.2     2.00000    -0.13748     1  5  pz   0.32750    1  6  pz   0.27814


 HOMO      6.2    -0.137484 =      -3.7411eV
 LUMO      7.2     0.099593 =       2.7101eV
 LUMO-HOMO         0.237076 =       6.4512eV

 Orbitals saved in record  2100.2


 **********************************************************************************************************************************
 DATASETS  * FILE   NREC   LENGTH (MB)   RECORD NAMES
              1      19       30.69       500      610      700      900      950      970     1000      129      960     1100   
                                          VAR    BASINP    GEOM    SYMINP    ZMAT    AOBASIS   BASIS     P2S    ABASIS      S 
                                         1400     1410     1420     1200     1210     1080     1700     1600     1650   
                                           T        V       ECP      H0       H01     AOSYM    OPER      SMH    MOLCAS    

              2       4        1.03       700     1000      520     2100   
                                         GEOM     BASIS   MCVARS     RHF  

 PROGRAMS   *        TOTAL   RHF-SCF       INT
 CPU TIMES  *        25.71      6.47     19.09
 REAL TIME  *        28.32 SEC
 DISK USED  *        34.43 MB (local),        1.45 GB (total)
 GA USED    *         0.00 MB       (max)       0.00 MB       (current)
 **********************************************************************************************************************************
 SETTING NDOUB          =         3.00000000                                  
 SETTING NQUAR          =         8.00000000                                  

 PROGRAM * MULTI (Direct Multiconfiguration SCF)       Authors: P.J. Knowles, H.-J. Werner (1984)
                                                                D.A. Kreplin, P.J. Knowles, H.-J. Werner (2019)

 Number of closed-shell orbitals:   9 (    6    3)
 Number of active  orbitals:        8 (    2    6)
 Number of external orbitals:     264 (  127  137)

 State symmetry 1

 Number of active electrons:   7    Spin symmetry=Doublet   Space symmetry=2
 Number of states:             3
 Number of CSFs:            1204   (1980 determinants, 3920 intermediate states)

 State symmetry 2

 Number of active electrons:   7    Spin symmetry=Quartet   Space symmetry=2
 Number of states:             8
 Number of CSFs:             656   (776 determinants, 1568 intermediate states)

 Molecular orbitals read from record     2100.2  Type=RHF/CANONICAL  
 *** IN SYMMETRY 1 ORBITAL  2 SYMMETRY CONTAMINATION OF 0.439D+00 HAS BEEN REMOVED
 *** IN SYMMETRY 1 ORBITAL  3 SYMMETRY CONTAMINATION OF 0.382D+00 HAS BEEN REMOVED
 *** IN SYMMETRY 1 ORBITAL  4 SYMMETRY CONTAMINATION OF 0.581D+00 HAS BEEN REMOVED
 *** IN SYMMETRY 1 ORBITAL  5 SYMMETRY CONTAMINATION OF 0.611D+00 HAS BEEN REMOVED
 *** IN SYMMETRY 1 ORBITAL  6 SYMMETRY CONTAMINATION OF 0.172D-01 HAS BEEN REMOVED

 EXTRA SYMMETRY OF MOS IN SYMMETRY 1:   1 4 6 5 3 2 1 1 2 3   5 4 6 1 2 3 5 4 6 1   2 5 3 4 61310 812 7  11 91415 2 4 6 5 3 1
                                       13 71011 9 8121415 6   4 2 5 3 1 9111310 8  12 71415 4 6 5 3 2 1   91112 813141510 7 4
                                        6 2 3 5262324192217  21161820282725 112 8  1114 915 71310 4 5 3   6 2 1 5 3 4 6 211 9
                                        712 814151310 1 5 4   6 3 2 1 1
 *** IN SYMMETRY 2 ORBITAL  1 SYMMETRY CONTAMINATION OF 0.728D-04 HAS BEEN REMOVED
 *** IN SYMMETRY 2 ORBITAL  2 SYMMETRY CONTAMINATION OF 0.647D-02 HAS BEEN REMOVED
 *** IN SYMMETRY 2 ORBITAL  3 SYMMETRY CONTAMINATION OF 0.651D-02 HAS BEEN REMOVED
 *** IN SYMMETRY 2 ORBITAL  5 SYMMETRY CONTAMINATION OF 0.398D+00 HAS BEEN REMOVED
 *** IN SYMMETRY 2 ORBITAL  6 SYMMETRY CONTAMINATION OF 0.398D+00 HAS BEEN REMOVED
 *** IN SYMMETRY 2 ORBITAL  7 SYMMETRY CONTAMINATION OF 0.125D-01 HAS BEEN REMOVED
 *** IN SYMMETRY 2 ORBITAL  8 SYMMETRY CONTAMINATION OF 0.125D-01 HAS BEEN REMOVED
 EXTRA SYMMETRY OF MOS IN SYMMETRY 2:   1 3 2 1 2 3 3 2 1 3   2 110 8 6 7 9 4 5 3   2 1 7 9 4 5 6 810 3   2 1 810 9 7 6 5 4 3
                                        2 110 8 6 9 7 4 521  13182016141517191211   810 9 7 5 4 6 2 1 3  14161820132117111215
                                       19 4 5 810 7 9 6 1 2   3182019141615172113  1211 7 9 5 4 810 6 2   1 3 7 9 6 5 410 819
                                       21181320111214161517   2 1 3 6 9 7 5 4 810   2 3 1 2 3 1

 Wavefunction dump at record             2140.2

 Convergence thresholds  0.10E-04 (gradient)  0.10E-05 (energy)

 Weight factors for state symmetry  1:    0.09091   0.09091   0.09091
 Weight factors for state symmetry  2:    0.09091   0.09091   0.09091   0.09091   0.09091   0.09091   0.09091   0.09091
 
 Number of orbital rotations:  2279  ( 30 closed/active, 1173 closed/virtual, 0 active/active, 1076 active/virtual )
 Total number of variables:    14427
 
 Second-order MCSCF: L-BFGS accelerated
 
 ITER  MIC  NCI  NEG     ENERGY(VAR)    ENERGY(PROJ) ENERGY CHANGE       GRAD(0)  GRAD(ORB)   GRAD(CI)      STEP      TIME
   1   15   65    0   -415.12140132    -415.28849262   -0.16709130    0.45319864 0.00541832 0.00222249  0.15E+01      4.80
   2    8   33    0   -415.24915987    -415.26143266   -0.01227280    0.35337517 0.00026228 0.00070858  0.52E+00      9.18
   3    9   37    0   -415.26149248    -415.26149453   -0.00000205    0.00311958 0.00000484 0.00000736  0.14E-01     13.63
   4    5   19    0   -415.26149453    -415.26149453   -0.00000000    0.00000065 0.00000000 0.00000012  0.14E-04     17.29

 CONVERGENCE REACHED!  Final gradient:    0.00000001 ( 0.95E-08)
                       Final energy:   -415.26149453
 
 Results for state 1.2 Doublet
 =============================
 !MCSCF STATE 1.2 Doublet Energy              -415.481267705304
 Nuclear energy                                  0.00000000
 Kinetic energy                                296.13519316
 One electron energy                          -730.73002832
 Two electron energy                           315.24876061
 Virial ratio                                    2.40301213
 
 !MCSCF STATE 1.2 Doublet Dipole moment          0.00000000     0.00000000     0.00000000
 Dipole moment /Debye                            0.00000000     0.00000000     0.00000000
 
 Results for state 2.2 Doublet
 =============================
 !MCSCF STATE 2.2 Doublet Energy              -415.481267705304
 Nuclear energy                                  0.00000000
 Kinetic energy                                296.13519316
 One electron energy                          -730.73002832
 Two electron energy                           315.24876061
 Virial ratio                                    2.40301213
 
 !MCSCF STATE 2.2 Doublet Dipole moment          0.00000000     0.00000000     0.00000000
 Dipole moment /Debye                            0.00000000     0.00000000     0.00000000
 
 Results for state 3.2 Doublet
 =============================
 !MCSCF STATE 3.2 Doublet Energy              -415.481267705304
 Nuclear energy                                  0.00000000
 Kinetic energy                                296.13519316
 One electron energy                          -730.73002832
 Two electron energy                           315.24876061
 Virial ratio                                    2.40301213
 
 !MCSCF STATE 3.2 Doublet Dipole moment          0.00000000     0.00000000     0.00000000
 Dipole moment /Debye                            0.00000000     0.00000000     0.00000000
 
 Results for state 1.2 Quartet
 =============================
 !MCSCF STATE 1.2 Quartet Energy              -415.183216335949
 Nuclear energy                                  0.00000000
 Kinetic energy                                295.28173990
 One electron energy                          -722.99148300
 Two electron energy                           307.80826666
 Virial ratio                                    2.40605788
 
 !MCSCF STATE 1.2 Quartet Dipole moment          0.00000000     0.00000000     0.00000000
 Dipole moment /Debye                            0.00000000     0.00000000     0.00000000
 
 Results for state 2.2 Quartet
 =============================
 !MCSCF STATE 2.2 Quartet Energy              -415.183216335949
 Nuclear energy                                  0.00000000
 Kinetic energy                                295.28173990
 One electron energy                          -722.99148300
 Two electron energy                           307.80826666
 Virial ratio                                    2.40605788
 
 !MCSCF STATE 2.2 Quartet Dipole moment          0.00000000     0.00000000     0.00000000
 Dipole moment /Debye                            0.00000000     0.00000000     0.00000000
 
 Results for state 3.2 Quartet
 =============================
 !MCSCF STATE 3.2 Quartet Energy              -415.183216335948
 Nuclear energy                                  0.00000000
 Kinetic energy                                295.28173990
 One electron energy                          -722.99148300
 Two electron energy                           307.80826666
 Virial ratio                                    2.40605788
 
 !MCSCF STATE 3.2 Quartet Dipole moment          0.00000000     0.00000000     0.00000000
 Dipole moment /Debye                            0.00000000     0.00000000     0.00000000
 
 Results for state 4.2 Quartet
 =============================
 !MCSCF STATE 4.2 Quartet Energy              -415.176597544968
 Nuclear energy                                  0.00000000
 Kinetic energy                                295.29098630
 One electron energy                          -723.02418534
 Two electron energy                           307.84758779
 Virial ratio                                    2.40599143
 
 !MCSCF STATE 4.2 Quartet Dipole moment          0.00000000     0.00000000     0.00000000
 Dipole moment /Debye                            0.00000000     0.00000000     0.00000000
 
 Results for state 5.2 Quartet
 =============================
 !MCSCF STATE 5.2 Quartet Energy              -415.176597544968
 Nuclear energy                                  0.00000000
 Kinetic energy                                295.29098630
 One electron energy                          -723.02418534
 Two electron energy                           307.84758779
 Virial ratio                                    2.40599143
 
 !MCSCF STATE 5.2 Quartet Dipole moment          0.00000000     0.00000000     0.00000000
 Dipole moment /Debye                            0.00000000     0.00000000     0.00000000
 
 Results for state 6.2 Quartet
 =============================
 !MCSCF STATE 6.2 Quartet Energy              -415.176597544968
 Nuclear energy                                  0.00000000
 Kinetic energy                                295.29098630
 One electron energy                          -723.02418534
 Two electron energy                           307.84758779
 Virial ratio                                    2.40599143
 
 !MCSCF STATE 6.2 Quartet Dipole moment          0.00000000     0.00000000     0.00000000
 Dipole moment /Debye                            0.00000000     0.00000000     0.00000000
 
 Results for state 7.2 Quartet
 =============================
 !MCSCF STATE 7.2 Quartet Energy              -415.176597544967
 Nuclear energy                                  0.00000000
 Kinetic energy                                295.29098630
 One electron energy                          -723.02418534
 Two electron energy                           307.84758779
 Virial ratio                                    2.40599143
 
 !MCSCF STATE 7.2 Quartet Dipole moment          0.00000000     0.00000000     0.00000000
 Dipole moment /Debye                            0.00000000     0.00000000     0.00000000
 
 Results for state 8.2 Quartet
 =============================
 !MCSCF STATE 8.2 Quartet Energy              -415.176597544967
 Nuclear energy                                  0.00000000
 Kinetic energy                                295.29098630
 One electron energy                          -723.02418534
 Two electron energy                           307.84758779
 Virial ratio                                    2.40599143
 
 !MCSCF STATE 8.2 Quartet Dipole moment          0.00000000     0.00000000     0.00000000
 Dipole moment /Debye                            0.00000000     0.00000000     0.00000000
 
 State-averaged charge density matrix saved on record 2140.2 (density set 1)
 
 No non-zero expectation values
 
 Expectation values for two-electron operators:
 
 ? Warning
 ? Transition properties are only calculated between states of the same symmetry
 ? The problem occurs in mu_properties_expec2

 !MCSCF expec      <1.2 Doublet|LXLX|1.2 Doublet>     0.999767849682
 !MCSCF expec      <2.2 Doublet|LXLX|2.2 Doublet>     0.823636118402
 !MCSCF expec      <3.2 Doublet|LXLX|3.2 Doublet>     0.176596031915
 !MCSCF expec      <1.2 Quartet|LXLX|1.2 Quartet>     0.027094730508
 !MCSCF expec      <2.2 Quartet|LXLX|2.2 Quartet>     0.972907219578
 !MCSCF expec      <3.2 Quartet|LXLX|3.2 Quartet>     0.999998049915
 !MCSCF expec      <4.2 Quartet|LXLX|4.2 Quartet>     1.580349710874
 !MCSCF expec      <5.2 Quartet|LXLX|5.2 Quartet>     3.684826823521
 !MCSCF expec      <6.2 Quartet|LXLX|6.2 Quartet>     2.721517166147
 !MCSCF expec      <7.2 Quartet|LXLX|7.2 Quartet>     0.999708198213
 !MCSCF expec      <8.2 Quartet|LXLX|8.2 Quartet>     1.013598101297
 
 !MCSCF expec      <1.2 Doublet|LYLY|1.2 Doublet>     0.999780158920
 !MCSCF expec      <2.2 Doublet|LYLY|2.2 Doublet>     0.176413707015
 !MCSCF expec      <3.2 Doublet|LYLY|3.2 Doublet>     0.823806134064
 !MCSCF expec      <1.2 Quartet|LYLY|1.2 Quartet>     0.972907505130
 !MCSCF expec      <2.2 Quartet|LYLY|2.2 Quartet>     0.027093007038
 !MCSCF expec      <3.2 Quartet|LYLY|3.2 Quartet>     0.999999487832
 !MCSCF expec      <4.2 Quartet|LYLY|4.2 Quartet>     3.676207122367
 !MCSCF expec      <5.2 Quartet|LYLY|5.2 Quartet>     1.364027976729
 !MCSCF expec      <6.2 Quartet|LYLY|6.2 Quartet>     2.972418322374
 !MCSCF expec      <7.2 Quartet|LYLY|7.2 Quartet>     1.000788708184
 !MCSCF expec      <8.2 Quartet|LYLY|8.2 Quartet>     0.986557870399
 
 !MCSCF expec      <1.2 Doublet|LZLZ|1.2 Doublet>     0.000451991397
 !MCSCF expec      <2.2 Doublet|LZLZ|2.2 Doublet>     0.999950174582
 !MCSCF expec      <3.2 Doublet|LZLZ|3.2 Doublet>     0.999597834020
 !MCSCF expec      <1.2 Quartet|LZLZ|1.2 Quartet>     0.999997764363
 !MCSCF expec      <2.2 Quartet|LZLZ|2.2 Quartet>     0.999999773384
 !MCSCF expec      <3.2 Quartet|LZLZ|3.2 Quartet>     0.000002462254
 !MCSCF expec      <4.2 Quartet|LZLZ|4.2 Quartet>     0.743443166790
 !MCSCF expec      <5.2 Quartet|LZLZ|5.2 Quartet>     0.951145199782
 !MCSCF expec      <6.2 Quartet|LZLZ|6.2 Quartet>     0.306064511511
 !MCSCF expec      <7.2 Quartet|LZLZ|7.2 Quartet>     3.999503093634
 !MCSCF expec      <8.2 Quartet|LZLZ|8.2 Quartet>     3.999844028336
 
 !MCSCF expec      <1.2 Doublet|L**2|1.2 Doublet>     1.999999999999
 !MCSCF expec      <2.2 Doublet|L**2|2.2 Doublet>     1.999999999999
 !MCSCF expec      <3.2 Doublet|L**2|3.2 Doublet>     1.999999999999
 !MCSCF expec      <1.2 Quartet|L**2|1.2 Quartet>     2.000000000000
 !MCSCF expec      <2.2 Quartet|L**2|2.2 Quartet>     2.000000000000
 !MCSCF expec      <3.2 Quartet|L**2|3.2 Quartet>     2.000000000000
 !MCSCF expec      <4.2 Quartet|L**2|4.2 Quartet>     6.000000000032
 !MCSCF expec      <5.2 Quartet|L**2|5.2 Quartet>     6.000000000032
 !MCSCF expec      <6.2 Quartet|L**2|6.2 Quartet>     6.000000000032
 !MCSCF expec      <7.2 Quartet|L**2|7.2 Quartet>     6.000000000032
 !MCSCF expec      <8.2 Quartet|L**2|8.2 Quartet>     6.000000000032
 
 EXTRA SYMMETRY OF MOS IN SYMMETRY 1:   1 3 5 6 4 2 1 1 1 2   3 5 6 4 2 3 5 4 6 1   2 3 5 6 41310 81112   9 71415 1 2 4 6 3 5
                                       1310 711 9 8121415 6   4 2 3 5 111 91310 8  12 71415 6 4 3 5 2 1   911151413 81012 7 2
                                        6 4 3 5232624192216  17212018272825 1 7 8  121415 9111310 3 5 6   4 2 1 5 3 6 4 2 711
                                        9 81214151310 1 2 5   3 4 6 1 1
 EXTRA SYMMETRY OF MOS IN SYMMETRY 2:   1 2 3 3 1 2 3 1 2 3   1 2 810 6 5 4 7 9 3   1 2 9 7 4 5 6 810 3   1 2 810 9 7 6 4 5 3
                                        1 210 8 6 9 7 4 521  13182016141915171112  10 8 9 7 5 4 6 2 1 3  14161820132111121715
                                       19 5 4 810 7 9 6 1 2   3182019141615171112  2113 7 9 5 4 810 6 1   2 3 7 9 6 5 4 81021
                                       19182013111214161517   1 2 3 6 7 9 5 4 810   2 1 3 1 2 3
 
  NATURAL ORBITALS (STATE AVERAGED)
  =================================

  Orbital  Occupation    Energy    Cen Mu Typ  Coefficients
    1.1     2.00000   -10.04552     1  1  s    0.98915
    2.1     2.00000    -3.34850     1  1  d2-  1.00028
    3.1     2.00000    -3.34850     1  1  d2+  1.00028
    4.1     2.00000    -3.34850     1  1  d1-  1.00028
    5.1     2.00000    -3.34850     1  1  d1+  1.00028
    6.1     2.00000    -3.34850     1  1  d0   1.00028
    7.1     1.99787    -1.17723     1  1  s   -0.44525    1  5  s    0.57343    1  6  s    0.54612
    8.1     0.00245     0.58966     1  1  s    0.50014    1  3  s    0.50894    1  4  s   -0.86746    1  5  s   -1.56574
                                    1  6  s    1.13913    1  7  s    0.61866
    1.2     2.00000    -7.79693     1  1  px   0.99972
    2.2     2.00000    -7.79693     1  1  py   0.99972
    3.2     2.00000    -7.79693     1  1  pz   0.99972
    4.2     1.42211    -0.48956     1  1  pz  -0.29998    1  4  pz   0.31363    1  5  pz   0.48476    1  6  pz   0.30417
    5.2     1.42211    -0.48956     1  1  px  -0.29998    1  4  px   0.31363    1  5  px   0.48476    1  6  px   0.30417
    6.2     1.42211    -0.48956     1  1  py  -0.29998    1  4  py   0.31363    1  5  py   0.48476    1  6  py   0.30417
    7.2     0.24445     0.02749     1 12  pz   0.72106    1 13  pz   0.34427
    8.2     0.24445     0.02749     1 12  px   0.72106    1 13  px   0.34427
    9.2     0.24445     0.02749     1 12  py   0.72106    1 13  py   0.34427
 
 Natural orbital dump (state averaged) at molpro section 2140.2 (Orbital set 2)
 
 Transform the CI vectors
 
 CI Coefficients of symmetry 2 (Doublet)
 =======================================
 
 20 a22000      0.99122324      0.00699834     -0.01988256
 20 22a000     -0.01470023      0.89975486     -0.41616451
 20 2a2000      0.01510617      0.41636525      0.89965526
 20 aa20b0      0.06047389      0.00042696     -0.00121302
 20 a2a00b      0.06047389      0.00042696     -0.00121302
 20 a2ab00      0.00089685     -0.05489346      0.02538993
 20 2aa0b0      0.00089685     -0.05489346      0.02538993
 20 aa2b00     -0.00092162     -0.02540217     -0.05488739
 20 2aa00b      0.00092162      0.02540217      0.05488739
 
 Energy:     -415.48126771   -415.48126771   -415.48126771
 
 
 CI Coefficients of symmetry 2 (Quartet)
 =======================================

 State:              1               2               3               4               5               6               7
 20 aa200a      0.00000000     -0.00000000      0.00000000      0.20668211      0.08619057     -0.33721043      0.00777898
 20 aa20a0     -0.00105521     -0.00033596      0.70572916      0.00275872      0.00563205     -0.00528707      0.70554692
 20 a2a00a     -0.00105521     -0.00033596      0.70572916     -0.00275872     -0.00563205      0.00528707     -0.70554692
 20 a2a0a0     -0.00000000      0.00000000      0.00000000     -0.20609548     -0.09446110      0.34169108      0.01586938
 20 a2aa00      0.11616174      0.69610421      0.00050506      0.59931704     -0.20824115      0.30894728      0.00159271
 20 2aa0a0      0.11616174      0.69610421      0.00050506     -0.59931704      0.20824115     -0.30894728     -0.00159271
 20 aa2a00      0.69610360     -0.11616235      0.00098552      0.10499891      0.65582994      0.23841256     -0.00380732
 20 2aa00a     -0.69610359      0.11616235     -0.00098552      0.10499891      0.65582995      0.23841256     -0.00380732
 20 2aaa00     -0.00000000      0.00000000     -0.00000000     -0.41277759     -0.18065167      0.67890151      0.00809039
 
 Energy:     -415.18321634   -415.18321634   -415.18321634   -415.17659754   -415.17659754   -415.17659754   -415.17659754

 State:              8
 20 aa200a      0.70716723
 20 aa20a0     -0.01177501
 20 a2a00a      0.01177501
 20 a2a0a0      0.70398885
 20 a2aa00     -0.00247725
 20 2aa0a0      0.00247725
 20 aa2a00      0.00310686
 20 2aa00a      0.00310686
 20 2aaa00     -0.00317838
 
 Energy:     -415.17659754
 


 **********************************************************************************************************************************
 DATASETS  * FILE   NREC   LENGTH (MB)   RECORD NAMES
              1      21      101.88       500      610      700      900      950      970     1000      129      960     1100   
                                          VAR    BASINP    GEOM    SYMINP    ZMAT    AOBASIS   BASIS     P2S    ABASIS      S 
                                         1400     1410     1420     1200     1210     1080     1700     1600     1650     1380   
                                           T        V       ECP      H0       H01     AOSYM    OPER      SMH    MOLCAS    JKOP   
                                         1700(1)
                                         OPER   

              2       5        2.66       700     1000      520     2100     2140   
                                         GEOM     BASIS   MCVARS     RHF     MCSCF   

 PROGRAMS   *        TOTAL     MULTI   RHF-SCF       INT
 CPU TIMES  *        41.62     15.91      6.47     19.09
 REAL TIME  *        48.64 SEC
 DISK USED  *       104.67 MB (local),        1.65 GB (total)
 SF USED    *       191.06 MB
 GA USED    *         0.00 MB       (max)       0.00 MB       (current)
 **********************************************************************************************************************************

 Energies and &lt;L**2&gt; values

         ENERGY     LL
    -415.4812677   2.0
    -415.4812677   2.0
    -415.4812677   2.0
    -415.1832163   2.0
    -415.1832163   2.0
    -415.1832163   2.0
    -415.1765975   6.0
    -415.1765975   6.0
    -415.1765975   6.0
    -415.1765975   6.0
    -415.1765975   6.0
                                                  


 PROGRAM * CI (Multireference internally contracted CI)     Authors: H.-J. Werner, P.J. Knowles, 1987


 Convergence thresholds:  THRVAR = 1.00D-08  THRDEN = 1.00D-06

 Number of optimized states: 3  Roots:    1   2   3
 Number of reference states: 3  Roots:    1   2   3

 Reference symmetry:                   2   Doublet 
 Number of electrons:                 25
 Maximum number of shells:             7
 Maximum number of spin couplings:   429

 Reference space:      554 conf     1204 CSFs
 N elec internal:    56699 conf   278292 CSFs
 N-1 el internal:    59743 conf   501108 CSFs
 N-2 el internal:    32490 conf   411156 CSFs

 Number of electrons in valence space:                     25
 Maximum number of open shell orbitals in reference space:  7
 Maximum number of open shell orbitals in internal spaces: 13


 Number of closed-shell orbitals:   9 (   6   3 )
 Number of active  orbitals:        8 (   2   6 )
 Number of external orbitals:     264 ( 127 137 )

 Molecular orbitals read from record     2140.2  Type=MCSCF/NATURAL (state averaged)

 Valence orbitals related to previous ones by unitary transformation. Operators transformed.


 Number of p-space configurations:  30

 Reference wavefunction optimized for reference space (refopt=1)

 State     Reference Energy 
     1      -415.48126771
     2      -415.48126771
     3      -415.48126771

 Number of blocks in overlap matrix:   383   Smallest eigenvalue:  0.19D-06
 Number of N-2 electron functions:     867
 Number of N-1 electron functions:  501108

 Number of internal configurations:               139300
 Number of singly external configurations:      66148996
 Number of doubly external configurations:      15113415
 Total number of contracted configurations:     81401711
 Total number of uncontracted configurations: 7222743224

 Diagonal Coupling coefficients finished.               Storage:  64529615 words, CPU-Time:    198.06 seconds.
 Energy denominators for pairs finished in 1 passes.    Storage:   7654350 words, CPU-time:      1.34 seconds.

  ITER. STATE  ROOT     SQ.NORM     CORR.ENERGY   TOTAL ENERGY   ENERGY CHANGE       DEN1      VAR(S)    VAR(P)      TIME
    1     1     1     1.00000000     0.00000000  -415.48126771    -0.00000000    -1.22037794  0.41D-01  0.68D-01   237.80
    1     2     2     1.00000000     0.00000000  -415.48126771    -0.00000000    -1.22040051  0.41D-01  0.68D-01   237.80
    1     3     3     1.00000000     0.00000000  -415.48126771     0.00000000    -1.22038468  0.41D-01  0.68D-01   237.80
    2     1     1     1.07975344    -1.04269574  -416.52396345    -1.04269574    -0.02777508  0.54D-02  0.99D-03  4135.35
    2     2     2     1.07975988    -1.04268858  -416.52395629    -1.04268858    -0.02778234  0.54D-02  0.99D-03  4135.35
    2     3     3     1.07975693    -1.04268847  -416.52395617    -1.04268847    -0.02777967  0.54D-02  0.99D-03  4135.35
    3     1     1     1.06555303    -1.06878060  -416.55004830    -0.02608485    -0.00061221  0.64D-04  0.53D-04  8033.32
    3     2     2     1.06555516    -1.06878030  -416.55004800    -0.02609172    -0.00061242  0.64D-04  0.53D-04  8033.32
    3     3     3     1.06555558    -1.06878029  -416.55004799    -0.02609182    -0.00061241  0.64D-04  0.53D-04  8033.32
    4     1     1     1.06537501    -1.06942895  -416.55069666    -0.00064836    -0.00002966  0.11D-05  0.39D-05 11929.23
    4     2     2     1.06537520    -1.06942892  -416.55069662    -0.00064862    -0.00002969  0.11D-05  0.39D-05 11929.23
    4     3     3     1.06537529    -1.06942891  -416.55069662    -0.00064863    -0.00002969  0.11D-05  0.39D-05 11929.23
    5     1     1     1.06567727    -1.06946332  -416.55073103    -0.00003437    -0.00000179  0.63D-07  0.24D-06 15822.29
    5     2     2     1.06567712    -1.06946332  -416.55073102    -0.00003440    -0.00000179  0.63D-07  0.24D-06 15822.29
    5     3     3     1.06567707    -1.06946332  -416.55073102    -0.00003440    -0.00000179  0.63D-07  0.24D-06 15822.29
    6     1     1     1.06572650    -1.06946547  -416.55073318    -0.00000215    -0.00000013  0.75D-08  0.14D-07 19707.88
    6     2     2     1.06572649    -1.06946547  -416.55073318    -0.00000215    -0.00000013  0.75D-08  0.14D-07 19707.88
    6     3     3     1.06572650    -1.06946547  -416.55073318    -0.00000215    -0.00000013  0.75D-08  0.14D-07 19707.88
    7     1     1     1.06573422    -1.06946561  -416.55073332    -0.00000014    -0.00000001  0.43D-09  0.11D-08 23418.57
    7     2     2     1.06573421    -1.06946561  -416.55073332    -0.00000014    -0.00000001  0.43D-09  0.11D-08 23418.57
    7     3     3     1.06573422    -1.06946561  -416.55073332    -0.00000014    -0.00000001  0.43D-09  0.11D-08 23418.57


 =====================================
 Analysis of CPU times by interactions
 =====================================

       I      S      P

 I   0.4%
 S   0.3%  36.2%
 P   0.2%  53.5%   6.0%

 Initialization:   0.9%
 Other:            2.5%

 Total CPU:    23418.6 seconds
 =====================================



 Wavefunction saved on  5203.2

 Reference coefficients greater than 0.0500000
 =============================================
 222222202222/2000          -0.0203158   0.9473346   0.1678140
 2222222022222/000           0.7196600   0.1263622  -0.6262101
 22222220222/22000           0.6385091  -0.1122802   0.7111374
 222222202222//00\          -0.0013405   0.0625078   0.0110728
 22222220222//2\00           0.0013405  -0.0625078  -0.0110728

 Coefficients of fixed reference functions:
 ==========================================

 State      Coefficients
 1           0.642613   -0.020446    0.724285
 2          -0.113002    0.953423    0.127174
 3           0.715708    0.168893   -0.630235

 Coefficients of rotated reference functions:
 ============================================

 State      Coefficients
 1           0.968482    0.000000   -0.000000
 2           0.000000    0.968482    0.000000
 3          -0.000000    0.000000    0.968482


 RESULTS FOR STATE 1.2
 =====================

 Maximum overlap with reference state  3

 Coefficient of reference function:   C(0) = 0.72428516 (fixed)   0.96864426 (relaxed)   0.96848238 (rotated)

 Energy contributions of configuration classes

 CLASS          SQ.NORM        ECORR1        ECORR2
 +++++++++++++++++++++++++++++++++++++++++++++++++++
 Internals    0.00038608   -0.00050492   -0.23843429
 Singles      0.01242728   -0.06442499   -0.07289161
 Pairs        0.05333231   -0.75124784   -0.75813972
 Total        1.06614568   -0.81617775   -1.06946561
 +++++++++++++++++++++++++++++++++++++++++++++++++++


 Reference energy                    -415.48126771
 Nuclear energy                         0.00000000
 Kinetic energy                       296.41962140
 One electron energy                 -729.31258119
 Two electron energy                  312.76184787
 Virial quotient                       -1.40527382
 Correlation energy                    -1.06946561
 !MRCI STATE 1.2 Energy              -416.550733319816

 Properties without orbital relaxation:

 !MRCI STATE 1.2 Dipole moment          0.00000000     0.00000000     0.00000000
 Dipole moment /Debye                   0.00000000     0.00000000     0.00000000

 Cluster corrected energies          -416.62147385 (Davidson, fixed reference)
 Cluster corrected energies          -416.62109279 (Davidson, relaxed reference)
 Cluster corrected energies          -416.62147385 (Davidson, rotated reference)

 Cluster corrected energies          -416.61933602 (Pople, fixed reference)
 Cluster corrected energies          -416.61894534 (Pople, relaxed reference)
 Cluster corrected energies          -416.61933602 (Pople, rotated reference)



 RESULTS FOR STATE 2.2
 =====================

 Coefficient of reference function:   C(0) = 0.95342299 (fixed)   0.96864426 (relaxed)   0.96848238 (rotated)

 Energy contributions of configuration classes

 CLASS          SQ.NORM        ECORR1        ECORR2
 +++++++++++++++++++++++++++++++++++++++++++++++++++
 Internals    0.00038608   -0.00050492   -0.81934853
 Singles      0.01242728   -0.06442499   -0.07289161
 Pairs        0.05333231   -0.13190863   -0.17722547
 Total        1.06614567   -0.19683855   -1.06946561
 +++++++++++++++++++++++++++++++++++++++++++++++++++


 Reference energy                    -415.48126771
 Nuclear energy                         0.00000000
 Kinetic energy                       296.41962143
 One electron energy                 -729.31258143
 Two electron energy                  312.76184811
 Virial quotient                       -1.40527382
 Correlation energy                    -1.06946561
 !MRCI STATE 2.2 Energy              -416.550733319595

 Properties without orbital relaxation:

 !MRCI STATE 2.2 Dipole moment          0.00000000     0.00000000     0.00000000
 Dipole moment /Debye                   0.00000000     0.00000000     0.00000000

 Cluster corrected energies          -416.62147384 (Davidson, fixed reference)
 Cluster corrected energies          -416.62109279 (Davidson, relaxed reference)
 Cluster corrected energies          -416.62147384 (Davidson, rotated reference)

 Cluster corrected energies          -416.61933602 (Pople, fixed reference)
 Cluster corrected energies          -416.61894534 (Pople, relaxed reference)
 Cluster corrected energies          -416.61933602 (Pople, rotated reference)



 RESULTS FOR STATE 3.2
 =====================

 Maximum overlap with reference state  1

 Coefficient of reference function:   C(0) = 0.71570778 (fixed)   0.96864426 (relaxed)   0.96848238 (rotated)

 Energy contributions of configuration classes

 CLASS          SQ.NORM        ECORR1        ECORR2
 +++++++++++++++++++++++++++++++++++++++++++++++++++
 Internals    0.00038608   -0.00050492   -1.55621300
 Singles      0.01242728   -0.06442499   -0.07289161
 Pairs        0.05333231    0.65369624    0.55963900
 Total        1.06614568    0.58876633   -1.06946561
 +++++++++++++++++++++++++++++++++++++++++++++++++++


 Reference energy                    -415.48126771
 Nuclear energy                         0.00000000
 Kinetic energy                       296.41962144
 One electron energy                 -729.31258130
 Two electron energy                  312.76184798
 Virial quotient                       -1.40527382
 Correlation energy                    -1.06946561
 !MRCI STATE 3.2 Energy              -416.550733319363

 Properties without orbital relaxation:

 !MRCI STATE 3.2 Dipole moment          0.00000000     0.00000000     0.00000000
 Dipole moment /Debye                   0.00000000     0.00000000     0.00000000

 Cluster corrected energies          -416.62147385 (Davidson, fixed reference)
 Cluster corrected energies          -416.62109279 (Davidson, relaxed reference)
 Cluster corrected energies          -416.62147385 (Davidson, rotated reference)

 Cluster corrected energies          -416.61933602 (Pople, fixed reference)
 Cluster corrected energies          -416.61894534 (Pople, relaxed reference)
 Cluster corrected energies          -416.61933602 (Pople, rotated reference)



 **********************************************************************************************************************************
 DATASETS  * FILE   NREC   LENGTH (MB)   RECORD NAMES
              1      21      101.88       500      610      700      900      950      970     1000      129      960     1100   
                                          VAR    BASINP    GEOM    SYMINP    ZMAT    AOBASIS   BASIS     P2S    ABASIS      S 
                                         1400     1410     1420     1200     1210     1080     1700     1600     1650     1380   
                                           T        V       ECP      H0       H01     AOSYM    OPER      SMH    MOLCAS    JKOP   
                                         1700(1)
                                         OPER   

              2       6     1876.07       700     1000      520     2100     2140     5203   
                                         GEOM     BASIS   MCVARS     RHF     MCSCF    MRCI   

 PROGRAMS   *        TOTAL        CI     MULTI   RHF-SCF       INT
 CPU TIMES  *     23851.60  23809.98     15.91      6.47     19.09
 REAL TIME  *     24042.14 SEC
 DISK USED  *         1.93 GB (local),        7.14 GB (total)
 SF USED    *        20.18 GB
 GA USED    *         0.00 MB       (max)       0.00 MB       (current)
 **********************************************************************************************************************************
 SETTING HLSDIAG(1)     =      -416.62147385  AU                              
 SETTING HLSDIAG(2)     =      -416.62147384  AU                              
 SETTING HLSDIAG(3)     =      -416.62147385  AU                              


 PROGRAM * CI (Multireference internally contracted CI)     Authors: H.-J. Werner, P.J. Knowles, 1987


 Convergence thresholds:  THRVAR = 1.00D-08  THRDEN = 1.00D-06

 Number of optimized states: 8  Roots:    1   2   3   4   5   6   7   8
 Number of reference states: 8  Roots:    1   2   3   4   5   6   7   8

 Reference symmetry:                   2   Quartet 
 Number of electrons:                 25
 Maximum number of shells:             6
 Maximum number of spin couplings:   572

 Reference space:      344 conf      656 CSFs
 N elec internal:    52189 conf   229224 CSFs
 N-1 el internal:    51137 conf   453552 CSFs
 N-2 el internal:    21984 conf   385640 CSFs

 Number of electrons in valence space:                     25
 Maximum number of open shell orbitals in reference space:  7
 Maximum number of open shell orbitals in internal spaces: 13


 Number of closed-shell orbitals:   9 (   6   3 )
 Number of active  orbitals:        8 (   2   6 )
 Number of external orbitals:     264 ( 127 137 )

 Molecular orbitals read from record     2140.2  Type=MCSCF/NATURAL (state averaged)

 Coulomb and exchange operators available. No transformation done.


 Number of p-space configurations:   9

 Reference wavefunction optimized for reference space (refopt=1)

 State     Reference Energy 
     1      -415.18321634
     2      -415.18321634
     3      -415.18321634
     4      -415.17659754
     5      -415.17659754
     6      -415.17659754
     7      -415.17659754
     8      -415.17659754

 ?WARNING: SMALL EIGENVALUE OF PAIR OVERLAP MATRIX:  0.2175D-06

 Number of blocks in overlap matrix:   761   Smallest eigenvalue:  0.22D-06
 Number of N-2 electron functions:    2252
 Number of N-1 electron functions:  453552

 Number of internal configurations:               114452
 Number of singly external configurations:      59873984
 Number of doubly external configurations:      39247580
 Total number of contracted configurations:     99236016
 Total number of uncontracted configurations: 6768387864

 Diagonal Coupling coefficients finished.               Storage:  86432503 words, CPU-Time:   1005.38 seconds.
 Energy denominators for pairs finished in 1 passes.    Storage:  10666458 words, CPU-time:      3.33 seconds.

  ITER. STATE  ROOT     SQ.NORM     CORR.ENERGY   TOTAL ENERGY   ENERGY CHANGE       DEN1      VAR(S)    VAR(P)      TIME
    1     1     1     1.00000000     0.00000000  -415.18321634    -0.00000000    -1.17612651  0.32D-01  0.59D-01  1105.40
    1     2     2     1.00000000     0.00000000  -415.18321634    -0.00000000    -1.17633605  0.32D-01  0.59D-01  1105.40
    1     3     3     1.00000000     0.00000000  -415.18321634     0.00000000    -1.17641770  0.32D-01  0.59D-01  1105.40
    1     4     4     1.00000000     0.00000000  -415.17659754    -0.00000000    -1.17743786  0.34D-01  0.59D-01  1105.40
    1     5     5     1.00000000     0.00000000  -415.17659754     0.00000000    -1.17754114  0.34D-01  0.59D-01  1105.40
    1     6     6     1.00000000     0.00000000  -415.17659754    -0.00000000    -1.17761449  0.34D-01  0.59D-01  1105.40
    1     7     7     1.00000000     0.00000000  -415.17659754     0.00000000    -1.17778379  0.34D-01  0.59D-01  1105.40
    1     8     8     1.00000000     0.00000000  -415.17659754     0.00000000    -1.18173034  0.34D-01  0.61D-01  1105.40
    2     1     1     1.06840345    -1.02092444  -416.20414078    -1.02092444    -0.02097613  0.23D-02  0.95D-03 17886.41
    2     2     2     1.06848999    -1.02089155  -416.20410789    -1.02089155    -0.02101972  0.24D-02  0.95D-03 17886.41
    2     3     3     1.06852907    -1.02088353  -416.20409987    -1.02088353    -0.02104152  0.24D-02  0.94D-03 17886.41
    2     4     4     1.06953584    -1.02145423  -416.19805178    -1.02145423    -0.02135457  0.27D-02  0.93D-03 17886.41
    2     5     5     1.06947822    -1.02119496  -416.19779251    -1.02119496    -0.02154695  0.27D-02  0.95D-03 17886.41
    2     6     6     1.06956823    -1.02114645  -416.19774399    -1.02114645    -0.02159748  0.28D-02  0.94D-03 17886.41
    2     7     7     1.06953606    -1.02114558  -416.19774313    -1.02114558    -0.02158809  0.28D-02  0.94D-03 17886.41
    2     8     8     1.07082661    -1.02080215  -416.19739969    -1.02080215    -0.02212667  0.27D-02  0.11D-02 17886.41
    3     1     1     1.05904773    -1.04080808  -416.22402441    -0.01988364    -0.00051237  0.33D-04  0.51D-04 34733.56
    3     2     2     1.05903623    -1.04080273  -416.22401907    -0.01991118    -0.00051520  0.33D-04  0.52D-04 34733.56
    3     3     3     1.05902018    -1.04080069  -416.22401703    -0.01991716    -0.00051696  0.33D-04  0.52D-04 34733.56
    3     4     4     1.05961986    -1.04175745  -416.21835500    -0.02030322    -0.00049967  0.41D-04  0.48D-04 34733.56
    3     5     5     1.05946995    -1.04172499  -416.21832253    -0.02053003    -0.00051842  0.43D-04  0.49D-04 34733.56
    3     6     6     1.05936020    -1.04167833  -416.21827588    -0.02053189    -0.00054471  0.43D-04  0.54D-04 34733.56
    3     7     7     1.05936778    -1.04167737  -416.21827492    -0.02053179    -0.00054483  0.43D-04  0.53D-04 34733.56
    3     8     8     1.05935655    -1.04167215  -416.21826970    -0.02087000    -0.00054760  0.43D-04  0.54D-04 34733.56
    4     1     1     1.05921695    -1.04139500  -416.22461133    -0.00058692    -0.00004974  0.21D-05  0.60D-05 51680.83
    4     2     2     1.05920787    -1.04139429  -416.22461062    -0.00059155    -0.00005043  0.22D-05  0.61D-05 51680.83
    4     3     3     1.05921145    -1.04139404  -416.22461037    -0.00059334    -0.00005042  0.22D-05  0.61D-05 51680.83
    4     4     4     1.05959779    -1.04231582  -416.21891336    -0.00055836    -0.00004359  0.19D-05  0.56D-05 51680.83
    4     5     5     1.05956582    -1.04231214  -416.21890968    -0.00058715    -0.00004682  0.20D-05  0.58D-05 51680.83
    4     6     6     1.05951934    -1.04230445  -416.21890200    -0.00062612    -0.00005238  0.23D-05  0.64D-05 51680.83
    4     7     7     1.05951849    -1.04230380  -416.21890135    -0.00062643    -0.00005268  0.23D-05  0.64D-05 51680.83
    4     8     8     1.05951352    -1.04230288  -416.21890043    -0.00063073    -0.00005333  0.23D-05  0.64D-05 51680.83
    5     1     1     1.05974050    -1.04145844  -416.22467478    -0.00006344    -0.00000475  0.24D-06  0.48D-06 68604.29
    5     2     2     1.05974098    -1.04145843  -416.22467477    -0.00006415    -0.00000474  0.24D-06  0.48D-06 68604.29
    5     3     3     1.05974104    -1.04145836  -416.22467470    -0.00006433    -0.00000480  0.24D-06  0.48D-06 68604.29
    5     4     4     1.06006001    -1.04237143  -416.21896897    -0.00005561    -0.00000440  0.23D-06  0.47D-06 68604.29
    5     5     5     1.06006084    -1.04237131  -416.21896885    -0.00005917    -0.00000445  0.23D-06  0.47D-06 68604.29
    5     6     6     1.06005830    -1.04237098  -416.21896852    -0.00006653    -0.00000495  0.26D-06  0.50D-06 68604.29
    5     7     7     1.06005871    -1.04237087  -416.21896841    -0.00006707    -0.00000501  0.27D-06  0.50D-06 68604.29
    5     8     8     1.06005869    -1.04237080  -416.21896834    -0.00006792    -0.00000507  0.27D-06  0.51D-06 68604.29
    6     1     1     1.05979017    -1.04146419  -416.22468053    -0.00000575    -0.00000041  0.17D-07  0.46D-07 85504.50
    6     2     2     1.05979019    -1.04146417  -416.22468051    -0.00000574    -0.00000041  0.17D-07  0.46D-07 85504.50
    6     3     3     1.05979005    -1.04146417  -416.22468050    -0.00000580    -0.00000042  0.17D-07  0.46D-07 85504.50
    6     4     4     1.06011163    -1.04237696  -416.21897451    -0.00000553    -0.00000043  0.21D-07  0.48D-07 85504.50
    6     5     5     1.06011144    -1.04237692  -416.21897446    -0.00000561    -0.00000043  0.21D-07  0.48D-07 85504.50
    6     6     6     1.06011127    -1.04237692  -416.21897446    -0.00000594    -0.00000044  0.22D-07  0.49D-07 85504.50
    6     7     7     1.06011413    -1.04237685  -416.21897439    -0.00000598    -0.00000041  0.20D-07  0.46D-07 85504.50
    6     8     8     1.06011540    -1.04237675  -416.21897430    -0.00000595    -0.00000040  0.20D-07  0.46D-07 85504.50
    7     1     1     1.05979477    -1.04146468  -416.22468101    -0.00000049    -0.00000005  0.23D-08  0.61D-08102414.68
    7     2     2     1.05979482    -1.04146466  -416.22468099    -0.00000049    -0.00000005  0.23D-08  0.60D-08102414.68
    7     3     3     1.05979470    -1.04146466  -416.22468099    -0.00000049    -0.00000005  0.23D-08  0.60D-08102414.68
    7     4     4     1.06011765    -1.04237747  -416.21897502    -0.00000051    -0.00000005  0.26D-08  0.63D-08102414.68
    7     5     5     1.06011737    -1.04237743  -416.21897498    -0.00000051    -0.00000005  0.26D-08  0.63D-08102414.68
    7     6     6     1.06011747    -1.04237743  -416.21897498    -0.00000052    -0.00000005  0.26D-08  0.63D-08102414.68
    7     7     7     1.06011861    -1.04237734  -416.21897488    -0.00000049    -0.00000005  0.25D-08  0.62D-08102414.68
    7     8     8     1.06011937    -1.04237723  -416.21897478    -0.00000048    -0.00000005  0.24D-08  0.61D-08102414.68


 =====================================
 Analysis of CPU times by interactions
 =====================================

       I      S      P

 I   0.2%
 S   0.2%  21.4%
 P   0.1%  57.7%  14.9%

 Initialization:   1.0%
 Other:            4.5%

 Total CPU:   102414.7 seconds
 =====================================



 Wavefunction saved on  5303.2

 Reference coefficients greater than 0.0500000
 =============================================
 22222220222//200/           0.0000000  -0.0000000  -0.0000000   0.0003079  -0.0004205   0.0000503   0.0244027   0.7907354
 22222220222/2/0/0          -0.0000000  -0.0000000   0.0000000   0.0006700  -0.0008511  -0.0001369   0.6969985   0.3742338
 222222202222//0/0           0.6852602   0.0017776   0.0030024  -0.6851220  -0.0011836   0.0003167   0.0005229   0.0002500
 22222220222/2//00           0.6852599   0.0017776   0.0030024   0.6851229   0.0011837  -0.0003167  -0.0005229  -0.0002500
 22222220222/2/00/          -0.0014032   0.6802820  -0.0824960  -0.0001809  -0.0775539  -0.6807219  -0.0002332   0.0000093
 222222202222//00/           0.0031945  -0.0824889  -0.6802773  -0.0012113   0.6807201  -0.0775536   0.0006303   0.0003479
 22222220222//20/0          -0.0014032   0.6802854  -0.0824965   0.0001809   0.0775535   0.6807185   0.0002332  -0.0000093
 22222220222//2/00          -0.0031946   0.0824892   0.6802799  -0.0012113   0.6807177  -0.0775533   0.0006303   0.0003480
 222222202222///00          -0.0000000  -0.0000000   0.0000000   0.0003621  -0.0004306  -0.0001872   0.6725953  -0.4165019

 Coefficients of fixed reference functions:
 ==========================================

 State      Coefficients
 1           0.971273   -0.004528   -0.001989   -0.000000   -0.000000   -0.000000   -0.000000    0.000000
 2           0.002519    0.116918    0.964220   -0.000000    0.000000    0.000002   -0.000000   -0.000000
 3           0.004256    0.964213   -0.116928   -0.000000    0.000002   -0.000000    0.000000   -0.000000
 4           0.000001    0.000000    0.000000    0.971136   -0.001717    0.000256    0.000731    0.000378
 5           0.000000   -0.000002   -0.000000    0.001678    0.964894    0.109930   -0.000908   -0.000516
 6          -0.000000    0.000000   -0.000002   -0.000449   -0.109929    0.964896   -0.000230    0.000062
 7           0.000000   -0.000000    0.000000   -0.000741    0.000893    0.000331    0.970673    0.030005
 8          -0.000000    0.000000    0.000000   -0.000354    0.000493   -0.000013   -0.030006    0.970673

 Coefficients of rotated reference functions:
 ============================================

 State      Coefficients
 1           0.971286    0.000000   -0.000000    0.000000    0.000000   -0.000000   -0.000000   -0.000000
 2           0.000000    0.971286    0.000000    0.000000    0.000000    0.000000    0.000000    0.000000
 3          -0.000000    0.000000    0.971286    0.000000    0.000000   -0.000000    0.000000    0.000000
 4           0.000000    0.000000    0.000000    0.971138   -0.000000    0.000000   -0.000000   -0.000000
 5           0.000000    0.000000    0.000000   -0.000000    0.971138   -0.000000    0.000000    0.000000
 6          -0.000000    0.000000   -0.000000    0.000000   -0.000000    0.971138    0.000000   -0.000000
 7          -0.000000    0.000000    0.000000   -0.000000    0.000000    0.000000    0.971137   -0.000000
 8          -0.000000    0.000000    0.000000   -0.000000    0.000000   -0.000000   -0.000000    0.971137


 RESULTS FOR STATE 1.2
 =====================

 Coefficient of reference function:   C(0) = 0.97127342 (fixed)   0.97135114 (relaxed)   0.97128601 (rotated)

 Energy contributions of configuration classes

 CLASS          SQ.NORM        ECORR1        ECORR2
 +++++++++++++++++++++++++++++++++++++++++++++++++++
 Internals    0.00019334   -0.00060130   -0.91492168
 Singles      0.01379717   -0.07184934   -0.08133402
 Pairs        0.04600916   -0.00000001   -0.04520897
 Total        1.05999967   -0.07245065   -1.04146468
 +++++++++++++++++++++++++++++++++++++++++++++++++++


 Reference energy                    -415.18321634
 Nuclear energy                         0.00000000
 Kinetic energy                       296.00463101
 One electron energy                 -722.39111616
 Two electron energy                  306.16643514
 Virial quotient                       -1.40614246
 Correlation energy                    -1.04146468
 !MRCI STATE 1.2 Energy              -416.224681014573

 Properties without orbital relaxation:

 !MRCI STATE 1.2 Dipole moment          0.00000000     0.00000000     0.00000000
 Dipole moment /Debye                   0.00000000     0.00000000     0.00000000

 Cluster corrected energies          -416.28716856 (Davidson, fixed reference)
 Cluster corrected energies          -416.28702053 (Davidson, relaxed reference)
 Cluster corrected energies          -416.28716856 (Davidson, rotated reference)

 Cluster corrected energies          -416.28440088 (Pople, fixed reference)
 Cluster corrected energies          -416.28425222 (Pople, relaxed reference)
 Cluster corrected energies          -416.28440088 (Pople, rotated reference)



 RESULTS FOR STATE 2.2
 =====================

 Maximum overlap with reference state  3

 Coefficient of reference function:   C(0) = 0.96422003 (fixed)   0.97135112 (relaxed)   0.97128599 (rotated)

 Energy contributions of configuration classes

 CLASS          SQ.NORM        ECORR1        ECORR2
 +++++++++++++++++++++++++++++++++++++++++++++++++++
 Internals    0.00019334   -0.00060130   -0.91492172
 Singles      0.01379716   -0.07184925   -0.08133392
 Pairs        0.04600922    0.00000000   -0.04520901
 Total        1.05999972   -0.07245054   -1.04146466
 +++++++++++++++++++++++++++++++++++++++++++++++++++


 Reference energy                    -415.18321634
 Nuclear energy                         0.00000000
 Kinetic energy                       296.00462964
 One electron energy                 -722.39111836
 Two electron energy                  306.16643737
 Virial quotient                       -1.40614247
 Correlation energy                    -1.04146466
 !MRCI STATE 2.2 Energy              -416.224680992950

 Properties without orbital relaxation:

 !MRCI STATE 2.2 Dipole moment          0.00000000     0.00000000     0.00000000
 Dipole moment /Debye                   0.00000000     0.00000000     0.00000000

 Cluster corrected energies          -416.28716858 (Davidson, fixed reference)
 Cluster corrected energies          -416.28702055 (Davidson, relaxed reference)
 Cluster corrected energies          -416.28716858 (Davidson, rotated reference)

 Cluster corrected energies          -416.28440090 (Pople, fixed reference)
 Cluster corrected energies          -416.28425225 (Pople, relaxed reference)
 Cluster corrected energies          -416.28440090 (Pople, rotated reference)



 RESULTS FOR STATE 3.2
 =====================

 Maximum overlap with reference state  2

 Coefficient of reference function:   C(0) = 0.96421274 (fixed)   0.97135117 (relaxed)   0.97128605 (rotated)

 Energy contributions of configuration classes

 CLASS          SQ.NORM        ECORR1        ECORR2
 +++++++++++++++++++++++++++++++++++++++++++++++++++
 Internals    0.00019334   -0.00060130   -0.91492183
 Singles      0.01379714   -0.07184925   -0.08133393
 Pairs        0.04600912    0.00000001   -0.04520890
 Total        1.05999960   -0.07245054   -1.04146466
 +++++++++++++++++++++++++++++++++++++++++++++++++++


 Reference energy                    -415.18321634
 Nuclear energy                         0.00000000
 Kinetic energy                       296.00463613
 One electron energy                 -722.39112279
 Two electron energy                  306.16644179
 Virial quotient                       -1.40614244
 Correlation energy                    -1.04146466
 !MRCI STATE 3.2 Energy              -416.224680991673

 Properties without orbital relaxation:

 !MRCI STATE 3.2 Dipole moment          0.00000000     0.00000000     0.00000000
 Dipole moment /Debye                   0.00000000     0.00000000     0.00000000

 Cluster corrected energies          -416.28716845 (Davidson, fixed reference)
 Cluster corrected energies          -416.28702043 (Davidson, relaxed reference)
 Cluster corrected energies          -416.28716845 (Davidson, rotated reference)

 Cluster corrected energies          -416.28440077 (Pople, fixed reference)
 Cluster corrected energies          -416.28425212 (Pople, relaxed reference)
 Cluster corrected energies          -416.28440077 (Pople, rotated reference)



 RESULTS FOR STATE 4.2
 =====================

 Coefficient of reference function:   C(0) = 0.97113582 (fixed)   0.97120248 (relaxed)   0.97113772 (rotated)

 Energy contributions of configuration classes

 CLASS          SQ.NORM        ECORR1        ECORR2
 +++++++++++++++++++++++++++++++++++++++++++++++++++
 Internals    0.00019411   -0.00060847   -0.91467528
 Singles      0.01401691   -0.07235082   -0.08200976
 Pairs        0.04611241   -0.00037736   -0.04569243
 Total        1.06032343   -0.07333665   -1.04237747
 +++++++++++++++++++++++++++++++++++++++++++++++++++


 Reference energy                    -415.17659754
 Nuclear energy                         0.00000000
 Kinetic energy                       296.00899509
 One electron energy                 -722.40346859
 Two electron energy                  306.18449357
 Virial quotient                       -1.40610246
 Correlation energy                    -1.04237747
 !MRCI STATE 4.2 Energy              -416.218975019742

 Properties without orbital relaxation:

 !MRCI STATE 4.2 Dipole moment          0.00000000     0.00000000     0.00000000
 Dipole moment /Debye                   0.00000000     0.00000000     0.00000000

 Cluster corrected energies          -416.28185480 (Davidson, fixed reference)
 Cluster corrected energies          -416.28170740 (Davidson, relaxed reference)
 Cluster corrected energies          -416.28185480 (Davidson, rotated reference)

 Cluster corrected energies          -416.27908627 (Pople, fixed reference)
 Cluster corrected energies          -416.27893816 (Pople, relaxed reference)
 Cluster corrected energies          -416.27908627 (Pople, rotated reference)



 RESULTS FOR STATE 5.2
 =====================

 Coefficient of reference function:   C(0) = 0.96489394 (fixed)   0.97120261 (relaxed)   0.97113785 (rotated)

 Energy contributions of configuration classes

 CLASS          SQ.NORM        ECORR1        ECORR2
 +++++++++++++++++++++++++++++++++++++++++++++++++++
 Internals    0.00019411   -0.00060847   -0.91551742
 Singles      0.01401687   -0.07235078   -0.08200968
 Pairs        0.04611217    0.00051533   -0.04485033
 Total        1.06032315   -0.07244392   -1.04237743
 +++++++++++++++++++++++++++++++++++++++++++++++++++


 Reference energy                    -415.17659754
 Nuclear energy                         0.00000000
 Kinetic energy                       296.00900450
 One electron energy                 -722.40347724
 Two electron energy                  306.18450227
 Virial quotient                       -1.40610241
 Correlation energy                    -1.04237743
 !MRCI STATE 5.2 Energy              -416.218974978399

 Properties without orbital relaxation:

 !MRCI STATE 5.2 Dipole moment          0.00000000     0.00000000     0.00000000
 Dipole moment /Debye                   0.00000000     0.00000000     0.00000000

 Cluster corrected energies          -416.28185446 (Davidson, fixed reference)
 Cluster corrected energies          -416.28170707 (Davidson, relaxed reference)
 Cluster corrected energies          -416.28185446 (Davidson, rotated reference)

 Cluster corrected energies          -416.27908593 (Pople, fixed reference)
 Cluster corrected energies          -416.27893783 (Pople, relaxed reference)
 Cluster corrected energies          -416.27908593 (Pople, rotated reference)



 RESULTS FOR STATE 6.2
 =====================

 Coefficient of reference function:   C(0) = 0.96489582 (fixed)   0.97120256 (relaxed)   0.97113780 (rotated)

 Energy contributions of configuration classes

 CLASS          SQ.NORM        ECORR1        ECORR2
 +++++++++++++++++++++++++++++++++++++++++++++++++++
 Internals    0.00019411   -0.00060847   -0.91497322
 Singles      0.01401687   -0.07235075   -0.08200966
 Pairs        0.04611227   -0.00006164   -0.04539455
 Total        1.06032325   -0.07302085   -1.04237743
 +++++++++++++++++++++++++++++++++++++++++++++++++++


 Reference energy                    -415.17659754
 Nuclear energy                         0.00000000
 Kinetic energy                       296.00899757
 One electron energy                 -722.40347348
 Two electron energy                  306.18449850
 Virial quotient                       -1.40610244
 Correlation energy                    -1.04237743
 !MRCI STATE 6.2 Energy              -416.218974977634

 Properties without orbital relaxation:

 !MRCI STATE 6.2 Dipole moment          0.00000000     0.00000000     0.00000000
 Dipole moment /Debye                   0.00000000     0.00000000     0.00000000

 Cluster corrected energies          -416.28185457 (Davidson, fixed reference)
 Cluster corrected energies          -416.28170718 (Davidson, relaxed reference)
 Cluster corrected energies          -416.28185457 (Davidson, rotated reference)

 Cluster corrected energies          -416.27908604 (Pople, fixed reference)
 Cluster corrected energies          -416.27893794 (Pople, relaxed reference)
 Cluster corrected energies          -416.27908604 (Pople, rotated reference)



 RESULTS FOR STATE 7.2
 =====================

 Coefficient of reference function:   C(0) = 0.97067288 (fixed)   0.97120204 (relaxed)   0.97113728 (rotated)

 Energy contributions of configuration classes

 CLASS          SQ.NORM        ECORR1        ECORR2
 +++++++++++++++++++++++++++++++++++++++++++++++++++
 Internals    0.00019411   -0.00060845   -0.88678245
 Singles      0.01401680   -0.07235057   -0.08200947
 Pairs        0.04611348   -0.02995204   -0.07358542
 Total        1.06032439   -0.10291106   -1.04237734
 +++++++++++++++++++++++++++++++++++++++++++++++++++


 Reference energy                    -415.17659754
 Nuclear energy                         0.00000000
 Kinetic energy                       296.00895179
 One electron energy                 -722.40344282
 Two electron energy                  306.18446794
 Virial quotient                       -1.40610266
 Correlation energy                    -1.04237734
 !MRCI STATE 7.2 Energy              -416.218974880050

 Properties without orbital relaxation:

 !MRCI STATE 7.2 Dipole moment          0.00000000     0.00000000     0.00000000
 Dipole moment /Debye                   0.00000000     0.00000000     0.00000000

 Cluster corrected energies          -416.28185566 (Davidson, fixed reference)
 Cluster corrected energies          -416.28170826 (Davidson, relaxed reference)
 Cluster corrected energies          -416.28185566 (Davidson, rotated reference)

 Cluster corrected energies          -416.27908713 (Pople, fixed reference)
 Cluster corrected energies          -416.27893902 (Pople, relaxed reference)
 Cluster corrected energies          -416.27908713 (Pople, rotated reference)



 RESULTS FOR STATE 8.2
 =====================

 Coefficient of reference function:   C(0) = 0.97067307 (fixed)   0.97120169 (relaxed)   0.97113693 (rotated)

 Energy contributions of configuration classes

 CLASS          SQ.NORM        ECORR1        ECORR2
 +++++++++++++++++++++++++++++++++++++++++++++++++++
 Internals    0.00019411   -0.00060845   -0.00120136
 Singles      0.01401690   -0.07235068   -0.08200931
 Pairs        0.04611414   -0.96895505   -0.95916656
 Total        1.06032515   -1.04191419   -1.04237723
 +++++++++++++++++++++++++++++++++++++++++++++++++++


 Reference energy                    -415.17659754
 Nuclear energy                         0.00000000
 Kinetic energy                       296.00895063
 One electron energy                 -722.40344426
 Two electron energy                  306.18446949
 Virial quotient                       -1.40610267
 Correlation energy                    -1.04237723
 !MRCI STATE 8.2 Energy              -416.218974775891

 Properties without orbital relaxation:

 !MRCI STATE 8.2 Dipole moment          0.00000000     0.00000000     0.00000000
 Dipole moment /Debye                   0.00000000     0.00000000     0.00000000

 Cluster corrected energies          -416.28185634 (Davidson, fixed reference)
 Cluster corrected energies          -416.28170894 (Davidson, relaxed reference)
 Cluster corrected energies          -416.28185634 (Davidson, rotated reference)

 Cluster corrected energies          -416.27908782 (Pople, fixed reference)
 Cluster corrected energies          -416.27893971 (Pople, relaxed reference)
 Cluster corrected energies          -416.27908782 (Pople, rotated reference)



 **********************************************************************************************************************************
 DATASETS  * FILE   NREC   LENGTH (MB)   RECORD NAMES
              1      21      101.88       500      610      700      900      950      970     1000      129      960     1100   
                                          VAR    BASINP    GEOM    SYMINP    ZMAT    AOBASIS   BASIS     P2S    ABASIS      S 
                                         1400     1410     1420     1200     1210     1080     1700     1600     1650     1380   
                                           T        V       ECP      H0       H01     AOSYM    OPER      SMH    MOLCAS    JKOP   
                                         1700(1)
                                         OPER   

              2       7     7956.21       700     1000      520     2100     2140     5203     5303   
                                         GEOM     BASIS   MCVARS     RHF     MCSCF    MRCI     MRCI   

 PROGRAMS   *        TOTAL        CI        CI     MULTI   RHF-SCF       INT
 CPU TIMES  *    133347.41 109495.81  23809.98     15.91      6.47     19.09
 REAL TIME  *    135632.48 SEC
 DISK USED  *         7.87 GB (local),       24.96 GB (total)
 SF USED    *        62.27 GB
 GA USED    *         0.00 MB       (max)       0.00 MB       (current)
 **********************************************************************************************************************************
 SETTING HLSDIAG(4)     =      -416.28716856  AU                              
 SETTING HLSDIAG(5)     =      -416.28716858  AU                              
 SETTING HLSDIAG(6)     =      -416.28716845  AU                              
 SETTING HLSDIAG(7)     =      -416.28185480  AU                              
 SETTING HLSDIAG(8)     =      -416.28185446  AU                              
 SETTING HLSDIAG(9)     =      -416.28185457  AU                              
 SETTING HLSDIAG(10)    =      -416.28185566  AU                              
 SETTING HLSDIAG(11)    =      -416.28185634  AU                              


         HLSDIAG
    -416.6214738
    -416.6214738
    -416.6214738
    -416.2871686
    -416.2871686
    -416.2871685
    -416.2818548
    -416.2818545
    -416.2818546
    -416.2818557
    -416.2818563
                                                  


 PROGRAM * CI (Multireference internally contracted CI)     Authors: H.-J. Werner, P.J. Knowles, 1987


 Diagonal elements of H will be replaced by values from variable HLSDIAG


   ******************************
   *** Spin-orbit calculation ***
   ******************************


   Spin-orbit matrix elements
   ==========================

 Wavefunction restored from record  5203.2  Symmetry=2  S= 0.5  NSTATE=   3

 Original energies:   -416.550733   -416.550733   -416.550733
 Replaced energies:   -416.621474   -416.621474   -416.621474

 Wavefunction restored from record  5303.2  Symmetry=2  S= 1.5  NSTATE=   8

 Original energies:   -416.224681   -416.224681   -416.224681   -416.218975   -416.218975   -416.218975   -416.218975   -416.218975
 Replaced energies:   -416.287169   -416.287169   -416.287168   -416.281855   -416.281854   -416.281855   -416.281856   -416.281856



   Spin-orbit calculation in the basis of zeroth order wave functions
   ==================================================================

 Lowest unperturbed energy E0=  -416.62147385

 Wigner-Eckart theorem used for 23 matrix elements

 No symmetry adapted basis set used to set up the SO-matrix


 Spin-Orbit Matrix (CM-1)
 ========================

   Nr   State  S   Sz        1          2          3          4          5          6          7          8          9         10

    1   1.2  0.5  0.5       0.00       0.00       0.00      -0.00     822.61     165.99      -0.73      14.16     159.33      -0.22
                           -0.00    -934.18    -147.50       0.00    -220.45    1244.45     159.49     180.51     -21.14     173.61

    2   2.2  0.5  0.5       0.00       0.00       0.00    -822.61      -0.00    -945.37      -0.36     233.79     -56.67       0.14
                          934.18      -0.00    -838.77     220.45       0.00      26.69     -28.18      31.55      -3.96     -30.29

    3   3.2  0.5  0.5       0.00       0.00       0.00    -165.99     945.37      -0.00      -0.92      63.45     171.67      -0.41
                          147.50     838.77      -0.00   -1244.45     -26.69      -0.00     178.37    -156.25      19.78     193.51

    4   1.2  0.5 -0.5      -0.00    -822.61    -165.99       0.00       0.00       0.00       0.00       0.00       0.00       0.00
                           -0.00    -220.45    1244.45       0.00     934.18     147.50       0.00       0.00       0.00       0.00

    5   2.2  0.5 -0.5     822.61      -0.00     945.37       0.00       0.00       0.00       0.00       0.00       0.00       0.00
                          220.45      -0.00      26.69    -934.18       0.00     838.77       0.00       0.00       0.00       0.00

    6   3.2  0.5 -0.5     165.99    -945.37      -0.00       0.00       0.00       0.00       0.00       0.00       0.00       0.00
                        -1244.45     -26.69       0.00    -147.50    -838.77       0.00       0.00       0.00       0.00       0.00

    7   1.2  1.5  1.5      -0.73      -0.36      -0.92       0.00       0.00       0.00   73371.53       0.00       0.00       0.00
                         -159.49      28.18    -178.37      -0.00      -0.00      -0.00      -0.00     -79.07    -652.06      -2.09

    8   2.2  1.5  1.5      14.16     233.79      63.45       0.00       0.00       0.00       0.00   73371.52       0.00       0.00
                         -180.51     -31.55     156.25      -0.00      -0.00      -0.00      79.07       0.00      -1.34      87.47

    9   3.2  1.5  1.5     159.33     -56.67     171.67       0.00       0.00       0.00       0.00       0.00   73371.55       0.00
                           21.14       3.96     -19.78      -0.00      -0.00      -0.00     652.06       1.34       0.00     718.20

   10   4.2  1.5  1.5      -0.22       0.14      -0.41       0.00       0.00       0.00       0.00       0.00       0.00   74537.77
                         -173.61      30.29    -193.51      -0.00      -0.00      -0.00       2.09     -87.47    -718.20       0.00

   11   5.2  1.5  1.5     171.84      -0.99     197.54       0.00       0.00       0.00       0.00       0.00       0.00       0.00
                           22.01       4.29     -19.70      -0.00      -0.00      -0.00     718.85       2.17       1.85     652.58

   12   6.2  1.5  1.5     -25.18     261.34      23.77       0.00       0.00       0.00       0.00       0.00       0.00       0.00
                          195.97      34.43    -170.36      -0.00      -0.00      -0.00     -81.90       0.02      -0.05     -73.40

   13   7.2  1.5  1.5       7.14       1.29      -5.89       0.00       0.00       0.00       0.00       0.00       0.00       0.00
[...]

   36    6.2  1.5 -1.5   0.397995673  -0.016463812  -0.000571411  -0.111263239   0.431241254  -0.000783340
                        -0.004180361   0.029508491  -0.025171501   0.002509192  -0.000028417   0.024550108

   37    7.2  1.5 -1.5   0.003261287   0.008325948   0.001997137   0.006347195   0.000148034  -0.000159752
                         0.305998522   0.004205986   0.000111677   0.280692512   0.228490365  -0.000199691

   38    8.2  1.5 -1.5   0.002930971   0.003645255   0.004573245  -0.007039646  -0.000005474  -0.000076101
                         0.280678840   0.001805138  -0.000032573  -0.306029974   0.368966576  -0.000105034


 Composition of spin-orbit eigenvectors
 ======================================

   Nr   State  S   Sz       1        2        3        4        5        6        7        8        9       10

    1    1.2  0.5  0.5  34.953%   2.065%  27.272%   2.372%  14.674%  18.656%   0.000%   0.000%   0.000%   0.000%
    2    2.2  0.5  0.5  32.888%   0.061%   0.891%  32.822%   0.454%  32.876%   0.000%   0.000%   0.000%   0.000%
    3    3.2  0.5  0.5  27.452%   2.574%  33.800%   2.836%  18.203%  15.128%   0.000%   0.000%   0.000%   0.000%
    4    1.2  0.5 -0.5   2.064%  34.953%   2.372%  27.272%  18.656%  14.674%   0.000%   0.000%   0.000%   0.000%
    5    2.2  0.5 -0.5   0.061%  32.888%  32.823%   0.891%  32.876%   0.454%   0.000%   0.000%   0.000%   0.000%
    6    3.2  0.5 -0.5   2.574%  27.452%   2.836%  33.800%  15.128%  18.203%   0.000%   0.000%   0.000%   0.000%
    7    1.2  1.5  1.5   0.000%   0.000%   0.001%   0.000%   0.000%   0.000%   2.862%   0.103%   0.002%  19.804%
    8    2.2  1.5  1.5   0.002%   0.000%   0.000%   0.000%   0.000%   0.000%   0.020%  24.583%   0.097%   0.135%
    9    3.2  1.5  1.5   0.000%   0.000%   0.001%   0.000%   0.000%   0.000%   7.400%   0.105%   0.200%   0.581%
   10    4.2  1.5  1.5   0.000%   0.000%   0.001%   0.000%   0.000%   0.000%   1.150%   0.004%   0.061%   0.666%
   11    5.2  1.5  1.5   0.000%   0.000%   0.001%   0.000%   0.000%   0.000%   0.037%   0.020%   0.060%   5.215%
   12    6.2  1.5  1.5   0.000%   0.000%   0.000%   0.001%   0.000%   0.002%   0.000%   0.091%   0.808%   0.206%
   13    7.2  1.5  1.5   0.000%   0.000%   0.000%   0.000%   0.000%   0.000%   0.008%   3.712%   0.110%   0.047%
   14    8.2  1.5  1.5   0.000%   0.000%   0.000%   0.000%   0.000%   0.001%   0.001%   2.449%   0.771%   0.009%
   15    1.2  1.5  0.5   0.000%   0.000%   0.000%   0.001%   0.000%   0.000%   0.013%  27.579%   9.603%   0.119%
   16    2.2  1.5  0.5   0.000%   0.000%   0.000%   0.000%   0.000%   0.000%   3.203%   0.231%   0.228%  40.626%
   17    3.2  1.5  0.5   0.001%   0.000%   0.000%   0.000%   0.000%   0.000%   0.000%  10.939%   6.485%   0.003%
   18    4.2  1.5  0.5   0.001%   0.000%   0.000%   0.000%   0.000%   0.001%   0.000%   0.750%   1.848%   0.066%
   19    5.2  1.5  0.5   0.001%   0.000%   0.000%   0.000%   0.000%   0.001%   0.006%   0.002%   1.652%   0.049%
   20    6.2  1.5  0.5   0.000%   0.001%   0.000%   0.000%   0.000%   0.000%   1.003%   0.000%   0.039%   0.514%
   21    7.2  1.5  0.5   0.000%   0.000%   0.000%   0.000%   0.001%   0.000%   1.095%   0.010%   0.006%   2.078%
   22    8.2  1.5  0.5   0.000%   0.000%   0.000%   0.000%   0.000%   0.000%   5.055%   0.019%   0.016%   0.117%
   23    1.2  1.5 -0.5   0.000%   0.000%   0.001%   0.000%   0.000%   0.000%  29.431%   0.023%   0.172%   7.215%
   24    2.2  1.5 -0.5   0.000%   0.000%   0.000%   0.000%   0.000%   0.000%   0.290%   3.702%  31.056%   0.513%
   25    3.2  1.5 -0.5   0.000%   0.001%   0.000%   0.000%   0.000%   0.000%  13.027%   0.000%   0.095%  14.053%
   26    4.2  1.5 -0.5   0.000%   0.001%   0.000%   0.000%   0.001%   0.000%   0.735%   0.000%   0.036%   2.142%
   27    5.2  1.5 -0.5   0.000%   0.001%   0.000%   0.000%   0.001%   0.000%   0.000%   0.002%   0.000%   2.305%
   28    6.2  1.5 -0.5   0.001%   0.000%   0.000%   0.000%   0.000%   0.000%   0.003%   0.497%   2.046%   0.163%
   29    7.2  1.5 -0.5   0.000%   0.000%   0.000%   0.000%   0.000%   0.001%   0.012%   1.184%   1.970%   0.019%
   30    8.2  1.5 -0.5   0.000%   0.000%   0.000%   0.000%   0.000%   0.000%   0.020%   5.558%   0.267%   0.020%
   31    1.2  1.5 -1.5   0.000%   0.000%   0.000%   0.001%   0.000%   0.000%   0.141%   5.187%  30.617%   0.007%
   32    2.2  1.5 -1.5   0.000%   0.002%   0.000%   0.000%   0.000%   0.000%  27.441%   0.035%   0.063%   0.403%
   33    3.2  1.5 -1.5   0.000%   0.000%   0.000%   0.001%   0.000%   0.000%   0.099%  11.439%   5.311%   0.469%
   34    4.2  1.5 -1.5   0.000%   0.000%   0.000%   0.001%   0.000%   0.000%   0.006%   1.649%   0.066%   0.168%
   35    5.2  1.5 -1.5   0.000%   0.000%   0.000%   0.001%   0.000%   0.000%   0.025%   0.113%   6.128%   0.081%
   36    6.2  1.5 -1.5   0.000%   0.000%   0.001%   0.000%   0.002%   0.000%   0.077%   0.001%   0.170%   1.040%
   37    7.2  1.5 -1.5   0.000%   0.000%   0.000%   0.000%   0.000%   0.000%   4.223%   0.010%   0.003%   0.611%
   38    8.2  1.5 -1.5   0.000%   0.000%   0.000%   0.000%   0.001%   0.000%   2.620%   0.002%   0.014%   0.556%

   Nr   State  S   Sz      11       12       13       14       15       16       17       18       19       20

    1    1.2  0.5  0.5   0.000%   0.000%   0.000%   0.000%   0.000%   0.000%   0.000%   0.000%   0.000%   0.000%
    2    2.2  0.5  0.5   0.000%   0.000%   0.000%   0.000%   0.000%   0.000%   0.000%   0.000%   0.000%   0.000%
    3    3.2  0.5  0.5   0.000%   0.000%   0.000%   0.000%   0.000%   0.000%   0.000%   0.000%   0.000%   0.000%
    4    1.2  0.5 -0.5   0.000%   0.000%   0.000%   0.000%   0.000%   0.000%   0.000%   0.000%   0.000%   0.000%
    5    2.2  0.5 -0.5   0.000%   0.000%   0.000%   0.000%   0.000%   0.000%   0.000%   0.000%   0.000%   0.000%
    6    3.2  0.5 -0.5   0.000%   0.000%   0.000%   0.000%   0.000%   0.000%   0.000%   0.000%   0.000%   0.000%
    7    1.2  1.5  1.5   0.113%  23.277%   0.000%   0.000%   0.000%   0.000%   0.000%   0.000%   0.000%   0.000%
    8    2.2  1.5  1.5   8.736%   0.183%   0.000%   0.000%   0.000%   0.000%   0.000%   0.000%   0.000%   0.000%
    9    3.2  1.5  1.5   0.000%  37.691%   0.000%   0.000%   0.000%   0.000%   0.000%   0.000%   0.000%   0.000%
   10    4.2  1.5  1.5   0.086%   4.576%   0.126%   0.001%   8.823%   0.025%   0.005%   4.830%   0.000%  20.475%
   11    5.2  1.5  1.5   0.129%   1.016%   4.544%   0.165%   0.571%   0.044%   0.186%  14.015%   0.019%  14.956%
   12    6.2  1.5  1.5   0.338%   0.000%   0.019%  23.645%   0.000%   7.890%  17.939%   0.043%   1.492%   0.169%
   13    7.2  1.5  1.5   2.446%   0.035%   0.001%   3.323%   0.036%   3.597%  18.162%   0.001%   9.792%   0.001%
   14    8.2  1.5  1.5   0.058%   0.000%   0.028%  36.879%   0.001%   5.286%   2.126%   0.031%   0.749%   0.002%
   15    1.2  1.5  0.5   0.454%   0.001%   0.000%   0.000%   0.000%   0.000%   0.000%   0.000%   0.000%   0.000%
   16    2.2  1.5  0.5   0.405%   5.481%   0.000%   0.000%   0.000%   0.000%   0.000%   0.000%   0.000%   0.000%
   17    3.2  1.5  0.5  20.437%   0.085%   0.000%   0.000%   0.000%   0.000%   0.000%   0.000%   0.000%   0.000%
   18    4.2  1.5  0.5   0.422%   0.014%   0.002%   0.259%   0.036%  36.513%   2.291%   0.030%   6.579%   0.001%
   19    5.2  1.5  0.5   1.243%   0.214%   0.022%  14.228%   0.003%   0.160%  17.406%   0.009%  13.255%   0.403%
   20    6.2  1.5  0.5   0.058%   6.584%   0.005%   0.230%   0.209%   0.000%   0.201%   1.300%   0.192%  26.653%
   21    7.2  1.5  0.5   0.050%   0.048%   5.450%   0.008%  35.920%   0.027%   0.030%   0.018%   0.000%   3.644%
   22    8.2  1.5  0.5   0.000%   1.151%  11.029%   0.032%   0.849%   0.016%   0.006%  21.370%   0.000%   1.615%
   23    1.2  1.5 -0.5   0.086%   0.841%   0.000%   0.000%   0.000%   0.000%   0.000%   0.000%   0.000%   0.000%
   24    2.2  1.5 -0.5  14.570%   0.043%   0.000%   0.000%   0.000%   0.000%   0.000%   0.000%   0.000%   0.000%
   25    3.2  1.5 -0.5   0.182%  10.593%   0.000%   0.000%   0.000%   0.000%   0.000%   0.000%   0.000%   0.000%
   26    4.2  1.5 -0.5   0.064%   0.122%   0.258%   0.002%  36.497%   0.036%   0.029%   2.306%   0.001%   6.580%
   27    5.2  1.5 -0.5   0.333%   0.525%  14.230%   0.022%   0.164%   0.003%   0.009%  17.402%   0.403%  13.253%
   28    6.2  1.5 -0.5   5.447%   0.043%   0.230%   0.005%   0.000%   0.208%   1.300%   0.201%  26.653%   0.192%
   29    7.2  1.5 -0.5   0.086%   0.017%   0.008%   5.452%   0.027%  35.919%   0.017%   0.030%   3.645%   0.000%
   30    8.2  1.5 -0.5   0.492%   0.000%   0.032%  11.029%   0.016%   0.841%  21.378%   0.006%   1.614%   0.000%
   31    1.2  1.5 -1.5  10.196%   0.013%   0.000%   0.000%   0.000%   0.000%   0.000%   0.000%   0.000%   0.000%
   32    2.2  1.5 -1.5   0.094%   5.717%   0.000%   0.000%   0.000%   0.000%   0.000%   0.000%   0.000%   0.000%
   33    3.2  1.5 -1.5  28.655%   0.003%   0.000%   0.000%   0.000%   0.000%   0.000%   0.000%   0.000%   0.000%
   34    4.2  1.5 -1.5   4.627%   0.028%   0.001%   0.126%   0.025%   8.833%   4.819%   0.005%  20.477%   0.000%
   35    5.2  1.5 -1.5   0.100%   0.030%   0.165%   4.545%   0.044%   0.566%  14.020%   0.186%  14.955%   0.019%
   36    6.2  1.5 -1.5   0.026%   0.131%  23.646%   0.019%   7.909%   0.000%   0.043%  17.920%   0.169%   1.493%
   37    7.2  1.5 -1.5   0.061%   1.448%   3.321%   0.001%   3.583%   0.036%   0.001%  18.176%   0.001%   9.793%
   38    8.2  1.5 -1.5   0.006%   0.090%  36.882%   0.028%   5.289%   0.001%   0.031%   2.121%   0.002%   0.749%

   Nr   State  S   Sz      21       22       23       24       25       26       27       28       29       30

    1    1.2  0.5  0.5   0.000%   0.000%   0.000%   0.000%   0.000%   0.000%   0.000%   0.000%   0.000%   0.000%
    2    2.2  0.5  0.5   0.000%   0.000%   0.000%   0.000%   0.000%   0.000%   0.000%   0.000%   0.000%   0.000%
    3    3.2  0.5  0.5   0.000%   0.000%   0.000%   0.000%   0.000%   0.000%   0.000%   0.000%   0.000%   0.000%
    4    1.2  0.5 -0.5   0.000%   0.000%   0.000%   0.000%   0.000%   0.000%   0.000%   0.000%   0.000%   0.000%
    5    2.2  0.5 -0.5   0.001%   0.000%   0.000%   0.000%   0.000%   0.000%   0.000%   0.000%   0.000%   0.000%
    6    3.2  0.5 -0.5   0.000%   0.000%   0.000%   0.000%   0.000%   0.000%   0.000%   0.000%   0.000%   0.000%
    7    1.2  1.5  1.5   5.549%   0.802%  10.464%   0.444%   0.000%  23.547%   0.000%   1.481%   1.243%   0.020%
    8    2.2  1.5  1.5   0.010%  14.285%   0.820%  36.161%   0.000%   0.341%   4.831%   0.031%   0.085%   1.109%
    9    3.2  1.5  1.5   5.688%   0.197%   9.914%   1.961%   0.000%  23.206%   0.067%   2.272%   5.112%   0.022%
   10    4.2  1.5  1.5   0.880%   0.128%   1.662%   0.070%   0.000%   0.291%   0.000%   7.399%  26.557%   0.073%
   11    5.2  1.5  1.5   0.795%   0.259%   1.562%   0.127%   0.015%   0.287%   0.004%   1.857%   0.009%   0.054%
   12    6.2  1.5  1.5   0.228%   1.726%   0.175%   0.618%   1.148%   0.004%   0.189%   0.024%   0.034%   3.937%
   13    7.2  1.5  1.5   0.074%   2.071%   0.002%   0.591%   0.322%   0.000%  21.569%   0.000%   0.019%  11.330%
   14    8.2  1.5  1.5   0.073%   0.503%   0.088%   2.073%   0.840%   0.000%  11.509%   0.000%   0.019%   0.042%
   15    1.2  1.5  0.5   1.695%  36.968%   0.245%   1.362%   7.849%   0.000%   4.714%   0.000%   0.009%   0.043%
   16    2.2  1.5  0.5   2.113%   0.088%   3.944%   0.110%   0.114%  30.940%   0.041%   0.268%   3.951%   0.275%
   17    3.2  1.5  0.5   0.474%   3.454%   0.744%  35.099%   7.735%   0.455%   2.723%   0.003%   0.136%   3.992%
   18    4.2  1.5  0.5   0.008%   0.724%   0.014%   1.998%   0.872%   0.000%   2.527%   0.000%   0.073%   5.516%
   19    5.2  1.5  0.5   0.056%   0.681%   0.054%   1.955%   0.861%   0.000%   0.102%   0.024%   0.078%  10.478%
   20    6.2  1.5  0.5   1.666%   0.081%   0.950%   0.045%   0.011%   0.000%   0.002%   1.948%  24.584%   0.202%
   21    7.2  1.5  0.5   0.012%   0.042%   2.622%   0.063%   0.000%   0.840%   0.000%   8.086%   1.009%   0.074%
   22    8.2  1.5  0.5   2.578%   0.121%   0.028%   0.009%   0.000%   0.322%   0.000%  29.662%   2.849%   0.000%
   23    1.2  1.5 -0.5  36.050%   2.277%   1.535%   0.408%   0.000%   7.849%   0.000%   4.616%   0.000%   0.016%
   24    2.2  1.5 -0.5   0.365%   4.103%   0.126%   1.660%  30.940%   0.114%   0.256%   0.039%   0.216%   4.916%
   25    3.2  1.5 -0.5   0.245%   0.101%  38.862%   0.563%   0.455%   7.735%   0.003%   2.610%   3.932%   0.178%
   26    4.2  1.5 -0.5   1.713%   0.036%   0.992%   0.003%   0.000%   0.872%   0.000%   2.530%   4.036%   0.118%
   27    5.2  1.5 -0.5   1.668%   0.081%   0.951%   0.045%   0.000%   0.861%   0.030%   0.084%   8.997%   0.024%
   28    6.2  1.5 -0.5   0.056%   0.680%   0.054%   1.952%   0.000%   0.011%   2.444%   0.001%   0.138%  20.098%
   29    7.2  1.5 -0.5   0.074%   0.502%   0.087%   2.075%   0.840%   0.000%   7.976%   0.000%   0.044%   1.521%
   30    8.2  1.5 -0.5   0.073%   2.071%   0.002%   0.590%   0.322%   0.000%  29.105%   0.000%   0.001%   2.902%
   31    1.2  1.5 -1.5   0.875%  11.671%   0.474%   4.239%  23.547%   0.000%   1.337%   0.000%   0.010%   0.767%
   32    2.2  1.5 -1.5  33.170%   0.164%  17.717%   0.223%   0.341%   0.000%   0.028%   4.687%   1.347%   0.076%
   33    3.2  1.5 -1.5   0.059%  12.184%   1.450%   4.066%  23.206%   0.000%   2.073%   0.065%   0.029%   4.657%
   34    4.2  1.5 -1.5   0.140%   1.852%   0.076%   0.674%   0.291%   0.000%   6.801%   0.000%   0.055%  27.041%
   35    5.2  1.5 -1.5   0.227%   1.725%   0.175%   0.616%   0.287%   0.015%   1.645%   0.004%   0.020%   0.434%
   36    6.2  1.5 -1.5   0.795%   0.259%   1.565%   0.127%   0.004%   1.148%   0.021%   0.199%   3.134%   0.029%
   37    7.2  1.5 -1.5   2.579%   0.122%   0.028%   0.009%   0.000%   0.322%   0.000%  20.844%  12.258%   0.024%
   38    8.2  1.5 -1.5   0.012%   0.042%   2.619%   0.064%   0.000%   0.840%   0.000%  11.264%   0.014%   0.034%

   Nr   State  S   Sz      31       32       33       34       35       36       37       38

    1    1.2  0.5  0.5   0.000%   0.000%   0.002%   0.000%   0.002%   0.000%   0.001%   0.002%
    2    2.2  0.5  0.5   0.000%   0.000%   0.000%   0.003%   0.001%   0.000%   0.000%   0.003%
    3    3.2  0.5  0.5   0.000%   0.000%   0.002%   0.000%   0.002%   0.000%   0.002%   0.001%
    4    1.2  0.5 -0.5   0.000%   0.000%   0.000%   0.001%   0.000%   0.002%   0.002%   0.001%
    5    2.2  0.5 -0.5   0.000%   0.000%   0.002%   0.000%   0.000%   0.002%   0.003%   0.000%
    6    3.2  0.5 -0.5   0.000%   0.000%   0.000%   0.002%   0.000%   0.002%   0.001%   0.002%
    7    1.2  1.5  1.5   6.094%   0.000%   2.538%   0.001%   0.000%   0.201%   1.453%   0.000%
    8    2.2  1.5  1.5   0.005%   0.403%   0.062%   1.512%   6.565%   0.003%   0.021%   0.000%
    9    3.2  1.5  1.5   1.331%   0.000%   2.480%   0.034%   0.109%   0.198%   1.432%   0.000%
   10    4.2  1.5  1.5   0.059%   0.081%  15.987%   0.007%   0.002%   1.265%   4.709%   0.000%
   11    5.2  1.5  1.5  31.900%   0.002%  15.845%   0.114%   0.063%   1.239%   4.648%   0.241%
   12    6.2  1.5  1.5   0.194%   3.165%   0.147%  13.898%   3.185%   0.028%   0.060%  18.597%
   13    7.2  1.5  1.5   0.069%   0.204%   0.011%  12.257%   4.989%   0.000%   0.000%   5.221%
   14    8.2  1.5  1.5   0.006%   5.588%   0.000%   4.988%  12.263%   0.001%   0.000%  13.614%
   15    1.2  1.5  0.5   0.003%   2.464%   0.004%   5.951%   0.439%   0.000%   0.000%   0.484%
   16    2.2  1.5  0.5   5.020%   0.052%   0.834%   0.020%   0.072%   0.067%   1.909%   0.007%
   17    3.2  1.5  0.5   0.204%   0.210%   0.012%   0.990%   5.313%   0.000%   0.028%   0.477%
   18    4.2  1.5  0.5   0.067%   8.004%   0.007%   3.242%  14.010%   0.000%   0.000%  14.127%
   19    5.2  1.5  0.5   0.611%   5.240%   0.002%   3.225%  13.825%   0.208%   0.000%  13.947%
   20    6.2  1.5  0.5  16.070%   0.010%   1.268%   0.021%   0.186%  15.787%   0.000%   0.181%
   21    7.2  1.5  0.5   7.976%   0.018%   7.882%   0.002%   0.002%   9.372%  13.614%   0.000%
   22    8.2  1.5  0.5   0.676%   0.004%   9.363%   0.009%   0.000%   7.882%   5.220%   0.000%
   23    1.2  1.5 -0.5   2.599%   0.002%   5.232%   0.004%   0.000%   1.158%   0.484%   0.000%
   24    2.2  1.5 -0.5   0.098%   4.082%   0.034%   0.727%   0.172%   0.060%   0.007%   1.909%
   25    3.2  1.5 -0.5   0.402%   0.143%   1.904%   0.014%   0.001%   4.397%   0.477%   0.028%
   26    4.2  1.5 -0.5   9.468%   0.036%   1.263%   0.003%   0.000%  15.992%  14.127%   0.000%
   27    5.2  1.5 -0.5   6.834%   0.563%   1.268%   0.021%   0.186%  15.785%  13.947%   0.000%
   28    6.2  1.5 -0.5   0.004%  20.130%   0.002%   3.225%  13.827%   0.208%   0.181%   0.000%
   29    7.2  1.5 -0.5   0.031%   7.591%   0.000%   4.990%  12.265%   0.001%   0.000%  13.613%
   30    8.2  1.5 -0.5   0.009%   1.174%   0.012%  12.254%   4.988%   0.000%   0.000%   5.220%
   31    1.2  1.5 -1.5   0.000%   6.726%   0.001%   2.224%   0.516%   0.000%   0.000%   1.453%
   32    2.2  1.5 -1.5   0.311%   0.014%   0.588%   0.049%   0.008%   7.498%   0.000%   0.021%
   33    3.2  1.5 -1.5   0.004%   1.975%   0.015%   2.178%   0.507%   0.121%   0.000%   1.432%
   34    4.2  1.5 -1.5   0.159%   0.113%   0.004%  14.009%   3.246%   0.001%   0.000%   4.709%
   35    5.2  1.5 -1.5   0.001%  31.722%   0.147%  13.901%   3.187%   0.028%   0.241%   4.648%
   36    6.2  1.5 -1.5   3.918%   0.242%  15.842%   0.114%   0.063%   1.239%  18.597%   0.060%
   37    7.2  1.5 -1.5   0.028%   0.038%   9.365%   0.009%   0.000%   7.883%   5.221%   0.000%
   38    8.2  1.5 -1.5   5.848%   0.003%   7.879%   0.002%   0.002%   9.370%  13.614%   0.000%


 Property matrices transformed in SO basis (not sym. adapted)
 ============================================================

 No matrix element <i|DMX|i> larger than 5E-7
 No matrix element <i|DMX|1> larger than 5E-7

 No matrix element <i|DMY|i> larger than 5E-7
 No matrix element <i|DMY|1> larger than 5E-7

 No matrix element <i|DMZ|i> larger than 5E-7
 No matrix element <i|DMZ|1> larger than 5E-7


 **********************************************************************************************************************************
 DATASETS  * FILE   NREC   LENGTH (MB)   RECORD NAMES
              1      21      101.88       500      610      700      900      950      970     1000      129      960     1100   
                                          VAR    BASINP    GEOM    SYMINP    ZMAT    AOBASIS   BASIS     P2S    ABASIS      S 
                                         1400     1410     1420     1200     1210     1080     1700     1600     1650     1380   
                                           T        V       ECP      H0       H01     AOSYM    OPER      SMH    MOLCAS    JKOP   
                                         1700(1)
                                         OPER   

              2       7     7956.21       700     1000      520     2100     2140     5203     5303   
                                         GEOM     BASIS   MCVARS     RHF     MCSCF    MRCI     MRCI   

 PROGRAMS   *        TOTAL        CI        CI        CI     MULTI   RHF-SCF       INT
 CPU TIMES  *    527969.01 394621.56 109495.81  23809.98     15.91      6.47     19.09
 REAL TIME  *    533329.54 SEC
 DISK USED  *         7.87 GB (local),       24.96 GB (total)
 SF USED    *        62.27 GB
 GA USED    *         0.00 MB       (max)       0.00 MB       (current)
 **********************************************************************************************************************************

 CI/USERDEF energy=   -416.272237257900

              CI              CI           MULTI         RHF-SCF
   -416.21897478   -416.55073332   -415.17659754   -415.57917925
 **********************************************************************************************************************************
 Molpro calculation terminated with 1 warning(s)
