
 Working directory              : /wrk/irikura/molpro.edPF7MJIpV/
 Global scratch directory       : /wrk/irikura/molpro.edPF7MJIpV/
 Wavefunction directory         : /home/irikura/wfu/
 Main file repository           : /wrk/irikura/molpro.edPF7MJIpV/

 id        : nistki

 Nodes     nprocs
 comp-18      3
 Distribution of processes:   nprocs(total)=    4   nprocs(compute)=    3   nprocs(helper)=    1
 GA implementation: MPI file
 GA implementation (serial work in mppx): MPI file

 Using customized tuning parameters: mindgm=1; mindgv=20; mindgc=4; mindgr=1; noblas=0; minvec=7
 default implementation of scratch files=sf  


 Variables initialized (1042), CPU time= 0.01 sec
 ***,Br SO-CI
                                                                                 ! active space (7/4)
 memory,3000,M;
 
 gprint,orbitals,civector;
                                                                                 !gthresh,energy=1.d-10,coeff=1.d-8;
 
 symmetry,xyz
 geometry={Br};
 
 file,2,acqzpp.wfu,new                                                           !this causes failure in version 2024.1.1
 
 basis=aug-cc-pwCV5Z-PP
 
 {rhf;wf,charge=-1}
 
 NDOUB=3
 NQUAR=8
 
 {multi
     occ,8,9
     closed,6,3
     wf,charge=0,sym=2,spin=1;state,NDOUB;
     wf,charge=0,sym=2,spin=3;state,NQUAR;
     expec2,lxx,lyy,lzz;
 }
 table, energy, ll
 title, Energies and &lt;L**2&gt; values
 
 core,0,0
 
 {ci;wf,sym=2,spin=1;state,NDOUB; save,5203.2}
 hlsdiag = energd4
 {ci;wf,sym=2,spin=3;state,NQUAR; save,5303.2}
 hlsdiag(NDOUB+1) = energd4
 
 table,hlsdiag
 
 {ci;hlsmat,ecp,5203.2,5303.2;print,vls=0,hls=0}                                 !compute and diagonalize SO matrix
 Commands initialized (847), CPU time= 0.01 sec, 718 directives.
 Default parameters read. Elapsed time= 0.12 sec

 Checking input...
 Passed
1


                                         ***  PROGRAM SYSTEM MOLPRO  ***
                                       Copyright, TTI GmbH Stuttgart, 2015
                                    Version 2024.1 linked Wed Jan 31 08:33:13 2024


 **********************************************************************************************************************************
 LABEL *   Br SO-CI                                                                                                                                                      
  (16 PROC) 64 bit mpp version                                                           DATE: 26-Jun-24          TIME: 09:31:57  
 **********************************************************************************************************************************

 SHA1:             675817fde4514a4a933b69e420913a90cee4ef91
 **********************************************************************************************************************************

 Memory per process:      3000 MW
 Total memory per node:   9000 MW

 GA preallocation disabled
 GA check disabled

 Variable memory set to 3000.0 MW


 ZSYMEL=XYZ



 Permanent file  2  acqzpp.wfu       assigned.  Implementation=df  



 **********************************************************************************************************************************
 DATASETS  * FILE   NREC   LENGTH (MB)   RECORD NAMES
              2       2       11.50       500      700   
                                          VAR     GEOM   

 PROGRAMS   *        TOTAL      FILE
 CPU TIMES  *         1.80      1.65
 REAL TIME  *        35.18 SEC
 DISK USED  *        23.00 MB (local),       69.01 MB (total)
 **********************************************************************************************************************************
 SETTING BASIS          =    AUG-CC-PWCV5Z-PP


 Recomputing integrals since basis changed


 Using spherical harmonics

 Library entry Br   ECP ECP10MDF                 selected for group  1
 Library entry BR     S aug-cc-pwCV5Z-PP     selected for orbital group  1
 Library entry BR     P aug-cc-pwCV5Z-PP     selected for orbital group  1
 Library entry BR     D aug-cc-pwCV5Z-PP     selected for orbital group  1
 Library entry BR     F aug-cc-pwCV5Z-PP     selected for orbital group  1
 Library entry BR     G aug-cc-pwCV5Z-PP     selected for orbital group  1
 Library entry BR     H aug-cc-pwCV5Z-PP     selected for orbital group  1
 Library entry BR     I aug-cc-pwCV5Z-PP     selected for orbital group  1


 PROGRAM * SEWARD (Integral evaluation for generally contracted gaussian basis sets)     Author: Roland Lindh, 1990

 Geometry written to block  1 of record 700

 Orientation using atomic masses  
 Molecule type: Atom
 User-specified symmetry elements: XYZ
 Symmetry elements: XYZ
 Rotational constants:       0.0000000      0.0000000      0.0000000 GHz  (calculated with average atomic masses)

 Point group  Ci  



 ATOMIC COORDINATES

 NR  ATOM    CHARGE       X              Y              Z

   1  BR     25.00    0.000000000    0.000000000    0.000000000

 NUCLEAR CHARGE:                   25
 NUMBER OF PRIMITIVE AOS:         465
 NUMBER OF SYMMETRY AOS:          332
 NUMBER OF CONTRACTIONS:          265   (  129Ag  +  136Au  )
 NUMBER OF INNER CORE ORBITALS:     0   (    0Ag  +    0Au  )
 NUMBER OF OUTER CORE ORBITALS:     9   (    6Ag  +    3Au  )
 NUMBER OF VALENCE ORBITALS:        4   (    1Ag  +    3Au  )


 LX: Ag           LY: Ag           LZ: Ag 


 NUCLEAR REPULSION ENERGY    0.00000000

 EXTRA SYMMETRY OF AOS IN SYMMETRY 1:   1 1 1 1 1 1 1 1 1 1   1 1 2 3 4 5 6 2 3 4   5 6 2 3 4 5 6 2 3 4   5 6 2 3 4 5 6 2 3 4
                                        5 6 2 3 4 5 6 2 3 4   5 6 2 3 4 5 6 2 3 4   5 6 7 8 91011121314  15 7 8 9101112131415
                                        7 8 9101112131415 7   8 9101112131415 7 8   9101112131415 7 8 9  10111213141516171819
                                       202122232425262728
 EXTRA SYMMETRY OF AOS IN SYMMETRY 2:   1 2 3 1 2 3 1 2 3 1   2 3 1 2 3 1 2 3 1 2   3 1 2 3 1 2 3 1 2 3   1 2 3 1 2 3 4 5 6 7
                                        8 910 4 5 6 7 8 910   4 5 6 7 8 910 4 5 6   7 8 910 4 5 6 7 8 9  10 4 5 6 7 8 910 4 5
                                        6 7 8 910 4 5 6 7 8   9101112131415161718  19202111121314151617  18192021111213141516
                                       17181920211112131415  161718192021


 Eigenvalues of metric

         1 0.358E-04 0.147E-03 0.542E-03 0.113E-02 0.113E-02 0.113E-02 0.113E-02 0.113E-02
         2 0.224E-04 0.224E-04 0.224E-04 0.516E-03 0.516E-03 0.516E-03 0.338E-02 0.338E-02


 Contracted 2-electron integrals neglected if value below      1.0D-12
 AO integral compression algorithm  1   Integral accuracy      1.0D-12

     554.697 MB (compressed) written to integral file ( 13.6%)

     Node minimum: 176.685 MB, node maximum: 193.987 MB


 NUMBER OF SORTED TWO-ELECTRON INTEGRALS:  104294700.     BUFFER LENGTH:  32768
 NUMBER OF SEGMENTS:   7  SEGMENT LENGTH:   15998778      RECORD LENGTH: 524288

 Memory used in sort:      16.56 MW

 SORT1 READ   511790813. AND WROTE    17146121. INTEGRALS IN     52 RECORDS. CPU TIME:     1.59 SEC, REAL TIME:     1.87 SEC
 SORT2 READ    53581775. AND WROTE   312900871. INTEGRALS IN   2220 RECORDS. CPU TIME:     0.99 SEC, REAL TIME:     1.16 SEC

 Node minimum:   104288800.  Node maximum:   104317371. integrals

 OPERATOR DM      FOR CENTER  0  COORDINATES:    0.000000    0.000000    0.000000


 **********************************************************************************************************************************
 DATASETS  * FILE   NREC   LENGTH (MB)   RECORD NAMES
              1      19       30.46       500      700      610      900      950      970     1000      129      960     1100   
                                          VAR     GEOM    BASINP   SYMINP    ZMAT    AOBASIS   BASIS     P2S    ABASIS      S 
                                         1400     1410     1420     1200     1210     1080     1700     1600     1650   
                                           T        V       ECP      H0       H01     AOSYM    OPER      SMH    MOLCAS    

              2       5       11.78       500      700      610     1000      520   
                                          VAR     GEOM    BASINP    BASIS   MCVARS    

 PROGRAMS   *        TOTAL       INT      FILE
 CPU TIMES  *        15.53     13.74      1.65
 REAL TIME  *        50.89 SEC
 DISK USED  *        42.37 MB (local),        1.19 GB (total)
 GA USED    *         0.00 MB       (max)       0.00 MB       (current)
 **********************************************************************************************************************************


 Program * Restricted Hartree-Fock

 Orbital guess generated from atomic densities.

 Initial occupancy:   7   6

 NELEC=   26   SYM=1   MS2= 0   THRE=1.0D-08   THRD=3.2D-06   THRG=3.2D-06  HFMA2=F  DIIS_START=2   DIIS_MAX=10   DIIS_INCORE=F

 Level shifts:    0.00 (CLOSED)    0.00 (OPEN)    0.30 (GAP_MIN)

 ITER           ETOT              DE          GRAD        DDIFF     DIIS  NEXP   TIME(IT)  TIME(TOT)  DIAG
   1     -415.54383486    -415.54383486     0.00D+00     0.49D-01     0     0       0.40      0.81    start
   2     -415.57584303      -0.03200817     0.35D-02     0.25D-02     1     0       0.42      1.23    diag
   3     -415.57896275      -0.00311972     0.24D-02     0.56D-03     2     0       0.42      1.65    diag
   4     -415.57914137      -0.00017861     0.44D-03     0.21D-03     3     0       0.41      2.06    diag
   5     -415.57917744      -0.00003607     0.89D-04     0.12D-03     4     0       0.41      2.47    diag
   6     -415.57917915      -0.00000171     0.21D-04     0.31D-04     5     0       0.41      2.88    diag
   7     -415.57917920      -0.00000005     0.21D-05     0.69D-05     6     0       0.41      3.29    diag
   8     -415.57917920      -0.00000000     0.33D-06     0.97D-06     7     0       0.42      3.71    fixocc
   9     -415.57917920      -0.00000000     0.73D-07     0.98D-07     0     0       0.41      4.12    diag

 Final occupancy:   7   6

 !RHF STATE 1.1 Energy               -415.579179203884
  RHF One-electron energy            -738.024402868526
  RHF Two-electron energy             322.445223664642
  RHF Kinetic energy                  295.794731113248
  RHF Nuclear energy                    0.000000000000
  RHF Virial quotient                  -1.404958018149

 !RHF STATE 1.1 Dipole moment           0.00000000     0.00000000     0.00000000
 Dipole moment /Debye                   0.00000000     0.00000000     0.00000000

 ELECTRON ORBITALS
 =================

  Orbital  Occupation    Energy    Cen Mu Typ  Coefficients
    1.1     2.00000    -9.52314     1  1  s    0.99989
    2.1     2.00000    -2.82152     1  1  d2-  0.97231
    3.1     2.00000    -2.82152     1  1  d1+  0.67057    1  1  d2+  0.59821    1  1  d1- -0.40411
    4.1     2.00000    -2.82152     1  1  d2+  0.30585    1  1  d1-  0.91066
    5.1     2.00000    -2.82152     1  1  d1+ -0.67005    1  1  d2+  0.73533
    6.1     2.00000    -2.82152     1  1  d0   0.99975
    7.1     2.00000    -0.71241     1  1  s   -0.39934    1  5  s    0.50038    1  6  s    0.51355
    1.2     2.00000    -7.27045     1  1  px   1.00004
    2.2     2.00000    -7.27045     1  1  py   1.00003
    3.2     2.00000    -7.27045     1  1  pz   1.00003
    4.2     2.00000    -0.13748     1  1  px  -0.26502    1  4  px   0.26551    1  5  px   0.39262    1  6  px   0.33363
    5.2     2.00000    -0.13748     1  1  py  -0.26037    1  4  py   0.26085    1  5  py   0.38573    1  6  py   0.32777
    6.2     2.00000    -0.13748     1  1  pz  -0.26037    1  4  pz   0.26085    1  5  pz   0.38573    1  6  pz   0.32777


 HOMO      6.2    -0.137478 =      -3.7410eV
 LUMO      7.2     0.191276 =       5.2049eV
 LUMO-HOMO         0.328754 =       8.9458eV

 Orbitals saved in record  2100.2


 **********************************************************************************************************************************
 DATASETS  * FILE   NREC   LENGTH (MB)   RECORD NAMES
              1      19       30.46       500      700      610      900      950      970     1000      129      960     1100   
                                          VAR     GEOM    BASINP   SYMINP    ZMAT    AOBASIS   BASIS     P2S    ABASIS      S 
                                         1400     1410     1420     1200     1210     1080     1700     1600     1650   
                                           T        V       ECP      H0       H01     AOSYM    OPER      SMH    MOLCAS    

              2       6       12.46       500      700      610     1000      520     2100   
                                          VAR     GEOM    BASINP    BASIS   MCVARS     RHF  

 PROGRAMS   *        TOTAL   RHF-SCF       INT      FILE
 CPU TIMES  *        19.65      4.11     13.74      1.65
 REAL TIME  *        55.29 SEC
 DISK USED  *        45.20 MB (local),        1.20 GB (total)
 GA USED    *         0.00 MB       (max)       0.00 MB       (current)
 **********************************************************************************************************************************
 SETTING NDOUB          =         3.00000000                                  
 SETTING NQUAR          =         8.00000000                                  

 PROGRAM * MULTI (Direct Multiconfiguration SCF)       Authors: P.J. Knowles, H.-J. Werner (1984)
                                                                D.A. Kreplin, P.J. Knowles, H.-J. Werner (2019)

 Number of closed-shell orbitals:   9 (    6    3)
 Number of active  orbitals:        8 (    2    6)
 Number of external orbitals:     248 (  121  127)

 State symmetry 1

 Number of active electrons:   7    Spin symmetry=Doublet   Space symmetry=2
 Number of states:             3
 Number of CSFs:            1204   (1980 determinants, 3920 intermediate states)

 State symmetry 2

 Number of active electrons:   7    Spin symmetry=Quartet   Space symmetry=2
 Number of states:             8
 Number of CSFs:             656   (776 determinants, 1568 intermediate states)

 Molecular orbitals read from record     2100.2  Type=RHF/CANONICAL  
 *** IN SYMMETRY 1 ORBITAL  2 SYMMETRY CONTAMINATION OF 0.269D+00 HAS BEEN REMOVED
 *** IN SYMMETRY 1 ORBITAL  3 SYMMETRY CONTAMINATION OF 0.638D+00 HAS BEEN REMOVED
 *** IN SYMMETRY 1 ORBITAL  4 SYMMETRY CONTAMINATION OF 0.432D+00 HAS BEEN REMOVED
 *** IN SYMMETRY 1 ORBITAL  5 SYMMETRY CONTAMINATION OF 0.528D+00 HAS BEEN REMOVED
 *** IN SYMMETRY 1 ORBITAL  6 SYMMETRY CONTAMINATION OF 0.200D-01 HAS BEEN REMOVED

 EXTRA SYMMETRY OF MOS IN SYMMETRY 1:   1 3 4 6 5 2 1 1 5 3   2 4 6 1 2 6 4 5 313  10 812 7 9111415 2 6   4 3 5 11310 7 911 8
                                       121415 6 4 2 3 5 111   91310 812 71415 6 4   3 5 2 1 91112 81315  1410 7 2 3 4 6 52623
                                       24192217211628271820  25 1 81211 91514 713  10 3 4 6 5 2 1 3 4 5   6 211 9 714 8121513
                                       10 1 5 6 4 3 2 1 1
 *** IN SYMMETRY 2 ORBITAL  1 SYMMETRY CONTAMINATION OF 0.214D-02 HAS BEEN REMOVED
 *** IN SYMMETRY 2 ORBITAL  2 SYMMETRY CONTAMINATION OF 0.546D-02 HAS BEEN REMOVED
 *** IN SYMMETRY 2 ORBITAL  3 SYMMETRY CONTAMINATION OF 0.590D-02 HAS BEEN REMOVED
 *** IN SYMMETRY 2 ORBITAL  5 SYMMETRY CONTAMINATION OF 0.160D+00 HAS BEEN REMOVED
 *** IN SYMMETRY 2 ORBITAL  6 SYMMETRY CONTAMINATION OF 0.160D+00 HAS BEEN REMOVED
 *** IN SYMMETRY 2 ORBITAL  7 SYMMETRY CONTAMINATION OF 0.602D-03 HAS BEEN REMOVED
 *** IN SYMMETRY 2 ORBITAL  9 SYMMETRY CONTAMINATION OF 0.603D-03 HAS BEEN REMOVED
 EXTRA SYMMETRY OF MOS IN SYMMETRY 2:   1 2 3 1 2 3 3 1 2 3   1 2 9 7 6 5 4 810 3   1 210 8 7 9 6 5 4 3   1 210 8 6 7 9 5 413
                                       21182016141517191112  10 8 5 7 4 9 6 1 2 3  16141820132111171512  19 5 4 810 9 7 6 1 2
                                        3201819141617152113  1211 7 9 5 4 810 6 2   3 1 9 7 5 4 6 81019  21182013121116141517
                                        2 1 3 6 9 7 5 410 8   1 2 3 1 2 3

 Wavefunction dump at record             2140.2

 Convergence thresholds  0.10E-04 (gradient)  0.10E-05 (energy)

 Weight factors for state symmetry  1:    0.09091   0.09091   0.09091
 Weight factors for state symmetry  2:    0.09091   0.09091   0.09091   0.09091   0.09091   0.09091   0.09091   0.09091
 
 Number of orbital rotations:  2141  ( 30 closed/active, 1107 closed/virtual, 0 active/active, 1004 active/virtual )
 Total number of variables:    14289
 
 Second-order MCSCF: L-BFGS accelerated
 
 ITER  MIC  NCI  NEG     ENERGY(VAR)    ENERGY(PROJ) ENERGY CHANGE       GRAD(0)  GRAD(ORB)   GRAD(CI)      STEP      TIME
   1   14   63    0   -415.14767772    -415.28801993   -0.14034221    0.42098272 0.00300215 0.00184258  0.12E+01      4.11
   2    9   42    0   -415.25076549    -415.25942669   -0.00866120    0.34237664 0.00018204 0.00078761  0.23E+00      8.02
   3    9   42    0   -415.25949615    -415.25949886   -0.00000271    0.00314230 0.00000545 0.00000177  0.18E-01     11.87
   4    5   19    0   -415.25949886    -415.25949886   -0.00000000    0.00000104 0.00000000 0.00000011  0.36E-04     14.89

 CONVERGENCE REACHED!  Final gradient:    0.00000003 ( 0.31E-07)
                       Final energy:   -415.25949886
 
 Results for state 1.2 Doublet
 =============================
 !MCSCF STATE 1.2 Doublet Energy              -415.482811135531
 Nuclear energy                                  0.00000000
 Kinetic energy                                296.10009395
 One electron energy                          -730.59486589
 Two electron energy                           315.11205476
 Virial ratio                                    2.40318365
 
 !MCSCF STATE 1.2 Doublet Dipole moment          0.00000000     0.00000000     0.00000000
 Dipole moment /Debye                            0.00000000     0.00000000     0.00000000
 
 Results for state 2.2 Doublet
 =============================
 !MCSCF STATE 2.2 Doublet Energy              -415.482811135530
 Nuclear energy                                  0.00000000
 Kinetic energy                                296.10009395
 One electron energy                          -730.59486589
 Two electron energy                           315.11205476
 Virial ratio                                    2.40318365
 
 !MCSCF STATE 2.2 Doublet Dipole moment          0.00000000     0.00000000     0.00000000
 Dipole moment /Debye                            0.00000000     0.00000000     0.00000000
 
 Results for state 3.2 Doublet
 =============================
 !MCSCF STATE 3.2 Doublet Energy              -415.482811135530
 Nuclear energy                                  0.00000000
 Kinetic energy                                296.10009395
 One electron energy                          -730.59486589
 Two electron energy                           315.11205476
 Virial ratio                                    2.40318365
 
 !MCSCF STATE 3.2 Doublet Dipole moment          0.00000000     0.00000000     0.00000000
 Dipole moment /Debye                            0.00000000     0.00000000     0.00000000
 
 Results for state 1.2 Quartet
 =============================
 !MCSCF STATE 1.2 Quartet Energy              -415.180605170491
 Nuclear energy                                  0.00000000
 Kinetic energy                                295.31113675
 One electron energy                          -723.30719610
 Two electron energy                           308.12659093
 Virial ratio                                    2.40590907
 
 !MCSCF STATE 1.2 Quartet Dipole moment          0.00000000     0.00000000     0.00000000
 Dipole moment /Debye                            0.00000000     0.00000000     0.00000000
 
 Results for state 2.2 Quartet
 =============================
 !MCSCF STATE 2.2 Quartet Energy              -415.180605170491
 Nuclear energy                                  0.00000000
 Kinetic energy                                295.31113675
 One electron energy                          -723.30719610
 Two electron energy                           308.12659093
 Virial ratio                                    2.40590907
 
 !MCSCF STATE 2.2 Quartet Dipole moment          0.00000000     0.00000000     0.00000000
 Dipole moment /Debye                            0.00000000     0.00000000     0.00000000
 
 Results for state 3.2 Quartet
 =============================
 !MCSCF STATE 3.2 Quartet Energy              -415.180605170490
 Nuclear energy                                  0.00000000
 Kinetic energy                                295.31113675
 One electron energy                          -723.30719610
 Two electron energy                           308.12659093
 Virial ratio                                    2.40590907
 
 !MCSCF STATE 3.2 Quartet Dipole moment          0.00000000     0.00000000     0.00000000
 Dipole moment /Debye                            0.00000000     0.00000000     0.00000000
 
 Results for state 4.2 Quartet
 =============================
 !MCSCF STATE 4.2 Quartet Energy              -415.172847708355
 Nuclear energy                                  0.00000000
 Kinetic energy                                295.32275965
 One electron energy                          -723.34859471
 Two electron energy                           308.17574700
 Virial ratio                                    2.40582747
 
 !MCSCF STATE 4.2 Quartet Dipole moment          0.00000000     0.00000000     0.00000000
 Dipole moment /Debye                            0.00000000     0.00000000     0.00000000
 
 Results for state 5.2 Quartet
 =============================
 !MCSCF STATE 5.2 Quartet Energy              -415.172847708355
 Nuclear energy                                  0.00000000
 Kinetic energy                                295.32275965
 One electron energy                          -723.34859471
 Two electron energy                           308.17574700
 Virial ratio                                    2.40582747
 
 !MCSCF STATE 5.2 Quartet Dipole moment          0.00000000     0.00000000     0.00000000
 Dipole moment /Debye                            0.00000000     0.00000000     0.00000000
 
 Results for state 6.2 Quartet
 =============================
 !MCSCF STATE 6.2 Quartet Energy              -415.172847708355
 Nuclear energy                                  0.00000000
 Kinetic energy                                295.32275965
 One electron energy                          -723.34859471
 Two electron energy                           308.17574700
 Virial ratio                                    2.40582747
 
 !MCSCF STATE 6.2 Quartet Dipole moment          0.00000000     0.00000000     0.00000000
 Dipole moment /Debye                            0.00000000     0.00000000     0.00000000
 
 Results for state 7.2 Quartet
 =============================
 !MCSCF STATE 7.2 Quartet Energy              -415.172847708354
 Nuclear energy                                  0.00000000
 Kinetic energy                                295.32275965
 One electron energy                          -723.34859471
 Two electron energy                           308.17574700
 Virial ratio                                    2.40582747
 
 !MCSCF STATE 7.2 Quartet Dipole moment          0.00000000     0.00000000     0.00000000
 Dipole moment /Debye                            0.00000000     0.00000000     0.00000000
 
 Results for state 8.2 Quartet
 =============================
 !MCSCF STATE 8.2 Quartet Energy              -415.172847708353
 Nuclear energy                                  0.00000000
 Kinetic energy                                295.32275965
 One electron energy                          -723.34859471
 Two electron energy                           308.17574700
 Virial ratio                                    2.40582747
 
 !MCSCF STATE 8.2 Quartet Dipole moment          0.00000000     0.00000000     0.00000000
 Dipole moment /Debye                            0.00000000     0.00000000     0.00000000
 
 State-averaged charge density matrix saved on record 2140.2 (density set 1)
 
 No non-zero expectation values
 
 Expectation values for two-electron operators:
 
 ? Warning
 ? Transition properties are only calculated between states of the same symmetry
 ? The problem occurs in mu_properties_expec2

 !MCSCF expec      <1.2 Doublet|LXLX|1.2 Doublet>     0.999989377072
 !MCSCF expec      <2.2 Doublet|LXLX|2.2 Doublet>     0.147509228724
 !MCSCF expec      <3.2 Doublet|LXLX|3.2 Doublet>     0.852501394204
 !MCSCF expec      <1.2 Quartet|LXLX|1.2 Quartet>     0.181242504643
 !MCSCF expec      <2.2 Quartet|LXLX|2.2 Quartet>     0.818758878117
 !MCSCF expec      <3.2 Quartet|LXLX|3.2 Quartet>     0.999998617241
 !MCSCF expec      <4.2 Quartet|LXLX|4.2 Quartet>     1.028496991992
 !MCSCF expec      <5.2 Quartet|LXLX|5.2 Quartet>     3.971165829159
 !MCSCF expec      <6.2 Quartet|LXLX|6.2 Quartet>     2.994176089504
 !MCSCF expec      <7.2 Quartet|LXLX|7.2 Quartet>     1.000017423093
 !MCSCF expec      <8.2 Quartet|LXLX|8.2 Quartet>     1.006143666252
 
 !MCSCF expec      <1.2 Doublet|LYLY|1.2 Doublet>     0.999992265350
 !MCSCF expec      <2.2 Doublet|LYLY|2.2 Doublet>     0.852507396725
 !MCSCF expec      <3.2 Doublet|LYLY|3.2 Doublet>     0.147500337924
 !MCSCF expec      <1.2 Quartet|LYLY|1.2 Quartet>     0.818759285934
 !MCSCF expec      <2.2 Quartet|LYLY|2.2 Quartet>     0.181241128603
 !MCSCF expec      <3.2 Quartet|LYLY|3.2 Quartet>     0.999999585463
 !MCSCF expec      <4.2 Quartet|LYLY|4.2 Quartet>     3.971515805658
 !MCSCF expec      <5.2 Quartet|LYLY|5.2 Quartet>     1.028881599273
 !MCSCF expec      <6.2 Quartet|LYLY|6.2 Quartet>     3.005655631446
 !MCSCF expec      <7.2 Quartet|LYLY|7.2 Quartet>     1.000027618001
 !MCSCF expec      <8.2 Quartet|LYLY|8.2 Quartet>     0.993919345621
 
 !MCSCF expec      <1.2 Doublet|LZLZ|1.2 Doublet>     0.000018357577
 !MCSCF expec      <2.2 Doublet|LZLZ|2.2 Doublet>     0.999983374550
 !MCSCF expec      <3.2 Doublet|LZLZ|3.2 Doublet>     0.999998267872
 !MCSCF expec      <1.2 Quartet|LZLZ|1.2 Quartet>     0.999998209423
 !MCSCF expec      <2.2 Quartet|LZLZ|2.2 Quartet>     0.999999993280
 !MCSCF expec      <3.2 Quartet|LZLZ|3.2 Quartet>     0.000001797296
 !MCSCF expec      <4.2 Quartet|LZLZ|4.2 Quartet>     0.999987202349
 !MCSCF expec      <5.2 Quartet|LZLZ|5.2 Quartet>     0.999952571568
 !MCSCF expec      <6.2 Quartet|LZLZ|6.2 Quartet>     0.000168279050
 !MCSCF expec      <7.2 Quartet|LZLZ|7.2 Quartet>     3.999954958906
 !MCSCF expec      <8.2 Quartet|LZLZ|8.2 Quartet>     3.999936988127
 
 !MCSCF expec      <1.2 Doublet|L**2|1.2 Doublet>     2.000000000000
 !MCSCF expec      <2.2 Doublet|L**2|2.2 Doublet>     2.000000000000
 !MCSCF expec      <3.2 Doublet|L**2|3.2 Doublet>     2.000000000000
 !MCSCF expec      <1.2 Quartet|L**2|1.2 Quartet>     2.000000000000
 !MCSCF expec      <2.2 Quartet|L**2|2.2 Quartet>     2.000000000000
 !MCSCF expec      <3.2 Quartet|L**2|3.2 Quartet>     2.000000000000
 !MCSCF expec      <4.2 Quartet|L**2|4.2 Quartet>     6.000000000000
 !MCSCF expec      <5.2 Quartet|L**2|5.2 Quartet>     6.000000000000
 !MCSCF expec      <6.2 Quartet|L**2|6.2 Quartet>     6.000000000000
 !MCSCF expec      <7.2 Quartet|L**2|7.2 Quartet>     6.000000000000
 !MCSCF expec      <8.2 Quartet|L**2|8.2 Quartet>     6.000000000000
 
 EXTRA SYMMETRY OF MOS IN SYMMETRY 1:   1 3 5 4 6 2 1 1 1 2   3 5 4 6 2 3 5 4 6 1  131011 9 812 71415 2   4 6 3 51310 711 9 8
                                       121415 4 6 2 3 5 1 9  111310 7 8121415 6 4   3 5 2 111 913101415   812 7 6 4 3 5 22326
                                       24192216172120182827  25 1 7 812141511 913  10 3 5 4 6 2 1 5 3 6   4 2 7 911 812141513
                                       10 1 2 5 3 6 4 1 1
 EXTRA SYMMETRY OF MOS IN SYMMETRY 2:   1 2 3 3 2 1 3 2 1 3   2 1 9 7 4 5 6 810 3   2 1 810 9 7 6 4 5 3   1 210 8 6 9 7 4 513
                                       21182014161915171112  10 8 9 7 4 5 6 1 2 3  14161321182011121715  19 810 5 4 7 9 6 1 2
                                        3182019141615171112  2113 7 9 4 5 810 6 1   2 3 7 9 4 5 6 81021  13191820111214161517
                                        1 2 3 6 4 5 7 9 810   1 3 2 1 3 2
 
  NATURAL ORBITALS (STATE AVERAGED)
  =================================

  Orbital  Occupation    Energy    Cen Mu Typ  Coefficients
    1.1     2.00000   -10.03783     1  1  s    0.98987
    2.1     2.00000    -3.34010     1  1  d2-  1.00027
    3.1     2.00000    -3.34010     1  1  d2+  1.00027
    4.1     2.00000    -3.34010     1  1  d1+  1.00027
    5.1     2.00000    -3.34010     1  1  d1-  1.00027
    6.1     2.00000    -3.34010     1  1  d0   1.00027
    7.1     1.99775    -1.16824     1  1  s   -0.44361    1  5  s    0.57288    1  6  s    0.54669
    8.1     0.00254     0.57899     1  1  s    0.49206    1  3  s    0.48637    1  4  s   -0.78697    1  5  s   -1.63271
                                    1  6  s    1.15882    1  7  s    0.58514
    1.2     2.00000    -7.78854     1  1  px   0.99972
    2.2     2.00000    -7.78854     1  1  py   0.99972
    3.2     2.00000    -7.78854     1  1  pz   0.99972
    4.2     1.42185    -0.48138     1  1  pz  -0.29990    1  4  pz   0.31414    1  5  pz   0.48334    1  6  pz   0.30531
    5.2     1.42185    -0.48138     1  1  py  -0.29990    1  4  py   0.31414    1  5  py   0.48334    1  6  py   0.30531
    6.2     1.42185    -0.48138     1  1  px  -0.29990    1  4  px   0.31414    1  5  px   0.48334    1  6  px   0.30531
    7.2     0.24472     0.04256     1 12  pz   1.10443
    8.2     0.24472     0.04256     1 12  py   1.10443
    9.2     0.24472     0.04256     1 12  px   1.10443
 
 Natural orbital dump (state averaged) at molpro section 2140.2 (Orbital set 2)
 
 Transform the CI vectors
 
 CI Coefficients of symmetry 2 (Doublet)
 =======================================
 
 20 a22000      0.99051021      0.00403877      0.00130363
 20 2a2000     -0.00275476      0.38040662      0.91455547
 20 22a000     -0.00322838      0.91455070     -0.38041436
 20 a2a00b      0.06391808      0.00026062      0.00008412
 20 aa20b0      0.06391808      0.00026062      0.00008412
 20 2aa00b     -0.00017777      0.02454782      0.05901669
 20 aa2b00      0.00017777     -0.02454782     -0.05901669
 20 2aa0b0      0.00020833     -0.05901638      0.02454831
 20 a2ab00      0.00020833     -0.05901638      0.02454831
 
 Energy:     -415.48281114   -415.48281114   -415.48281114
 
 
 CI Coefficients of symmetry 2 (Quartet)
 =======================================

 State:              1               2               3               4               5               6               7
 20 2aaa00      0.00000000      0.00000000     -0.00000000      0.00321074      0.00895640      0.81463891      0.00183767
 20 a2a0a0     -0.00000000     -0.00000000     -0.00000000      0.00173545      0.00157188      0.40611352     -0.00026305
 20 a2a00a     -0.00094414     -0.00005784      0.70556992     -0.00066086      0.00193329      0.00157498     -0.70554330
 20 aa20a0     -0.00094414     -0.00005784      0.70556992      0.00066086     -0.00193329     -0.00157498      0.70554330
 20 aa200a     -0.00000000     -0.00000000     -0.00000000     -0.00147529     -0.00738452     -0.40852538     -0.00210072
 20 2aa00a     -0.30037814     -0.63843760     -0.00045428      0.70218813     -0.06874791     -0.00200905     -0.00084989
 20 aa2a00      0.30037814      0.63843760      0.00045428      0.70218813     -0.06874791     -0.00200905     -0.00084989
 20 2aa0a0      0.63843706     -0.30037848      0.00082969     -0.06872425     -0.70214013      0.00799960     -0.00183697
 20 a2aa00      0.63843706     -0.30037848      0.00082969      0.06872425      0.70214013     -0.00799960      0.00183697
 
 Energy:     -415.18060517   -415.18060517   -415.18060517   -415.17284771   -415.17284771   -415.17284771   -415.17284771

 State:              8
 20 2aaa00      0.00143178
 20 a2a0a0      0.70625686
 20 a2a00a     -0.00117111
 20 aa20a0      0.00117111
 20 aa200a      0.70482508
 20 2aa00a     -0.00041751
 20 aa2a00     -0.00041751
 20 2aa0a0     -0.00286905
 20 a2aa00      0.00286905
 
 Energy:     -415.17284771
 


 **********************************************************************************************************************************
 DATASETS  * FILE   NREC   LENGTH (MB)   RECORD NAMES
              1      21       93.78       500      700      610      900      950      970     1000      129      960     1100   
                                          VAR     GEOM    BASINP   SYMINP    ZMAT    AOBASIS   BASIS     P2S    ABASIS      S 
                                         1400     1410     1420     1200     1210     1080     1700     1600     1650     1380   
                                           T        V       ECP      H0       H01     AOSYM    OPER      SMH    MOLCAS    JKOP   
                                         1700(1)
                                         OPER   

              2       7       13.91       500      700      610     1000      520     2100     2140   
                                          VAR     GEOM    BASINP    BASIS   MCVARS     RHF     MCSCF   

 PROGRAMS   *        TOTAL     MULTI   RHF-SCF       INT      FILE
 CPU TIMES  *        32.49     12.85      4.11     13.74      1.65
 REAL TIME  *        72.63 SEC
 DISK USED  *       107.82 MB (local),        1.39 GB (total)
 SF USED    *       169.95 MB
 GA USED    *         0.00 MB       (max)       0.00 MB       (current)
 **********************************************************************************************************************************

 Energies and &lt;L**2&gt; values

         ENERGY     LL
    -415.4828111   2.0
    -415.4828111   2.0
    -415.4828111   2.0
    -415.1806052   2.0
    -415.1806052   2.0
    -415.1806052   2.0
    -415.1728477   6.0
    -415.1728477   6.0
    -415.1728477   6.0
    -415.1728477   6.0
    -415.1728477   6.0
                                                  


 PROGRAM * CI (Multireference internally contracted CI)     Authors: H.-J. Werner, P.J. Knowles, 1987


 Convergence thresholds:  THRVAR = 1.00D-08  THRDEN = 1.00D-06

 Number of optimized states: 3  Roots:    1   2   3
 Number of reference states: 3  Roots:    1   2   3

 Reference symmetry:                   2   Doublet 
 Number of electrons:                 25
 Maximum number of shells:             7
 Maximum number of spin couplings:   429

 Reference space:      554 conf     1204 CSFs
 N elec internal:    56699 conf   278292 CSFs
 N-1 el internal:    59743 conf   501108 CSFs
 N-2 el internal:    32490 conf   411156 CSFs

 Number of electrons in valence space:                     25
 Maximum number of open shell orbitals in reference space:  7
 Maximum number of open shell orbitals in internal spaces: 13


 Number of closed-shell orbitals:   9 (   6   3 )
 Number of active  orbitals:        8 (   2   6 )
 Number of external orbitals:     248 ( 121 127 )

 Molecular orbitals read from record     2140.2  Type=MCSCF/NATURAL (state averaged)

 Valence orbitals related to previous ones by unitary transformation. Operators transformed.


 Number of p-space configurations:  30

 Reference wavefunction optimized for reference space (refopt=1)

 State     Reference Energy 
     1      -415.48281114
     2      -415.48281114
     3      -415.48281114

 Number of blocks in overlap matrix:   383   Smallest eigenvalue:  0.19D-06
 Number of N-2 electron functions:     867
 Number of N-1 electron functions:  501108

 Number of internal configurations:               139300
 Number of singly external configurations:      62139036
 Number of doubly external configurations:      13337343
 Total number of contracted configurations:     75615679
 Total number of uncontracted configurations: 6376743232

 Diagonal Coupling coefficients finished.               Storage:  64529615 words, CPU-Time:    192.81 seconds.
 Energy denominators for pairs finished in 1 passes.    Storage:   7296526 words, CPU-time:      1.08 seconds.

  ITER. STATE  ROOT     SQ.NORM     CORR.ENERGY   TOTAL ENERGY   ENERGY CHANGE       DEN1      VAR(S)    VAR(P)      TIME
    1     1     1     1.00000000     0.00000000  -415.48281114     0.00000000    -1.22003488  0.40D-01  0.69D-01   229.00
    1     2     2     1.00000000     0.00000000  -415.48281114     0.00000000    -1.22003858  0.40D-01  0.69D-01   229.00
    1     3     3     1.00000000     0.00000000  -415.48281114     0.00000000    -1.22005669  0.40D-01  0.69D-01   229.00
    2     1     1     1.07920471    -1.04240779  -416.52521892    -1.04240779    -0.02719178  0.51D-02  0.98D-03  3732.39
    2     2     2     1.07921208    -1.04239950  -416.52521063    -1.04239950    -0.02720015  0.51D-02  0.98D-03  3732.39
    2     3     3     1.07920897    -1.04239919  -416.52521033    -1.04239919    -0.02719762  0.51D-02  0.98D-03  3732.39
    3     1     1     1.06538036    -1.06787618  -416.55068732    -0.02546839    -0.00057384  0.60D-04  0.48D-04  7314.30
    3     2     2     1.06538273    -1.06787579  -416.55068693    -0.02547629    -0.00057412  0.60D-04  0.49D-04  7314.30
    3     3     3     1.06538326    -1.06787576  -416.55068690    -0.02547657    -0.00057413  0.60D-04  0.49D-04  7314.30
    4     1     1     1.06514416    -1.06847896  -416.55129010    -0.00060278    -0.00002651  0.10D-05  0.34D-05 10897.78
    4     2     2     1.06514435    -1.06847892  -416.55129006    -0.00060313    -0.00002654  0.10D-05  0.34D-05 10897.78
    4     3     3     1.06514446    -1.06847892  -416.55129005    -0.00060315    -0.00002654  0.10D-05  0.34D-05 10897.78
    5     1     1     1.06541013    -1.06850944  -416.55132057    -0.00003047    -0.00000153  0.54D-07  0.20D-06 14477.74
    5     2     2     1.06540996    -1.06850943  -416.55132057    -0.00003051    -0.00000153  0.54D-07  0.20D-06 14477.74
    5     3     3     1.06540991    -1.06850943  -416.55132057    -0.00003052    -0.00000153  0.54D-07  0.20D-06 14477.74
    6     1     1     1.06545531    -1.06851126  -416.55132240    -0.00000182    -0.00000010  0.63D-08  0.12D-07 18055.18
    6     2     2     1.06545529    -1.06851126  -416.55132240    -0.00000183    -0.00000010  0.63D-08  0.12D-07 18055.18
    6     3     3     1.06545530    -1.06851126  -416.55132240    -0.00000183    -0.00000010  0.63D-08  0.12D-07 18055.18
    7     1     1     1.06546277    -1.06851138  -416.55132251    -0.00000012    -0.00000001  0.34D-09  0.86D-09 21648.47
    7     2     2     1.06546277    -1.06851138  -416.55132251    -0.00000012    -0.00000001  0.34D-09  0.86D-09 21648.47
    7     3     3     1.06546277    -1.06851138  -416.55132251    -0.00000012    -0.00000001  0.34D-09  0.86D-09 21648.47


 =====================================
 Analysis of CPU times by interactions
 =====================================

       I      S      P

 I   0.4%
 S   0.3%  36.7%
 P   0.2%  53.5%   5.9%

 Initialization:   0.9%
 Other:            2.2%

 Total CPU:    21648.5 seconds
 =====================================



 Wavefunction saved on  5203.2

 Reference coefficients greater than 0.0500000
 =============================================
 222222202222/2000           0.1433364   0.9475335   0.0806752
 2222222022222/000           0.7782236  -0.0699881  -0.5606633
 22222220222/22000           0.5465312  -0.1488471   0.7771884
 222222202222//00\           0.0100016   0.0661159   0.0056293
 22222220222//2\00          -0.0100016  -0.0661159  -0.0056293
 222222202222//0\0          -0.0543020   0.0048836   0.0391213
 22222220222/2/\00          -0.0543020   0.0048836   0.0391213
 22222220222/2/00\           0.0381352  -0.0103861   0.0542297
 22222220222//20\0           0.0381352  -0.0103861   0.0542297

 Coefficients of fixed reference functions:
 ==========================================

 State      Coefficients
 1           0.550446    0.783798    0.144363
 2          -0.149913   -0.070490    0.954321
 3           0.782756   -0.564680    0.081253

 Coefficients of rotated reference functions:
 ============================================

 State      Coefficients
 1           0.968593    0.000000   -0.000000
 2           0.000000    0.968593    0.000000
 3          -0.000000    0.000000    0.968593


 RESULTS FOR STATE 1.2
 =====================

 Maximum overlap with reference state  2

 Coefficient of reference function:   C(0) = 0.78379836 (fixed)   0.96876687 (relaxed)   0.96859260 (rotated)

 Energy contributions of configuration classes

 CLASS          SQ.NORM        ECORR1        ECORR2
 +++++++++++++++++++++++++++++++++++++++++++++++++++
 Internals    0.00041323   -0.00051532   -0.80188094
 Singles      0.01239641   -0.06468835   -0.07311338
 Pairs        0.05309341   -0.14953724   -0.19351706
 Total        1.06590305   -0.21474091   -1.06851138
 +++++++++++++++++++++++++++++++++++++++++++++++++++


 Reference energy                    -415.48281114
 Nuclear energy                         0.00000000
 Kinetic energy                       296.40489303
 One electron energy                 -729.22965478
 Two electron energy                  312.67833226
 Virial quotient                       -1.40534563
 Correlation energy                    -1.06851138
 !MRCI STATE 1.2 Energy              -416.551322512721

 Properties without orbital relaxation:

 !MRCI STATE 1.2 Dipole moment          0.00000000     0.00000000     0.00000000
 Dipole moment /Debye                   0.00000000     0.00000000     0.00000000

 Cluster corrected energies          -416.62174067 (Davidson, fixed reference)
 Cluster corrected energies          -416.62133095 (Davidson, relaxed reference)
 Cluster corrected energies          -416.62174067 (Davidson, rotated reference)

 Cluster corrected energies          -416.61959818 (Pople, fixed reference)
 Cluster corrected energies          -416.61917829 (Pople, relaxed reference)
 Cluster corrected energies          -416.61959818 (Pople, rotated reference)



 RESULTS FOR STATE 2.2
 =====================

 Maximum overlap with reference state  3

 Coefficient of reference function:   C(0) = 0.95432114 (fixed)   0.96876687 (relaxed)   0.96859260 (rotated)

 Energy contributions of configuration classes

 CLASS          SQ.NORM        ECORR1        ECORR2
 +++++++++++++++++++++++++++++++++++++++++++++++++++
 Internals    0.00041323   -0.00051532   -0.01476666
 Singles      0.01239641   -0.06468835   -0.07311338
 Pairs        0.05309341   -0.98852475   -0.98063134
 Total        1.06590305   -1.05372842   -1.06851138
 +++++++++++++++++++++++++++++++++++++++++++++++++++


 Reference energy                    -415.48281114
 Nuclear energy                         0.00000000
 Kinetic energy                       296.40489297
 One electron energy                 -729.22965488
 Two electron energy                  312.67833236
 Virial quotient                       -1.40534563
 Correlation energy                    -1.06851138
 !MRCI STATE 2.2 Energy              -416.551322512600

 Properties without orbital relaxation:

 !MRCI STATE 2.2 Dipole moment          0.00000000     0.00000000     0.00000000
 Dipole moment /Debye                   0.00000000     0.00000000     0.00000000

 Cluster corrected energies          -416.62174067 (Davidson, fixed reference)
 Cluster corrected energies          -416.62133095 (Davidson, relaxed reference)
 Cluster corrected energies          -416.62174067 (Davidson, rotated reference)

 Cluster corrected energies          -416.61959818 (Pople, fixed reference)
 Cluster corrected energies          -416.61917829 (Pople, relaxed reference)
 Cluster corrected energies          -416.61959818 (Pople, rotated reference)



 RESULTS FOR STATE 3.2
 =====================

 Maximum overlap with reference state  1

 Coefficient of reference function:   C(0) = 0.78275575 (fixed)   0.96876687 (relaxed)   0.96859260 (rotated)

 Energy contributions of configuration classes

 CLASS          SQ.NORM        ECORR1        ECORR2
 +++++++++++++++++++++++++++++++++++++++++++++++++++
 Internals    0.00041323   -0.00051532   -0.86321103
 Singles      0.01239641   -0.06468834   -0.07311338
 Pairs        0.05309342   -0.08416530   -0.13218696
 Total        1.06590305   -0.14936897   -1.06851138
 +++++++++++++++++++++++++++++++++++++++++++++++++++


 Reference energy                    -415.48281114
 Nuclear energy                         0.00000000
 Kinetic energy                       296.40489292
 One electron energy                 -729.22965467
 Two electron energy                  312.67833216
 Virial quotient                       -1.40534564
 Correlation energy                    -1.06851138
 !MRCI STATE 3.2 Energy              -416.551322512499

 Properties without orbital relaxation:

 !MRCI STATE 3.2 Dipole moment          0.00000000     0.00000000     0.00000000
 Dipole moment /Debye                   0.00000000     0.00000000     0.00000000

 Cluster corrected energies          -416.62174068 (Davidson, fixed reference)
 Cluster corrected energies          -416.62133096 (Davidson, relaxed reference)
 Cluster corrected energies          -416.62174068 (Davidson, rotated reference)

 Cluster corrected energies          -416.61959818 (Pople, fixed reference)
 Cluster corrected energies          -416.61917829 (Pople, relaxed reference)
 Cluster corrected energies          -416.61959818 (Pople, rotated reference)



 **********************************************************************************************************************************
 DATASETS  * FILE   NREC   LENGTH (MB)   RECORD NAMES
              1      21       93.78       500      700      610      900      950      970     1000      129      960     1100   
                                          VAR     GEOM    BASINP   SYMINP    ZMAT    AOBASIS   BASIS     P2S    ABASIS      S 
                                         1400     1410     1420     1200     1210     1080     1700     1600     1650     1380   
                                           T        V       ECP      H0       H01     AOSYM    OPER      SMH    MOLCAS    JKOP   
                                         1700(1)
                                         OPER   

              2       8     1754.54       500      700      610     1000      520     2100     2140     5203   
                                          VAR     GEOM    BASINP    BASIS   MCVARS     RHF     MCSCF    MRCI   

 PROGRAMS   *        TOTAL        CI     MULTI   RHF-SCF       INT      FILE
 CPU TIMES  *     22059.08  22026.59     12.85      4.11     13.74      1.65
 REAL TIME  *     22402.79 SEC
 DISK USED  *         1.81 GB (local),        6.49 GB (total)
 SF USED    *        18.78 GB
 GA USED    *         0.00 MB       (max)       0.00 MB       (current)
 **********************************************************************************************************************************
 SETTING HLSDIAG(1)     =      -416.62174067  AU                              
 SETTING HLSDIAG(2)     =      -416.62174067  AU                              
 SETTING HLSDIAG(3)     =      -416.62174068  AU                              


 PROGRAM * CI (Multireference internally contracted CI)     Authors: H.-J. Werner, P.J. Knowles, 1987


 Convergence thresholds:  THRVAR = 1.00D-08  THRDEN = 1.00D-06

 Number of optimized states: 8  Roots:    1   2   3   4   5   6   7   8
 Number of reference states: 8  Roots:    1   2   3   4   5   6   7   8

 Reference symmetry:                   2   Quartet 
 Number of electrons:                 25
 Maximum number of shells:             6
 Maximum number of spin couplings:   572

 Reference space:      344 conf      656 CSFs
 N elec internal:    52189 conf   229224 CSFs
 N-1 el internal:    51137 conf   453552 CSFs
 N-2 el internal:    21984 conf   385640 CSFs

 Number of electrons in valence space:                     25
 Maximum number of open shell orbitals in reference space:  7
 Maximum number of open shell orbitals in internal spaces: 13


 Number of closed-shell orbitals:   9 (   6   3 )
 Number of active  orbitals:        8 (   2   6 )
 Number of external orbitals:     248 ( 121 127 )

 Molecular orbitals read from record     2140.2  Type=MCSCF/NATURAL (state averaged)

 Coulomb and exchange operators available. No transformation done.


 Number of p-space configurations:   9

 Reference wavefunction optimized for reference space (refopt=1)

 State     Reference Energy 
     1      -415.18060517
     2      -415.18060517
     3      -415.18060517
     4      -415.17284771
     5      -415.17284771
     6      -415.17284771
     7      -415.17284771
     8      -415.17284771

 ?WARNING: SMALL EIGENVALUE OF PAIR OVERLAP MATRIX:  0.2856D-06

 Number of blocks in overlap matrix:   803   Smallest eigenvalue:  0.29D-06
 Number of N-2 electron functions:    2252
 Number of N-1 electron functions:  453552

 Number of internal configurations:               114452
 Number of singly external configurations:      56243520
 Number of doubly external configurations:      34635708
 Total number of contracted configurations:     90993680
 Total number of uncontracted configurations: 5975322824

 Diagonal Coupling coefficients finished.               Storage:  86403831 words, CPU-Time:    985.32 seconds.
 Energy denominators for pairs finished in 1 passes.    Storage:  10286474 words, CPU-time:      2.91 seconds.

  ITER. STATE  ROOT     SQ.NORM     CORR.ENERGY   TOTAL ENERGY   ENERGY CHANGE       DEN1      VAR(S)    VAR(P)      TIME
    1     1     1     1.00000000     0.00000000  -415.18060517    -0.00000000    -1.17861632  0.33D-01  0.59D-01  1076.61
    1     2     2     1.00000000     0.00000000  -415.18060517     0.00000000    -1.17869198  0.33D-01  0.59D-01  1076.61
    1     3     3     1.00000000     0.00000000  -415.18060517    -0.00000000    -1.17883989  0.33D-01  0.59D-01  1076.61
    1     4     4     1.00000000     0.00000000  -415.17284771    -0.00000000    -1.18021256  0.35D-01  0.59D-01  1076.61
    1     5     5     1.00000000     0.00000000  -415.17284771     0.00000000    -1.18026011  0.35D-01  0.59D-01  1076.61
    1     6     6     1.00000000     0.00000000  -415.17284771     0.00000000    -1.18055649  0.35D-01  0.59D-01  1076.61
    1     7     7     1.00000000     0.00000000  -415.17284771    -0.00000000    -1.18036100  0.35D-01  0.59D-01  1076.61
    1     8     8     1.00000000     0.00000000  -415.17284771     0.00000000    -1.18429439  0.35D-01  0.62D-01  1076.61
    2     1     1     1.06928547    -1.02063479  -416.20123996    -1.02063479    -0.02156559  0.25D-02  0.98D-03 16315.65
    2     2     2     1.06936275    -1.02058070  -416.20118587    -1.02058070    -0.02163815  0.26D-02  0.98D-03 16315.65
    2     3     3     1.06928315    -1.02057504  -416.20118021    -1.02057504    -0.02162638  0.26D-02  0.99D-03 16315.65
    2     4     4     1.07042455    -1.02130324  -416.19415095    -1.02130324    -0.02200361  0.29D-02  0.97D-03 16315.65
    2     5     5     1.07036634    -1.02106417  -416.19391188    -1.02106417    -0.02216842  0.29D-02  0.98D-03 16315.65
    2     6     6     1.07044469    -1.02102087  -416.19386858    -1.02102087    -0.02222725  0.29D-02  0.98D-03 16315.65
    2     7     7     1.07040809    -1.02101552  -416.19386323    -1.02101552    -0.02223639  0.29D-02  0.99D-03 16315.65
    2     8     8     1.07163105    -1.02064963  -416.19349733    -1.02064963    -0.02276887  0.29D-02  0.12D-02 16315.65
    3     1     1     1.05915816    -1.04103024  -416.22163541    -0.02039545    -0.00050103  0.33D-04  0.50D-04 31544.11
    3     2     2     1.05914824    -1.04102557  -416.22163074    -0.02044486    -0.00050351  0.33D-04  0.50D-04 31544.11
    3     3     3     1.05913003    -1.04102385  -416.22162902    -0.02044881    -0.00050513  0.33D-04  0.51D-04 31544.11
    3     4     4     1.05975855    -1.04215999  -416.21500770    -0.02085675    -0.00049071  0.39D-04  0.48D-04 31544.11
    3     5     5     1.05962986    -1.04213267  -416.21498037    -0.02106849    -0.00050629  0.42D-04  0.48D-04 31544.11
    3     6     6     1.05952515    -1.04209022  -416.21493793    -0.02106934    -0.00053117  0.42D-04  0.52D-04 31544.11
    3     7     7     1.05953352    -1.04208893  -416.21493664    -0.02107341    -0.00053146  0.42D-04  0.52D-04 31544.11
    3     8     8     1.05952254    -1.04208393  -416.21493163    -0.02143430    -0.00053410  0.42D-04  0.53D-04 31544.11
    4     1     1     1.05926514    -1.04159561  -416.22220078    -0.00056536    -0.00004557  0.20D-05  0.56D-05 46780.30
    4     2     2     1.05925706    -1.04159509  -416.22220026    -0.00056952    -0.00004611  0.20D-05  0.57D-05 46780.30
    4     3     3     1.05925922    -1.04159473  -416.22219990    -0.00057088    -0.00004621  0.20D-05  0.57D-05 46780.30
    4     4     4     1.05970093    -1.04270175  -416.21554945    -0.00054176    -0.00004023  0.18D-05  0.52D-05 46780.30
    4     5     5     1.05967149    -1.04269859  -416.21554630    -0.00056592    -0.00004301  0.19D-05  0.54D-05 46780.30
    4     6     6     1.05962694    -1.04269192  -416.21553963    -0.00060170    -0.00004790  0.21D-05  0.59D-05 46780.30
    4     7     7     1.05962549    -1.04269122  -416.21553893    -0.00060229    -0.00004826  0.21D-05  0.60D-05 46780.30
    4     8     8     1.05961999    -1.04269032  -416.21553803    -0.00060639    -0.00004890  0.22D-05  0.60D-05 46780.30
    5     1     1     1.05975499    -1.04165313  -416.22225830    -0.00005752    -0.00000423  0.22D-06  0.43D-06 62042.11
    5     2     2     1.05975514    -1.04165310  -416.22225827    -0.00005801    -0.00000422  0.22D-06  0.43D-06 62042.11
    5     3     3     1.05975502    -1.04165305  -416.22225822    -0.00005832    -0.00000427  0.22D-06  0.43D-06 62042.11
    5     4     4     1.06013429    -1.04275245  -416.21560015    -0.00005070    -0.00000392  0.21D-06  0.42D-06 62042.11
    5     5     5     1.06013539    -1.04275233  -416.21560004    -0.00005374    -0.00000395  0.20D-06  0.43D-06 62042.11
    5     6     6     1.06013229    -1.04275211  -416.21559982    -0.00006019    -0.00000439  0.24D-06  0.45D-06 62042.11
    5     7     7     1.06013230    -1.04275201  -416.21559971    -0.00006078    -0.00000445  0.24D-06  0.45D-06 62042.11
    5     8     8     1.06013201    -1.04275193  -416.21559964    -0.00006161    -0.00000450  0.24D-06  0.46D-06 62042.11
    6     1     1     1.05980709    -1.04165819  -416.22226337    -0.00000506    -0.00000034  0.16D-07  0.39D-07 77315.95
    6     2     2     1.05980708    -1.04165816  -416.22226333    -0.00000506    -0.00000034  0.15D-07  0.38D-07 77315.95
    6     3     3     1.05980711    -1.04165815  -416.22226332    -0.00000510    -0.00000034  0.16D-07  0.38D-07 77315.95
    6     4     4     1.06018830    -1.04275736  -416.21560507    -0.00000491    -0.00000036  0.19D-07  0.40D-07 77315.95
    6     5     5     1.06018813    -1.04275732  -416.21560503    -0.00000499    -0.00000036  0.20D-07  0.40D-07 77315.95
    6     6     6     1.06018801    -1.04275730  -416.21560501    -0.00000520    -0.00000037  0.20D-07  0.41D-07 77315.95
    6     7     7     1.06019042    -1.04275722  -416.21560493    -0.00000521    -0.00000034  0.18D-07  0.38D-07 77315.95
    6     8     8     1.06019163    -1.04275711  -416.21560482    -0.00000518    -0.00000033  0.18D-07  0.38D-07 77315.95
    7     1     1     1.05981292    -1.04165860  -416.22226377    -0.00000040    -0.00000004  0.18D-08  0.47D-08 92586.97
    7     2     2     1.05981278    -1.04165856  -416.22226373    -0.00000040    -0.00000004  0.18D-08  0.47D-08 92586.97
    7     3     3     1.05981290    -1.04165855  -416.22226372    -0.00000040    -0.00000004  0.18D-08  0.46D-08 92586.97
    7     4     4     1.06019554    -1.04275778  -416.21560549    -0.00000042    -0.00000004  0.20D-08  0.49D-08 92586.97
    7     5     5     1.06019536    -1.04275774  -416.21560545    -0.00000042    -0.00000004  0.20D-08  0.49D-08 92586.97
    7     6     6     1.06019524    -1.04275773  -416.21560544    -0.00000042    -0.00000004  0.20D-08  0.49D-08 92586.97
    7     7     7     1.06019634    -1.04275762  -416.21560533    -0.00000040    -0.00000004  0.19D-08  0.48D-08 92586.97
    7     8     8     1.06019696    -1.04275750  -416.21560521    -0.00000039    -0.00000004  0.19D-08  0.48D-08 92586.97


 =====================================
 Analysis of CPU times by interactions
 =====================================

       I      S      P

 I   0.2%
 S   0.2%  22.4%
 P   0.1%  58.2%  14.1%

 Initialization:   1.1%
 Other:            3.6%

 Total CPU:    92587.0 seconds
 =====================================



 Wavefunction saved on  5303.2

 Reference coefficients greater than 0.0500000
 =============================================
 22222220222/2/0/0           0.0000000   0.0000000  -0.0000000  -0.0002444   0.0000008   0.0001752   0.0063152   0.7908781
 222222202222///00           0.0000000  -0.0000000  -0.0000000  -0.0003915   0.0001175  -0.0002866   0.6880781   0.3899702
 22222220222//2/00           0.6850966  -0.0000000   0.0000719   0.6849416  -0.0010035   0.0002519   0.0002713   0.0002094
 222222202222//00/          -0.6850950   0.0000000  -0.0000719   0.6849427  -0.0010035   0.0002519   0.0002713   0.0002094
 22222220222/2//00          -0.0000005   0.6850797   0.0049391  -0.0002448   0.0048890   0.6849239   0.0003721  -0.0001547
 22222220222/2/00/          -0.0000719  -0.0049391   0.6850796  -0.0010053  -0.6849233   0.0048886   0.0001194  -0.0000016
 22222220222//20/0          -0.0000719  -0.0049391   0.6850764   0.0010053   0.6849264  -0.0048886  -0.0001194   0.0000016
 222222202222//0/0          -0.0000005   0.6850763   0.0049391   0.0002448  -0.0048890  -0.6849271  -0.0003721   0.0001547
 22222220222//200/          -0.0000000   0.0000000  -0.0000000   0.0001471  -0.0001167   0.0004618  -0.6817634   0.4009082

 Coefficients of fixed reference functions:
 ==========================================

 State      Coefficients
 1           0.971276   -0.000001   -0.000102   -0.000000    0.000001    0.000000   -0.000000    0.000000
 2          -0.000000    0.971251   -0.007002    0.000002   -0.000000   -0.000000    0.000000    0.000000
 3           0.000102    0.007002    0.971251    0.000000    0.000000    0.000000   -0.000002   -0.000000
 4          -0.000001    0.000000    0.000000   -0.000347    0.971099   -0.000382    0.001425   -0.000300
 5           0.000000   -0.000000    0.000002    0.006932   -0.001423    0.000166    0.971075    0.000001
 6           0.000000   -0.000002   -0.000000    0.971075    0.000357   -0.000531   -0.006931    0.000215
 7          -0.000000    0.000000   -0.000000    0.000527    0.000385    0.971069   -0.000169    0.007692
 8          -0.000000   -0.000000    0.000000   -0.000219    0.000297   -0.007692    0.000002    0.971069

 Coefficients of rotated reference functions:
 ============================================

 State      Coefficients
 1           0.971276    0.000000   -0.000000    0.000000   -0.000000    0.000000    0.000000    0.000000
 2           0.000000    0.971276    0.000000   -0.000000    0.000000    0.000000    0.000000   -0.000000
 3          -0.000000    0.000000    0.971276    0.000000   -0.000000    0.000000    0.000000   -0.000000
 4           0.000000   -0.000000    0.000000    0.971100    0.000000   -0.000000    0.000000    0.000000
 5          -0.000000    0.000000   -0.000000    0.000000    0.971100    0.000000   -0.000000   -0.000000
 6           0.000000    0.000000    0.000000   -0.000000    0.000000    0.971100    0.000000   -0.000000
 7           0.000000    0.000000    0.000000    0.000000   -0.000000    0.000000    0.971100    0.000000
 8           0.000000   -0.000000   -0.000000    0.000000   -0.000000   -0.000000    0.000000    0.971100


 RESULTS FOR STATE 1.2
 =====================

 Coefficient of reference function:   C(0) = 0.97127581 (fixed)   0.97134270 (relaxed)   0.97127581 (rotated)

 Energy contributions of configuration classes

 CLASS          SQ.NORM        ECORR1        ECORR2
 +++++++++++++++++++++++++++++++++++++++++++++++++++
 Internals    0.00019722   -0.00060042   -0.91491182
 Singles      0.01381755   -0.07203743   -0.08153280
 Pairs        0.04600716   -0.00000001   -0.04521398
 Total        1.06002194   -0.07263786   -1.04165860
 +++++++++++++++++++++++++++++++++++++++++++++++++++


 Reference energy                    -415.18060517
 Nuclear energy                         0.00000000
 Kinetic energy                       296.02664780
 One electron energy                 -722.68922340
 Two electron energy                  306.46695964
 Virial quotient                       -1.40602972
 Correlation energy                    -1.04165860
 !MRCI STATE 1.2 Energy              -416.222263765668

 Properties without orbital relaxation:

 !MRCI STATE 1.2 Dipole moment          0.00000000     0.00000000     0.00000000
 Dipole moment /Debye                   0.00000000     0.00000000     0.00000000

 Cluster corrected energies          -416.28478613 (Davidson, fixed reference)
 Cluster corrected energies          -416.28463406 (Davidson, relaxed reference)
 Cluster corrected energies          -416.28478613 (Davidson, rotated reference)

 Cluster corrected energies          -416.28201804 (Pople, fixed reference)
 Cluster corrected energies          -416.28186531 (Pople, relaxed reference)
 Cluster corrected energies          -416.28201804 (Pople, rotated reference)



 RESULTS FOR STATE 2.2
 =====================

 Coefficient of reference function:   C(0) = 0.97125064 (fixed)   0.97134277 (relaxed)   0.97127588 (rotated)

 Energy contributions of configuration classes

 CLASS          SQ.NORM        ECORR1        ECORR2
 +++++++++++++++++++++++++++++++++++++++++++++++++++
 Internals    0.00019722   -0.00060042   -0.91491205
 Singles      0.01381746   -0.07203728   -0.08153266
 Pairs        0.04600711   -0.00000000   -0.04521385
 Total        1.06002180   -0.07263770   -1.04165856
 +++++++++++++++++++++++++++++++++++++++++++++++++++


 Reference energy                    -415.18060517
 Nuclear energy                         0.00000000
 Kinetic energy                       296.02665043
 One electron energy                 -722.68922970
 Two electron energy                  306.46696597
 Virial quotient                       -1.40602970
 Correlation energy                    -1.04165856
 !MRCI STATE 2.2 Energy              -416.222263729941

 Properties without orbital relaxation:

 !MRCI STATE 2.2 Dipole moment          0.00000000     0.00000000     0.00000000
 Dipole moment /Debye                   0.00000000     0.00000000     0.00000000

 Cluster corrected energies          -416.28478595 (Davidson, fixed reference)
 Cluster corrected energies          -416.28463387 (Davidson, relaxed reference)
 Cluster corrected energies          -416.28478595 (Davidson, rotated reference)

 Cluster corrected energies          -416.28201786 (Pople, fixed reference)
 Cluster corrected energies          -416.28186513 (Pople, relaxed reference)
 Cluster corrected energies          -416.28201786 (Pople, rotated reference)



 RESULTS FOR STATE 3.2
 =====================

 Coefficient of reference function:   C(0) = 0.97125057 (fixed)   0.97134271 (relaxed)   0.97127582 (rotated)

 Energy contributions of configuration classes

 CLASS          SQ.NORM        ECORR1        ECORR2
 +++++++++++++++++++++++++++++++++++++++++++++++++++
 Internals    0.00019722   -0.00060042   -0.91491194
 Singles      0.01381749   -0.07203728   -0.08153264
 Pairs        0.04600720    0.00000000   -0.04521397
 Total        1.06002192   -0.07263770   -1.04165855
 +++++++++++++++++++++++++++++++++++++++++++++++++++


 Reference energy                    -415.18060517
 Nuclear energy                         0.00000000
 Kinetic energy                       296.02664585
 One electron energy                 -722.68922566
 Two electron energy                  306.46696194
 Virial quotient                       -1.40602973
 Correlation energy                    -1.04165855
 !MRCI STATE 3.2 Energy              -416.222263720685

 Properties without orbital relaxation:

 !MRCI STATE 3.2 Dipole moment          0.00000000     0.00000000     0.00000000
 Dipole moment /Debye                   0.00000000     0.00000000     0.00000000

 Cluster corrected energies          -416.28478606 (Davidson, fixed reference)
 Cluster corrected energies          -416.28463399 (Davidson, relaxed reference)
 Cluster corrected energies          -416.28478606 (Davidson, rotated reference)

 Cluster corrected energies          -416.28201797 (Pople, fixed reference)
 Cluster corrected energies          -416.28186524 (Pople, relaxed reference)
 Cluster corrected energies          -416.28201797 (Pople, rotated reference)



 RESULTS FOR STATE 4.2
 =====================

 Maximum overlap with reference state  5

 Coefficient of reference function:   C(0) = 0.97109900 (fixed)   0.97116652 (relaxed)   0.97110023 (rotated)

 Energy contributions of configuration classes

 CLASS          SQ.NORM        ECORR1        ECORR2
 +++++++++++++++++++++++++++++++++++++++++++++++++++
 Internals    0.00019784   -0.00060928   -0.91533080
 Singles      0.01407831   -0.07264202   -0.08234392
 Pairs        0.04612914    0.00029956   -0.04508306
 Total        1.06040529   -0.07295174   -1.04275778
 +++++++++++++++++++++++++++++++++++++++++++++++++++


 Reference energy                    -415.17284771
 Nuclear energy                         0.00000000
 Kinetic energy                       296.03218869
 One electron energy                 -722.70816644
 Two electron energy                  306.49256095
 Virial quotient                       -1.40598091
 Correlation energy                    -1.04275778
 !MRCI STATE 4.2 Energy              -416.215605485750

 Properties without orbital relaxation:

 !MRCI STATE 4.2 Dipole moment          0.00000000     0.00000000     0.00000000
 Dipole moment /Debye                   0.00000000     0.00000000     0.00000000

 Cluster corrected energies          -416.27859357 (Davidson, fixed reference)
 Cluster corrected energies          -416.27844262 (Davidson, relaxed reference)
 Cluster corrected energies          -416.27859357 (Davidson, rotated reference)

 Cluster corrected energies          -416.27582446 (Pople, fixed reference)
 Cluster corrected energies          -416.27567276 (Pople, relaxed reference)
 Cluster corrected energies          -416.27582446 (Pople, rotated reference)



 RESULTS FOR STATE 5.2
 =====================

 Maximum overlap with reference state  7

 Coefficient of reference function:   C(0) = 0.97107452 (fixed)   0.97116660 (relaxed)   0.97110031 (rotated)

 Energy contributions of configuration classes

 CLASS          SQ.NORM        ECORR1        ECORR2
 +++++++++++++++++++++++++++++++++++++++++++++++++++
 Internals    0.00019784   -0.00060928   -0.91504754
 Singles      0.01407825   -0.07264194   -0.08234382
 Pairs        0.04612901   -0.00000102   -0.04536638
 Total        1.06040511   -0.07325224   -1.04275774
 +++++++++++++++++++++++++++++++++++++++++++++++++++


 Reference energy                    -415.17284771
 Nuclear energy                         0.00000000
 Kinetic energy                       296.03219207
 One electron energy                 -722.70817206
 Two electron energy                  306.49256661
 Virial quotient                       -1.40598089
 Correlation energy                    -1.04275774
 !MRCI STATE 5.2 Energy              -416.215605448380

 Properties without orbital relaxation:

 !MRCI STATE 5.2 Dipole moment          0.00000000     0.00000000     0.00000000
 Dipole moment /Debye                   0.00000000     0.00000000     0.00000000

 Cluster corrected energies          -416.27859334 (Davidson, fixed reference)
 Cluster corrected energies          -416.27844239 (Davidson, relaxed reference)
 Cluster corrected energies          -416.27859334 (Davidson, rotated reference)

 Cluster corrected energies          -416.27582423 (Pople, fixed reference)
 Cluster corrected energies          -416.27567253 (Pople, relaxed reference)
 Cluster corrected energies          -416.27582423 (Pople, rotated reference)



 RESULTS FOR STATE 6.2
 =====================

 Maximum overlap with reference state  4

 Coefficient of reference function:   C(0) = 0.97107540 (fixed)   0.97116666 (relaxed)   0.97110037 (rotated)

 Energy contributions of configuration classes

 CLASS          SQ.NORM        ECORR1        ECORR2
 +++++++++++++++++++++++++++++++++++++++++++++++++++
 Internals    0.00019784   -0.00060928   -0.91484607
 Singles      0.01407824   -0.07264195   -0.08234382
 Pairs        0.04612891   -0.00021475   -0.04556784
 Total        1.06040499   -0.07346598   -1.04275773
 +++++++++++++++++++++++++++++++++++++++++++++++++++


 Reference energy                    -415.17284771
 Nuclear energy                         0.00000000
 Kinetic energy                       296.03219785
 One electron energy                 -722.70817567
 Two electron energy                  306.49257024
 Virial quotient                       -1.40598086
 Correlation energy                    -1.04275773
 !MRCI STATE 6.2 Energy              -416.215605436402

 Properties without orbital relaxation:

 !MRCI STATE 6.2 Dipole moment          0.00000000     0.00000000     0.00000000
 Dipole moment /Debye                   0.00000000     0.00000000     0.00000000

 Cluster corrected energies          -416.27859321 (Davidson, fixed reference)
 Cluster corrected energies          -416.27844226 (Davidson, relaxed reference)
 Cluster corrected energies          -416.27859321 (Davidson, rotated reference)

 Cluster corrected energies          -416.27582409 (Pople, fixed reference)
 Cluster corrected energies          -416.27567240 (Pople, relaxed reference)
 Cluster corrected energies          -416.27582409 (Pople, rotated reference)



 RESULTS FOR STATE 7.2
 =====================

 Maximum overlap with reference state  6

 Coefficient of reference function:   C(0) = 0.97106916 (fixed)   0.97116616 (relaxed)   0.97109986 (rotated)

 Energy contributions of configuration classes

 CLASS          SQ.NORM        ECORR1        ECORR2
 +++++++++++++++++++++++++++++++++++++++++++++++++++
 Internals    0.00019784   -0.00060927   -0.90780535
 Singles      0.01407819   -0.07264177   -0.08234362
 Pairs        0.04613006   -0.00767983   -0.05260864
 Total        1.06040609   -0.08093086   -1.04275762
 +++++++++++++++++++++++++++++++++++++++++++++++++++


 Reference energy                    -415.17284771
 Nuclear energy                         0.00000000
 Kinetic energy                       296.03215486
 One electron energy                 -722.70814650
 Two electron energy                  306.49254118
 Virial quotient                       -1.40598107
 Correlation energy                    -1.04275762
 !MRCI STATE 7.2 Energy              -416.215605326803

 Properties without orbital relaxation:

 !MRCI STATE 7.2 Dipole moment          0.00000000     0.00000000     0.00000000
 Dipole moment /Debye                   0.00000000     0.00000000     0.00000000

 Cluster corrected energies          -416.27859424 (Davidson, fixed reference)
 Cluster corrected energies          -416.27844329 (Davidson, relaxed reference)
 Cluster corrected energies          -416.27859424 (Davidson, rotated reference)

 Cluster corrected energies          -416.27582513 (Pople, fixed reference)
 Cluster corrected energies          -416.27567343 (Pople, relaxed reference)
 Cluster corrected energies          -416.27582513 (Pople, rotated reference)



 RESULTS FOR STATE 8.2
 =====================

 Coefficient of reference function:   C(0) = 0.97106904 (fixed)   0.97116587 (relaxed)   0.97109957 (rotated)

 Energy contributions of configuration classes

 CLASS          SQ.NORM        ECORR1        ECORR2
 +++++++++++++++++++++++++++++++++++++++++++++++++++
 Internals    0.00019785   -0.00060927   -0.00079787
 Singles      0.01407823   -0.07264179   -0.08234340
 Pairs        0.04613065   -0.96947595   -0.95961623
 Total        1.06040672   -1.04272701   -1.04275750
 +++++++++++++++++++++++++++++++++++++++++++++++++++


 Reference energy                    -415.17284771
 Nuclear energy                         0.00000000
 Kinetic energy                       296.03215290
 One electron energy                 -722.70815038
 Two electron energy                  306.49254517
 Virial quotient                       -1.40598108
 Correlation energy                    -1.04275750
 !MRCI STATE 8.2 Energy              -416.215605211031

 Properties without orbital relaxation:

 !MRCI STATE 8.2 Dipole moment          0.00000000     0.00000000     0.00000000
 Dipole moment /Debye                   0.00000000     0.00000000     0.00000000

 Cluster corrected energies          -416.27859477 (Davidson, fixed reference)
 Cluster corrected energies          -416.27844382 (Davidson, relaxed reference)
 Cluster corrected energies          -416.27859477 (Davidson, rotated reference)

 Cluster corrected energies          -416.27582567 (Pople, fixed reference)
 Cluster corrected energies          -416.27567396 (Pople, relaxed reference)
 Cluster corrected energies          -416.27582567 (Pople, rotated reference)



 **********************************************************************************************************************************
 DATASETS  * FILE   NREC   LENGTH (MB)   RECORD NAMES
              1      21       93.78       500      700      610      900      950      970     1000      129      960     1100   
                                          VAR     GEOM    BASINP   SYMINP    ZMAT    AOBASIS   BASIS     P2S    ABASIS      S 
                                         1400     1410     1420     1200     1210     1080     1700     1600     1650     1380   
                                           T        V       ECP      H0       H01     AOSYM    OPER      SMH    MOLCAS    JKOP   
                                         1700(1)
                                         OPER   

              2       9     7330.86       500      700      610     1000      520     2100     2140     5203     5303   
                                          VAR     GEOM    BASINP    BASIS   MCVARS     RHF     MCSCF    MRCI     MRCI   

 PROGRAMS   *        TOTAL        CI        CI     MULTI   RHF-SCF       INT      FILE
 CPU TIMES  *    121541.67  99482.59  22026.59     12.85      4.11     13.74      1.65
 REAL TIME  *    123766.48 SEC
 DISK USED  *         7.25 GB (local),       22.82 GB (total)
 SF USED    *        57.29 GB
 GA USED    *         0.00 MB       (max)       0.00 MB       (current)
 **********************************************************************************************************************************
 SETTING HLSDIAG(4)     =      -416.28478613  AU                              
 SETTING HLSDIAG(5)     =      -416.28478595  AU                              
 SETTING HLSDIAG(6)     =      -416.28478606  AU                              
 SETTING HLSDIAG(7)     =      -416.27859357  AU                              
 SETTING HLSDIAG(8)     =      -416.27859334  AU                              
 SETTING HLSDIAG(9)     =      -416.27859321  AU                              
 SETTING HLSDIAG(10)    =      -416.27859424  AU                              
 SETTING HLSDIAG(11)    =      -416.27859477  AU                              


         HLSDIAG
    -416.6217407
    -416.6217407
    -416.6217407
    -416.2847861
    -416.2847859
    -416.2847861
    -416.2785936
    -416.2785933
    -416.2785932
    -416.2785942
    -416.2785948
                                                  


 PROGRAM * CI (Multireference internally contracted CI)     Authors: H.-J. Werner, P.J. Knowles, 1987


 Diagonal elements of H will be replaced by values from variable HLSDIAG


   ******************************
   *** Spin-orbit calculation ***
   ******************************


   Spin-orbit matrix elements
   ==========================

 Wavefunction restored from record  5203.2  Symmetry=2  S= 0.5  NSTATE=   3

 Original energies:   -416.551323   -416.551323   -416.551323
 Replaced energies:   -416.621741   -416.621741   -416.621741

 Wavefunction restored from record  5303.2  Symmetry=2  S= 1.5  NSTATE=   8

 Original energies:   -416.222264   -416.222264   -416.222264   -416.215605   -416.215605   -416.215605   -416.215605   -416.215605
 Replaced energies:   -416.284786   -416.284786   -416.284786   -416.278594   -416.278593   -416.278593   -416.278594   -416.278595



   Spin-orbit calculation in the basis of zeroth order wave functions
   ==================================================================

 Lowest unperturbed energy E0=  -416.62174068

 Wigner-Eckart theorem used for 23 matrix elements

 No symmetry adapted basis set used to set up the SO-matrix


 Spin-Orbit Matrix (CM-1)
 ========================

   Nr   State  S   Sz        1          2          3          4          5          6          7          8          9         10

    1   1.2  0.5  0.5       0.00       0.00       0.00       0.00     105.67   -1241.13      -0.02     147.60     215.13      -0.41
                           -0.00    1018.01     194.97       0.00    -734.39      91.67     149.15      -0.28      39.46     161.82

    2   2.2  0.5  0.5       0.00       0.00       0.00    -105.67       0.00     187.75       0.00     -40.48     -19.54      -0.05
                        -1018.01       0.00     715.88     734.39      -0.00    1019.36     -40.65      -1.88     260.73     -43.63

    3   3.2  0.5  0.5       0.00       0.00       0.00    1241.13    -187.75      -0.00       0.02     213.20    -152.69       0.15
                         -194.97    -715.88       0.00     -91.67   -1019.36      -0.00     212.10      -0.16      22.22     229.96

    4   1.2  0.5 -0.5       0.00    -105.67    1241.13       0.00       0.00       0.00       0.00       0.00       0.00       0.00
                           -0.00    -734.39      91.67       0.00   -1018.01    -194.97       0.00       0.00       0.00       0.00

    5   2.2  0.5 -0.5     105.67       0.00    -187.75       0.00       0.00       0.00       0.00       0.00       0.00       0.00
                          734.39       0.00    1019.36    1018.01      -0.00    -715.88       0.00       0.00       0.00       0.00

    6   3.2  0.5 -0.5   -1241.13     187.75      -0.00       0.00       0.00       0.00       0.00       0.00       0.00       0.00
                          -91.67   -1019.36       0.00     194.97     715.88      -0.00       0.00       0.00       0.00       0.00

    7   1.2  1.5  1.5      -0.02       0.00       0.02       0.00       0.00       0.00   73952.97       0.00       0.00       0.00
                         -149.15      40.65    -212.10      -0.00      -0.00      -0.00       0.00    -649.52      -4.68       0.26

    8   2.2  1.5  1.5     147.60     -40.48     213.20       0.00       0.00       0.00       0.00   73953.01       0.00       0.00
                            0.28       1.88       0.16      -0.00      -0.00      -0.00     649.52       0.00       0.07     729.44

    9   3.2  1.5  1.5     215.13     -19.54    -152.69       0.00       0.00       0.00       0.00       0.00   73952.99       0.00
                          -39.46    -260.73     -22.22      -0.00      -0.00      -0.00       4.68      -0.07       0.00       5.68

   10   4.2  1.5  1.5      -0.41      -0.05       0.15       0.00       0.00       0.00       0.00       0.00       0.00   75312.08
                         -161.82      43.63    -229.96      -0.00      -0.00      -0.00      -0.26    -729.44      -5.68       0.00

   11   5.2  1.5  1.5    -230.97      20.56     168.87       0.00       0.00       0.00       0.00       0.00       0.00       0.00
[...]

   36    6.2  1.5 -1.5  -0.003047400   0.353525126   0.114101586  -0.000410410  -0.003110093   0.214189468
                        -0.000122196   0.192264778  -0.014911875  -0.000228173  -0.000202935   0.039433481

   37    7.2  1.5 -1.5  -0.000036633   0.000174208   0.000076529  -0.000381812  -0.000076188   0.000100964
                         0.133914726   0.000182890  -0.000073525   0.396491283   0.214812382   0.000106908

   38    8.2  1.5 -1.5   0.000003042   0.000018040  -0.000045293  -0.000159960   0.000001562  -0.000060760
                        -0.396468255  -0.000084821   0.000192845   0.133931559  -0.378971122   0.000055360


 Composition of spin-orbit eigenvectors
 ======================================

   Nr   State  S   Sz       1        2        3        4        5        6        7        8        9       10

    1    1.2  0.5  0.5  41.409%   1.533%  20.107%   3.613%  10.765%  22.565%   0.000%   0.000%   0.000%   0.000%
    2    2.2  0.5  0.5  32.305%   0.109%   1.534%  32.714%   0.798%  32.531%   0.000%   0.000%   0.000%   0.000%
    3    3.2  0.5  0.5  21.628%   3.009%  40.371%   1.654%  21.767%  11.563%   0.000%   0.000%   0.000%   0.000%
    4    1.2  0.5 -0.5   1.532%  41.409%   3.613%  20.107%  22.565%  10.765%   0.000%   0.000%   0.000%   0.000%
    5    2.2  0.5 -0.5   0.109%  32.304%  32.714%   1.534%  32.531%   0.798%   0.000%   0.000%   0.000%   0.000%
    6    3.2  0.5 -0.5   3.009%  21.628%   1.654%  40.371%  11.563%  21.767%   0.000%   0.000%   0.000%   0.000%
    7    1.2  1.5  1.5   0.000%   0.000%   0.001%   0.000%   0.000%   0.000%   1.826%   0.001%   0.000%  39.911%
    8    2.2  1.5  1.5   0.000%   0.000%   0.001%   0.000%   0.000%   0.000%   7.281%   0.000%   0.000%  13.322%
    9    3.2  1.5  1.5   0.002%   0.000%   0.000%   0.000%   0.000%   0.000%   0.000%  23.867%   1.124%   0.001%
   10    4.2  1.5  1.5   0.000%   0.000%   0.001%   0.000%   0.000%   0.000%   1.206%   0.000%   0.000%   0.071%
   11    5.2  1.5  1.5   0.000%   0.000%   0.000%   0.001%   0.000%   0.002%   0.000%   0.138%   0.430%   0.001%
   12    6.2  1.5  1.5   0.000%   0.000%   0.001%   0.000%   0.000%   0.000%   0.000%   0.000%   0.000%   5.948%
   13    7.2  1.5  1.5   0.001%   0.000%   0.000%   0.000%   0.000%   0.000%   0.000%   3.295%   0.012%   0.000%
   14    8.2  1.5  1.5   0.000%   0.000%   0.000%   0.001%   0.000%   0.001%   0.000%   2.120%   0.666%   0.000%
   15    1.2  1.5  0.5   0.001%   0.000%   0.000%   0.001%   0.000%   0.000%   0.000%  29.338%   9.058%   0.001%
   16    2.2  1.5  0.5   0.000%   0.000%   0.000%   0.001%   0.000%   0.000%   0.000%   9.273%   1.377%   0.000%
   17    3.2  1.5  0.5   0.000%   0.000%   0.000%   0.000%   0.001%   0.000%   5.444%   0.001%   0.001%  21.345%
   18    4.2  1.5  0.5   0.001%   0.000%   0.000%   0.000%   0.000%   0.001%   0.000%   0.845%   1.059%   0.000%
   19    5.2  1.5  0.5   0.000%   0.001%   0.000%   0.000%   0.000%   0.000%   1.001%   0.000%   0.000%   2.610%
   20    6.2  1.5  0.5   0.001%   0.000%   0.000%   0.000%   0.000%   0.001%   0.000%   0.024%   0.745%   0.000%
   21    7.2  1.5  0.5   0.000%   0.000%   0.001%   0.000%   0.001%   0.000%   0.642%   0.000%   0.000%   1.888%
   22    8.2  1.5  0.5   0.000%   0.001%   0.000%   0.000%   0.000%   0.000%   4.647%   0.000%   0.000%   0.914%
   23    1.2  1.5 -0.5   0.000%   0.001%   0.001%   0.000%   0.000%   0.000%  32.319%   0.000%   0.001%   6.038%
   24    2.2  1.5 -0.5   0.000%   0.000%   0.001%   0.000%   0.000%   0.000%  11.232%   0.000%   0.001%   4.679%
   25    3.2  1.5 -0.5   0.000%   0.000%   0.000%   0.000%   0.000%   0.001%   0.001%   5.622%  17.494%   0.001%
   26    4.2  1.5 -0.5   0.000%   0.001%   0.000%   0.000%   0.001%   0.000%   0.877%   0.000%   0.000%   1.120%
   27    5.2  1.5 -0.5   0.001%   0.000%   0.000%   0.000%   0.000%   0.000%   0.000%   0.405%   3.808%   0.000%
   28    6.2  1.5 -0.5   0.000%   0.001%   0.000%   0.000%   0.001%   0.000%   0.014%   0.000%   0.000%   1.065%
   29    7.2  1.5 -0.5   0.000%   0.000%   0.000%   0.001%   0.000%   0.001%   0.000%   0.762%   1.452%   0.000%
   30    8.2  1.5 -0.5   0.001%   0.000%   0.000%   0.000%   0.000%   0.000%   0.000%   5.263%   0.634%   0.000%
   31    1.2  1.5 -1.5   0.000%   0.000%   0.000%   0.001%   0.000%   0.000%   0.001%   4.706%  40.609%   0.000%
   32    2.2  1.5 -1.5   0.000%   0.000%   0.000%   0.001%   0.000%   0.000%   0.000%  12.518%  15.663%   0.000%
   33    3.2  1.5 -1.5   0.000%   0.002%   0.000%   0.000%   0.000%   0.000%  27.220%   0.000%   0.000%   0.029%
   34    4.2  1.5 -1.5   0.000%   0.000%   0.000%   0.001%   0.000%   0.000%   0.000%   1.774%   0.175%   0.000%
   35    5.2  1.5 -1.5   0.000%   0.000%   0.001%   0.000%   0.002%   0.000%   0.134%   0.000%   0.001%   0.524%
   36    6.2  1.5 -1.5   0.000%   0.000%   0.000%   0.001%   0.000%   0.000%   0.000%   0.047%   5.690%   0.000%
   37    7.2  1.5 -1.5   0.000%   0.001%   0.000%   0.000%   0.000%   0.000%   3.818%   0.000%   0.000%   0.083%
   38    8.2  1.5 -1.5   0.000%   0.000%   0.001%   0.000%   0.001%   0.000%   2.335%   0.000%   0.000%   0.448%

   Nr   State  S   Sz      11       12       13       14       15       16       17       18       19       20

    1    1.2  0.5  0.5   0.000%   0.000%   0.000%   0.000%   0.000%   0.000%   0.000%   0.000%   0.000%   0.000%
    2    2.2  0.5  0.5   0.000%   0.000%   0.000%   0.000%   0.000%   0.000%   0.000%   0.000%   0.000%   0.000%
    3    3.2  0.5  0.5   0.000%   0.000%   0.000%   0.000%   0.000%   0.000%   0.000%   0.000%   0.000%   0.000%
    4    1.2  0.5 -0.5   0.000%   0.000%   0.000%   0.000%   0.000%   0.000%   0.000%   0.000%   0.000%   0.000%
    5    2.2  0.5 -0.5   0.000%   0.000%   0.000%   0.000%   0.000%   0.000%   0.000%   0.000%   0.000%   0.000%
    6    3.2  0.5 -0.5   0.000%   0.000%   0.000%   0.000%   0.000%   0.000%   0.000%   0.000%   0.000%   0.000%
    7    1.2  1.5  1.5   0.000%   5.192%   0.000%   0.000%   0.000%   0.000%   0.000%   0.000%   0.000%   0.000%
    8    2.2  1.5  1.5   0.000%  26.323%   0.000%   0.000%   0.000%   0.000%   0.000%   0.000%   0.000%   0.000%
    9    3.2  1.5  1.5   9.139%   0.001%   0.000%   0.000%   0.000%   0.000%   0.000%   0.001%   0.000%   0.000%
   10    4.2  1.5  1.5   0.000%   4.696%   0.000%   0.241%  11.671%   0.005%   2.299%   0.001%  14.567%   5.499%
   11    5.2  1.5  1.5   0.689%   0.000%  27.198%   0.006%   0.003%   3.827%   0.004%  18.900%   0.386%   0.998%
   12    6.2  1.5  1.5   0.000%   0.024%   0.002%   3.512%   0.028%   0.000%  16.005%   0.004%  10.653%   4.030%
   13    7.2  1.5  1.5   2.710%   0.000%   3.888%   0.001%   0.002%   7.650%   0.004%  12.417%   2.793%   7.430%
   14    8.2  1.5  1.5   0.000%   0.000%  38.936%   0.008%   0.002%   3.820%   0.001%   2.496%   0.189%   0.504%
   15    1.2  1.5  0.5   0.001%   0.000%   0.000%   0.000%   0.000%   0.000%   0.000%   0.001%   0.000%   0.000%
   16    2.2  1.5  0.5  27.748%   0.000%   0.000%   0.000%   0.000%   0.000%   0.000%   0.000%   0.000%   0.000%
   17    3.2  1.5  0.5   0.000%  24.404%   0.000%   0.000%   0.000%   0.000%   0.000%   0.000%   0.000%   0.000%
   18    4.2  1.5  0.5   0.925%   0.000%   0.478%   0.000%   0.015%  38.247%   0.000%   0.012%   1.871%   5.051%
   19    5.2  1.5  0.5   0.000%   3.934%   0.001%   0.007%   0.018%   0.000%   1.544%   0.001%  19.617%   7.377%
   20    6.2  1.5  0.5   2.061%   0.001%  11.545%   0.002%   0.000%   0.294%   0.005%  19.709%   3.845%  10.224%
   21    7.2  1.5  0.5   0.000%   0.257%   0.002%   5.986%  34.254%   0.014%   2.319%   0.000%   2.437%   0.913%
   22    8.2  1.5  0.5   0.000%   0.458%   0.002%   8.181%   0.163%   0.000%  24.277%   0.006%   1.159%   0.439%
   23    1.2  1.5 -0.5   0.000%   0.039%   0.000%   0.000%   0.000%   0.000%   0.001%   0.000%   0.000%   0.000%
   24    2.2  1.5 -0.5   0.000%  22.485%   0.000%   0.000%   0.000%   0.000%   0.000%   0.000%   0.000%   0.000%
   25    3.2  1.5 -0.5  28.077%   0.000%   0.000%   0.000%   0.000%   0.000%   0.000%   0.000%   0.000%   0.000%
   26    4.2  1.5 -0.5   0.000%   0.832%   0.000%   0.477%  38.243%   0.015%   0.013%   0.000%   5.055%   1.873%
   27    5.2  1.5 -0.5   3.331%   0.000%   0.007%   0.001%   0.000%   0.018%   0.001%   1.542%   7.377%  19.619%
   28    6.2  1.5 -0.5   0.001%   1.750%   0.002%  11.545%   0.291%   0.000%  19.706%   0.005%  10.228%   3.846%
   29    7.2  1.5 -0.5   0.573%   0.000%   5.990%   0.002%   0.014%  34.240%   0.000%   2.326%   0.914%   2.439%
   30    8.2  1.5 -0.5   0.122%   0.000%   8.180%   0.002%   0.000%   0.165%   0.006%  24.274%   0.440%   1.160%
   31    1.2  1.5 -1.5   1.615%   0.000%   0.000%   0.000%   0.000%   0.000%   0.000%   0.000%   0.000%   0.000%
   32    2.2  1.5 -1.5  18.746%   0.000%   0.000%   0.000%   0.000%   0.000%   0.000%   0.000%   0.000%   0.000%
   33    3.2  1.5 -1.5   0.000%   6.881%   0.000%   0.000%   0.000%   0.000%   0.001%   0.000%   0.000%   0.000%
   34    4.2  1.5 -1.5   4.024%   0.000%   0.241%   0.000%   0.005%  11.670%   0.001%   2.294%   5.501%  14.572%
   35    5.2  1.5 -1.5   0.000%   0.599%   0.006%  27.201%   3.830%   0.003%  18.894%   0.004%   0.999%   0.386%
   36    6.2  1.5 -1.5   0.236%   0.000%   3.511%   0.002%   0.000%   0.028%   0.004%  16.000%   4.031%  10.656%
   37    7.2  1.5 -1.5   0.000%   2.117%   0.001%   3.887%   7.642%   0.002%  12.420%   0.004%   7.434%   2.795%
   38    8.2  1.5 -1.5   0.000%   0.004%   0.008%  38.940%   3.818%   0.002%   2.495%   0.001%   0.504%   0.190%

   Nr   State  S   Sz      21       22       23       24       25       26       27       28       29       30

    1    1.2  0.5  0.5   0.000%   0.000%   0.000%   0.000%   0.000%   0.000%   0.000%   0.000%   0.000%   0.000%
    2    2.2  0.5  0.5   0.000%   0.000%   0.000%   0.001%   0.000%   0.000%   0.000%   0.000%   0.000%   0.000%
    3    3.2  0.5  0.5   0.000%   0.000%   0.000%   0.000%   0.000%   0.000%   0.000%   0.000%   0.000%   0.000%
    4    1.2  0.5 -0.5   0.000%   0.000%   0.000%   0.000%   0.000%   0.000%   0.000%   0.000%   0.000%   0.000%
    5    2.2  0.5 -0.5   0.000%   0.000%   0.001%   0.000%   0.000%   0.000%   0.000%   0.000%   0.000%   0.000%
    6    3.2  0.5 -0.5   0.000%   0.000%   0.000%   0.000%   0.000%   0.000%   0.000%   0.000%   0.000%   0.000%
    7    1.2  1.5  1.5   0.001%  13.383%   4.132%   0.001%   0.000%  23.723%   0.000%   1.385%   1.103%   0.000%
    8    2.2  1.5  1.5   0.002%  13.380%   4.131%   0.005%   0.000%  23.722%   0.000%   2.182%   4.684%   0.000%
    9    3.2  1.5  1.5   2.635%   0.007%   0.001%  49.906%   0.000%   0.001%   4.437%   0.000%   0.000%   1.092%
   10    4.2  1.5  1.5   0.000%   1.886%   0.599%   0.000%   0.000%   0.255%   0.000%   7.874%  26.792%   0.001%
   11    5.2  1.5  1.5   2.453%   0.000%   0.000%   0.130%   1.022%   0.000%   0.213%   0.000%   0.000%   3.788%
   12    6.2  1.5  1.5   0.000%   1.960%   0.573%   0.000%   0.000%   0.255%   0.000%   1.915%   0.010%   0.001%
   13    7.2  1.5  1.5   1.106%   0.000%   0.000%   1.322%   0.248%   0.000%  22.884%   0.000%   0.000%  11.866%
   14    8.2  1.5  1.5   1.309%   0.000%   0.000%   1.094%   0.773%   0.000%  10.507%   0.000%   0.000%   0.081%
   15    1.2  1.5  0.5  31.884%   0.008%   0.001%   8.977%   7.908%   0.000%   4.316%   0.000%   0.000%   0.027%
   16    2.2  1.5  0.5  14.226%   0.002%   0.001%  26.641%   7.907%   0.002%   2.469%   0.000%   0.001%   3.889%
   17    3.2  1.5  0.5   0.002%   4.460%   1.378%   0.001%   0.000%  31.629%   0.000%   0.271%   3.725%   0.002%
   18    4.2  1.5  0.5   0.115%   0.000%   0.000%   2.406%   0.766%   0.000%   2.643%   0.000%   0.001%   5.440%
   19    5.2  1.5  0.5   0.000%   0.598%   1.891%   0.000%   0.000%   0.000%   0.000%   1.830%  25.231%   0.001%
   20    6.2  1.5  0.5   0.137%   0.000%   0.000%   2.431%   0.766%   0.000%   0.087%   0.000%   0.000%  10.791%
   21    7.2  1.5  0.5   0.000%   0.646%   1.786%   0.000%   0.000%   0.773%   0.000%   6.967%   1.250%   0.001%
   22    8.2  1.5  0.5   0.001%   1.736%   0.652%   0.000%   0.000%   0.248%   0.000%  31.574%   2.545%   0.000%
   23    1.2  1.5 -0.5   0.009%  39.141%   1.720%   0.001%   0.000%   7.908%   0.000%   4.211%   0.001%   0.000%
   24    2.2  1.5 -0.5   0.000%   4.804%  36.065%   0.001%   0.002%   7.907%   0.000%   2.346%   3.839%   0.001%
   25    3.2  1.5 -0.5   5.545%   0.002%   0.001%   0.293%  31.629%   0.000%   0.256%   0.000%   0.001%   4.557%
   26    4.2  1.5 -0.5   0.000%   0.572%   1.949%   0.000%   0.000%   0.766%   0.000%   2.648%   4.063%   0.002%
   27    5.2  1.5 -0.5   0.130%   0.000%   0.000%   2.359%   0.000%   0.000%   2.409%   0.000%   0.000%  21.083%
   28    6.2  1.5 -0.5   0.000%   0.622%   1.946%   0.000%   0.000%   0.766%   0.000%   0.067%   9.381%   0.000%
   29    7.2  1.5 -0.5   1.307%   0.000%   0.000%   1.125%   0.773%   0.000%   6.867%   0.000%   0.001%   1.708%
   30    8.2  1.5 -0.5   1.085%   0.000%   0.000%   1.303%   0.248%   0.000%  30.903%   0.000%   0.000%   2.692%
   31    1.2  1.5 -1.5  16.633%   0.003%   0.001%   0.879%  23.723%   0.000%   1.231%   0.000%   0.000%   0.736%
   32    2.2  1.5 -1.5  16.628%   0.006%   0.006%   0.879%  23.722%   0.000%   1.964%   0.000%   0.000%   4.370%
   33    3.2  1.5 -1.5   0.015%  12.386%  40.147%   0.000%   0.001%   0.000%   0.000%   4.280%   1.319%   0.000%
   34    4.2  1.5 -1.5   2.353%   0.000%   0.000%   0.131%   0.255%   0.000%   7.149%   0.000%   0.001%  27.521%
   35    5.2  1.5 -1.5   0.000%   1.973%   0.610%   0.000%   0.000%   1.022%   0.000%   0.225%   3.096%   0.000%
   36    6.2  1.5 -1.5   2.418%   0.000%   0.000%   0.115%   0.255%   0.000%   1.665%   0.000%   0.001%   0.350%
   37    7.2  1.5 -1.5   0.001%   1.768%   0.661%   0.000%   0.000%   0.248%   0.000%  21.973%  12.953%   0.000%
   38    8.2  1.5 -1.5   0.000%   0.654%   1.748%   0.000%   0.000%   0.773%   0.000%  10.251%   0.000%   0.000%

   Nr   State  S   Sz      31       32       33       34       35       36       37       38

    1    1.2  0.5  0.5   0.000%   0.000%   0.001%   0.000%   0.003%   0.000%   0.001%   0.003%
    2    2.2  0.5  0.5   0.000%   0.000%   0.000%   0.002%   0.002%   0.000%   0.000%   0.004%
    3    3.2  0.5  0.5   0.000%   0.000%   0.003%   0.000%   0.002%   0.000%   0.002%   0.001%
    4    1.2  0.5 -0.5   0.000%   0.000%   0.000%   0.001%   0.000%   0.003%   0.003%   0.001%
    5    2.2  0.5 -0.5   0.000%   0.000%   0.002%   0.000%   0.000%   0.003%   0.004%   0.000%
    6    3.2  0.5 -0.5   0.000%   0.000%   0.000%   0.003%   0.000%   0.001%   0.001%   0.002%
    7    1.2  1.5  1.5   5.582%   0.000%   2.394%   0.000%   0.000%   0.088%   1.276%   0.000%
    8    2.2  1.5  1.5   1.204%   0.000%   2.394%   0.000%   0.000%   0.089%   1.276%   0.000%
    9    3.2  1.5  1.5   0.000%   0.340%   0.000%   0.563%   6.884%   0.000%   0.000%   0.000%
   10    4.2  1.5  1.5   0.071%   0.001%  16.894%   0.000%   0.000%   0.625%   4.743%   0.000%
   11    5.2  1.5  1.5   0.001%   3.315%   0.001%  16.191%   1.323%   0.000%   0.000%  18.979%
   12    6.2  1.5  1.5  32.813%   0.000%  16.895%   0.001%   0.000%   0.624%   4.743%   0.001%
   13    7.2  1.5  1.5   0.001%   0.240%   0.000%   0.966%  16.548%   0.000%   0.000%   4.614%
   14    8.2  1.5  1.5   0.000%   5.616%   0.000%  16.546%   0.967%   0.000%   0.000%  14.362%
   15    1.2  1.5  0.5   0.000%   2.261%   0.000%   1.731%   4.060%   0.000%   0.000%   0.426%
   16    2.2  1.5  0.5   0.001%   0.244%   0.000%   4.762%   1.029%   0.000%   0.000%   0.425%
   17    3.2  1.5  0.5   4.805%   0.000%   0.798%   0.000%   0.000%   0.029%   1.702%   0.000%
   18    4.2  1.5  0.5   0.001%   8.371%   0.000%   1.324%  16.191%   0.000%   0.000%  14.234%
   19    5.2  1.5  0.5  16.817%   0.000%   0.624%   0.000%   0.001%  16.894%   0.000%   0.001%
   20    6.2  1.5  0.5   0.004%   5.576%   0.000%   1.324%  16.194%   0.001%   0.000%  14.231%
   21    7.2  1.5  0.5   7.986%   0.000%  15.723%   0.000%   0.000%   1.793%  14.362%   0.000%
   22    8.2  1.5  0.5   0.871%   0.000%   1.793%   0.000%   0.000%  15.721%   4.612%   0.000%
   23    1.2  1.5 -0.5   2.392%   0.000%   2.217%   0.000%   0.000%   3.574%   0.426%   0.000%
   24    2.2  1.5 -0.5   0.417%   0.001%   4.342%   0.000%   0.000%   1.449%   0.425%   0.000%
   25    3.2  1.5 -0.5   0.001%   3.988%   0.000%   0.765%   0.063%   0.000%   0.000%   1.702%
   26    4.2  1.5 -0.5   9.744%   0.000%   0.624%   0.000%   0.000%  16.891%  14.234%   0.000%
   27    5.2  1.5 -0.5   0.000%  20.387%   0.000%   1.324%  16.194%   0.001%   0.001%   0.000%
   28    6.2  1.5 -0.5   7.007%   0.003%   0.624%   0.000%   0.001%  16.894%  14.231%   0.000%
   29    7.2  1.5 -0.5   0.000%   7.629%   0.000%  16.550%   0.966%   0.000%   0.000%  14.362%
   30    8.2  1.5 -0.5   0.000%   1.396%   0.000%   0.966%  16.548%   0.000%   0.000%   4.612%
   31    1.2  1.5 -1.5   0.000%   6.103%   0.000%   2.295%   0.188%   0.000%   0.000%   1.276%
   32    2.2  1.5 -1.5   0.000%   1.736%   0.000%   2.294%   0.188%   0.000%   0.000%   1.276%
   33    3.2  1.5 -1.5   0.271%   0.000%   0.265%   0.000%   0.000%   7.181%   0.000%   0.000%
   34    4.2  1.5 -1.5   0.002%   0.068%   0.000%  16.194%   1.325%   0.000%   0.000%   4.743%
   35    5.2  1.5 -1.5   3.995%   0.001%  16.891%   0.001%   0.000%   0.624%  18.979%   0.000%
   36    6.2  1.5 -1.5   0.000%  32.723%   0.001%  16.195%   1.324%   0.000%   0.001%   4.743%
   37    7.2  1.5 -1.5   0.063%   0.000%   1.793%   0.000%   0.000%  15.721%   4.614%   0.000%
   38    8.2  1.5 -1.5   5.952%   0.000%  15.719%   0.000%   0.000%   1.794%  14.362%   0.000%


 Property matrices transformed in SO basis (not sym. adapted)
 ============================================================

 No matrix element <i|DMX|i> larger than 5E-7
 No matrix element <i|DMX|1> larger than 5E-7

 No matrix element <i|DMY|i> larger than 5E-7
 No matrix element <i|DMY|1> larger than 5E-7

 No matrix element <i|DMZ|i> larger than 5E-7
 No matrix element <i|DMZ|1> larger than 5E-7


 **********************************************************************************************************************************
 DATASETS  * FILE   NREC   LENGTH (MB)   RECORD NAMES
              1      21       93.78       500      700      610      900      950      970     1000      129      960     1100   
                                          VAR     GEOM    BASINP   SYMINP    ZMAT    AOBASIS   BASIS     P2S    ABASIS      S 
                                         1400     1410     1420     1200     1210     1080     1700     1600     1650     1380   
                                           T        V       ECP      H0       H01     AOSYM    OPER      SMH    MOLCAS    JKOP   
                                         1700(1)
                                         OPER   

              2       9     7330.86       500      700      610     1000      520     2100     2140     5203     5303   
                                          VAR     GEOM    BASINP    BASIS   MCVARS     RHF     MCSCF    MRCI     MRCI   

 PROGRAMS   *        TOTAL        CI        CI        CI     MULTI   RHF-SCF       INT      FILE
 CPU TIMES  *    413939.22 292397.54  99482.59  22026.59     12.85      4.11     13.74      1.65
 REAL TIME  *    419745.79 SEC
 DISK USED  *         7.25 GB (local),       22.82 GB (total)
 SF USED    *        57.29 GB
 GA USED    *         0.00 MB       (max)       0.00 MB       (current)
 **********************************************************************************************************************************

 CI/aug-cc-pWCV5Z-PP energy=   -416.269109307483

              CI              CI           MULTI         RHF-SCF
   -416.21560521   -416.55132251   -415.17284771   -415.57917920
 **********************************************************************************************************************************
 Molpro calculation terminated with 1 warning(s)
