
 Working directory              : /wrk/irikura/molpro.4TZp7SD7Qy/
 Global scratch directory       : /wrk/irikura/molpro.4TZp7SD7Qy/
 Wavefunction directory         : /home/irikura/wfu/
 Main file repository           : /wrk/irikura/molpro.4TZp7SD7Qy/

 id        : nistki

 Nodes            nprocs
 pn125343.nist.gov   20
 GA implementation: MPI file
 GA implementation (serial work in mppx): MPI file

 Using customized tuning parameters: mindgm=1; mindgv=20; mindgc=4; mindgr=1; noblas=0; minvec=7
 default implementation of scratch files=sf  


 Variables initialized (1025), CPU time= 0.01 sec
 ***,Rh atom, (17/10) active space
                                                                                 ! 4F,4P,4F + 2F,2D,2P,2G (b 2D missed)
 memory,1500,M;
 
 gprint,orbitals,civector
 
 symmetry,xyz
 geometry={Rh}
 
 basis=cc-pwCVTZ-PP
 
 {multi
     closed,0,0
     wf,nelec=17,sym=1,spin=3; state,17;
     wf,nelec=17,sym=1,spin=1; state,24;
     expec2,lxx,lyy,lzz;
  }
 table, energy, ll
 title, Energies and LL values
 
 {ci;wf,sym=1,spin=3;state,17;save,5103.2}
 hlsdiag = energd4
 {ci;wf,sym=1,spin=1;state,24;save,5101.2}
 hlsdiag(18) = energd4
 
 table, hlsdiag
 
                                                                                 !compute and diagonalize SO matrix
 {ci;hlsmat,ecp,5103.2,5101.2;print,vls=0,hls=0}
 
 Commands initialized (840), CPU time= 0.03 sec, 684 directives.
 Default parameters read. Elapsed time= 0.18 sec

 Checking input...
 Passed
1


                                         ***  PROGRAM SYSTEM MOLPRO  ***
                                       Copyright, TTI GmbH Stuttgart, 2015
                                    Version 2022.3 linked Wed Nov 30 06:40:34 2022


 **********************************************************************************************************************************
 LABEL *   Rh ato0) activ                                                                
  64 bit mpp version                                                                     DATE: 14-Feb-24          TIME: 14:00:49  
 **********************************************************************************************************************************

 SHA1:             e31ec9a5ea85254ab76f59d122cbdd51c71cf98b
 **********************************************************************************************************************************

 Memory per process:      1500 MW
 Total memory per node:  30000 MW

 GA preallocation disabled
 GA check disabled

 Variable memory set to 1500.0 MW


 ZSYMEL=XYZ

 SETTING BASIS          =    CC-PWCVTZ-PP


 Recomputing integrals since basis changed


 Using spherical harmonics

 Library entry Rh   ECP ECP28MDF                 selected for group  1
 Library entry RH     S cc-pwCVTZ-PP         selected for orbital group  1
 Library entry RH     P cc-pwCVTZ-PP         selected for orbital group  1
 Library entry RH     D cc-pwCVTZ-PP         selected for orbital group  1
 Library entry RH     F cc-pwCVTZ-PP         selected for orbital group  1
 Library entry RH     G cc-pwCVTZ-PP         selected for orbital group  1


 PROGRAM * SEWARD (Integral evaluation for generally contracted gaussian basis sets)     Author: Roland Lindh, 1990

 Geometry written to block  1 of record 700

 Orientation using atomic masses  
 Molecule type: Atom
 User-specified symmetry elements: XYZ
 Symmetry elements: XYZ
 Rotational constants:       0.0000000      0.0000000      0.0000000 GHz  (calculated with average atomic masses)

 Point group  Ci  



 ATOMIC COORDINATES

 NR  ATOM    CHARGE       X              Y              Z

   1  RH     17.00    0.000000000    0.000000000    0.000000000

 NUCLEAR CHARGE:                   17
 NUMBER OF PRIMITIVE AOS:         165
 NUMBER OF SYMMETRY AOS:          134
 NUMBER OF CONTRACTIONS:           97   (   55Ag  +   42Au  )
 NUMBER OF INNER CORE ORBITALS:     0   (    0Ag  +    0Au  )
 NUMBER OF OUTER CORE ORBITALS:     4   (    1Ag  +    3Au  )
 NUMBER OF VALENCE ORBITALS:        6   (    6Ag  +    0Au  )


 LX: Ag           LY: Ag           LZ: Ag 


 NUCLEAR REPULSION ENERGY    0.00000000

 EXTRA SYMMETRY OF AOS IN SYMMETRY 1:   1 1 1 1 1 1 1 2 3 4   5 6 2 3 4 5 6 2 3 4   5 6 2 3 4 5 6 2 3 4   5 6 2 3 4 5 6 7 8 9
                                       101112131415 7 8 910  1112131415
 EXTRA SYMMETRY OF AOS IN SYMMETRY 2:   1 2 3 1 2 3 1 2 3 1   2 3 1 2 3 1 2 3 1 2   3 4 5 6 7 8 910 4 5   6 7 8 910 4 5 6 7 8
                                        910


 Eigenvalues of metric

         1 0.743E-03 0.223E-02 0.223E-02 0.223E-02 0.223E-02 0.223E-02 0.534E-02 0.439E-01
         2 0.905E-03 0.905E-03 0.905E-03 0.520E-02 0.520E-02 0.520E-02 0.207E+00 0.207E+00


 Contracted 2-electron integrals neglected if value below      1.0D-11
 AO integral compression algorithm  1   Integral accuracy      1.0D-11

     14.418 MB (compressed) written to integral file ( 17.9%)

     Node minimum: 0.262 MB, node maximum: 1.049 MB


 NUMBER OF SORTED TWO-ELECTRON INTEGRALS:     288660.     BUFFER LENGTH:  32768
 NUMBER OF SEGMENTS:   1  SEGMENT LENGTH:     288660      RECORD LENGTH: 524288

 Memory used in sort:       0.85 MW

 SORT1 READ    10862098. AND WROTE       57462. INTEGRALS IN      1 RECORDS. CPU TIME:     0.07 SEC, REAL TIME:     0.09 SEC
 SORT2 READ     1120219. AND WROTE     5766586. INTEGRALS IN     20 RECORDS. CPU TIME:     0.01 SEC, REAL TIME:     0.01 SEC

 Node minimum:      286708.  Node maximum:      292109. integrals

 OPERATOR DM      FOR CENTER  0  COORDINATES:    0.000000    0.000000    0.000000


 **********************************************************************************************************************************
 DATASETS  * FILE   NREC   LENGTH (MB)   RECORD NAMES
              1      19       28.83       500      610      700      900      950      970     1000      129      960     1100   
                                          VAR    BASINP    GEOM    SYMINP    ZMAT    AOBASIS   BASIS     P2S    ABASIS      S 
                                         1400     1410     1420     1200     1210     1080     1700     1600     1650   
                                           T        V       ECP      H0       H01     AOSYM    OPER      SMH    MOLCAS    

 PROGRAMS   *        TOTAL       INT
 CPU TIMES  *         1.59      1.25
 REAL TIME  *         2.28 SEC
 DISK USED  *        29.10 MB (local),      670.10 MB (total)
 GA USED    *         0.00 MB       (max)       0.00 MB       (current)
 **********************************************************************************************************************************

 PROGRAM * MULTI (Direct Multiconfiguration SCF)       Authors: P.J. Knowles, H.-J. Werner (1984)
                                                                D.A. Kreplin, P.J. Knowles, H.-J. Werner (2019)

 Number of active  orbitals:       10 (    7    3)
 Number of external orbitals:      87 (   48   39)

 State symmetry 1

 Number of active electrons:  17    Spin symmetry=Quartet   Space symmetry=1
 Number of states:            17
 Number of CSFs:              56   (56 determinants, 120 intermediate states)

 State symmetry 2

 Number of active electrons:  17    Spin symmetry=Doublet   Space symmetry=1
 Number of states:            24
 Number of CSFs:             175   (231 determinants, 450 intermediate states)

 Orbital guess generated from atomic densities. Full valence occupancy:    7   3
 *** IN SYMMETRY 1 ORBITAL  3 SYMMETRY CONTAMINATION OF 0.314D+00 HAS BEEN REMOVED
 *** IN SYMMETRY 1 ORBITAL  4 SYMMETRY CONTAMINATION OF 0.322D+00 HAS BEEN REMOVED
 *** IN SYMMETRY 1 ORBITAL  5 SYMMETRY CONTAMINATION OF 0.478D+00 HAS BEEN REMOVED
 *** IN SYMMETRY 1 ORBITAL  6 SYMMETRY CONTAMINATION OF 0.480D+00 HAS BEEN REMOVED

 EXTRA SYMMETRY OF MOS IN SYMMETRY 1:   1 2 6 4 5 3 1 1 2 4   6 5 3 1 6 4 2 5 3 2   6 4 3 5 1 711 91415  1310 812 2 6 4 5 3 1
                                        71514131011 9 812 2   6 4 5 3 1
 *** IN SYMMETRY 2 ORBITAL  1 SYMMETRY CONTAMINATION OF 0.533D-04 HAS BEEN REMOVED
 *** IN SYMMETRY 2 ORBITAL  2 SYMMETRY CONTAMINATION OF 0.167D-03 HAS BEEN REMOVED
 *** IN SYMMETRY 2 ORBITAL  3 SYMMETRY CONTAMINATION OF 0.220D-03 HAS BEEN REMOVED
 EXTRA SYMMETRY OF MOS IN SYMMETRY 2:   1 2 3 2 1 3 1 2 3 3   2 1 9 7 5 4 6 810 3   2 1 6 4 5 7 9 810 2   1 3 810 6 7 9 4 5 2
                                        1 3

 Wavefunction dump at record             2140.2

 Convergence thresholds  0.10E-04 (gradient)  0.10E-05 (energy)

 Weight factors for state symmetry  1:    0.02439   0.02439   0.02439   0.02439   0.02439   0.02439   0.02439   0.02439
                                          0.02439   0.02439   0.02439   0.02439   0.02439   0.02439   0.02439   0.02439
                                          0.02439
 Weight factors for state symmetry  2:    0.02439   0.02439   0.02439   0.02439   0.02439   0.02439   0.02439   0.02439
                                          0.02439   0.02439   0.02439   0.02439   0.02439   0.02439   0.02439   0.02439
                                          0.02439   0.02439   0.02439   0.02439   0.02439   0.02439   0.02439   0.02439
 
 Number of orbital rotations:  453  ( 0 closed/active, 0 closed/virtual, 0 active/active, 453 active/virtual )
 Total number of variables:    6949
 
 Second-order MCSCF: L-BFGS accelerated
 
 ITER  MIC  NCI  NEG     ENERGY(VAR)    ENERGY(PROJ) ENERGY CHANGE       GRAD(0)  GRAD(ORB)   GRAD(CI)      STEP      TIME
   1    4    8    0   -109.30559477    -109.32720615   -0.02161138    0.21403312 0.00045291 0.00000000  0.16E+00      0.39
   2    3    6    0   -109.32648840    -109.32653730   -0.00004890    0.01078345 0.00006861 0.00000000  0.79E-02      0.70
   3   20   40    0   -109.32653739    -109.32653739   -0.00000000    0.00002690 0.00000015 0.00000000  0.23E-04      2.35
   4   20   40    0   -109.32653739    -109.32653739    0.00000000    0.00000018 0.00000436 0.00000000  0.17E-05      4.01

 CONVERGENCE REACHED!  Final gradient:    0.00000197 ( 0.20E-05)
                       Final energy:   -109.32653739
 
 Results for state 1.1 Quartet
 =============================
 !MCSCF STATE 1.1 Quartet Energy              -109.379735284925
 Nuclear energy                                  0.00000000
 Kinetic energy                                 41.27892441
 One electron energy                          -193.97238146
 Two electron energy                            84.59264617
 Virial ratio                                    3.64977193
 
 !MCSCF STATE 1.1 Quartet Dipole moment          0.00000000     0.00000000     0.00000000
 Dipole moment /Debye                            0.00000000     0.00000000     0.00000000
 
 Results for state 2.1 Quartet
 =============================
 !MCSCF STATE 2.1 Quartet Energy              -109.379735232277
 Nuclear energy                                  0.00000000
 Kinetic energy                                 41.27892732
 One electron energy                          -193.97238525
 Two electron energy                            84.59265002
 Virial ratio                                    3.64977174
 
 !MCSCF STATE 2.1 Quartet Dipole moment          0.00000000     0.00000000     0.00000000
 Dipole moment /Debye                            0.00000000     0.00000000     0.00000000
 
 Results for state 3.1 Quartet
 =============================
 !MCSCF STATE 3.1 Quartet Energy              -109.379735194409
 Nuclear energy                                  0.00000000
 Kinetic energy                                 41.27892938
 One electron energy                          -193.97238797
 Two electron energy                            84.59265278
 Virial ratio                                    3.64977161
 
 !MCSCF STATE 3.1 Quartet Dipole moment          0.00000000     0.00000000     0.00000000
 Dipole moment /Debye                            0.00000000     0.00000000     0.00000000
 
 Results for state 4.1 Quartet
 =============================
 !MCSCF STATE 4.1 Quartet Energy              -109.379735186897
 Nuclear energy                                  0.00000000
 Kinetic energy                                 41.27892946
 One electron energy                          -193.97238835
 Two electron energy                            84.59265316
 Virial ratio                                    3.64977161
 
 !MCSCF STATE 4.1 Quartet Dipole moment          0.00000000     0.00000000     0.00000000
 Dipole moment /Debye                            0.00000000     0.00000000     0.00000000
 
 Results for state 5.1 Quartet
 =============================
 !MCSCF STATE 5.1 Quartet Energy              -109.379735152895
 Nuclear energy                                  0.00000000
 Kinetic energy                                 41.27893176
 One electron energy                          -193.97239115
 Two electron energy                            84.59265600
 Virial ratio                                    3.64977146
 
 !MCSCF STATE 5.1 Quartet Dipole moment          0.00000000     0.00000000     0.00000000
 Dipole moment /Debye                            0.00000000     0.00000000     0.00000000
 
 Results for state 6.1 Quartet
 =============================
 !MCSCF STATE 6.1 Quartet Energy              -109.379735144286
 Nuclear energy                                  0.00000000
 Kinetic energy                                 41.27893180
 One electron energy                          -193.97239137
 Two electron energy                            84.59265622
 Virial ratio                                    3.64977145
 
 !MCSCF STATE 6.1 Quartet Dipole moment          0.00000000     0.00000000     0.00000000
 Dipole moment /Debye                            0.00000000     0.00000000     0.00000000
 
 Results for state 7.1 Quartet
 =============================
 !MCSCF STATE 7.1 Quartet Energy              -109.379735123100
 Nuclear energy                                  0.00000000
 Kinetic energy                                 41.27893290
 One electron energy                          -193.97239277
 Two electron energy                            84.59265765
 Virial ratio                                    3.64977138
 
 !MCSCF STATE 7.1 Quartet Dipole moment          0.00000000     0.00000000     0.00000000
 Dipole moment /Debye                            0.00000000     0.00000000     0.00000000
 
 Results for state 8.1 Quartet
 =============================
 !MCSCF STATE 8.1 Quartet Energy              -109.325703391762
 Nuclear energy                                  0.00000000
 Kinetic energy                                 41.27974217
 One electron energy                          -193.96266388
 Two electron energy                            84.63696049
 Virial ratio                                    3.64841052
 
 !MCSCF STATE 8.1 Quartet Dipole moment          0.00000000     0.00000000     0.00000000
 Dipole moment /Debye                            0.00000000     0.00000000     0.00000000
 
 Results for state 9.1 Quartet
 =============================
 !MCSCF STATE 9.1 Quartet Energy              -109.325703378732
 Nuclear energy                                  0.00000000
 Kinetic energy                                 41.27974290
 One electron energy                          -193.96266469
 Two electron energy                            84.63696132
 Virial ratio                                    3.64841047
 
 !MCSCF STATE 9.1 Quartet Dipole moment          0.00000000     0.00000000     0.00000000
 Dipole moment /Debye                            0.00000000     0.00000000     0.00000000
 
 Results for state 10.1 Quartet
 ==============================
 !MCSCF STATE 10.1 Quartet Energy             -109.325703362678
 Nuclear energy                                  0.00000000
 Kinetic energy                                 41.27974296
 One electron energy                          -193.96266494
 Two electron energy                            84.63696157
 Virial ratio                                    3.64841047
 
 !MCSCF STATE 10.1 Quartet Dipole moment         0.00000000     0.00000000     0.00000000
 Dipole moment /Debye                            0.00000000     0.00000000     0.00000000
 
 Results for state 11.1 Quartet
 ==============================
 !MCSCF STATE 11.1 Quartet Energy             -109.298878104130
 Nuclear energy                                  0.00000000
 Kinetic energy                                 38.83964265
 One electron energy                          -189.47917361
 Two electron energy                            80.18029551
 Virial ratio                                    3.81410617
 
 !MCSCF STATE 11.1 Quartet Dipole moment         0.00000000     0.00000000     0.00000000
 Dipole moment /Debye                            0.00000000     0.00000000     0.00000000
 
 Results for state 12.1 Quartet
 ==============================
 !MCSCF STATE 12.1 Quartet Energy             -109.298878011105
 Nuclear energy                                  0.00000000
 Kinetic energy                                 38.83963974
 One electron energy                          -189.47916982
 Two electron energy                            80.18029181
 Virial ratio                                    3.81410638
 
 !MCSCF STATE 12.1 Quartet Dipole moment         0.00000000     0.00000000     0.00000000
 Dipole moment /Debye                            0.00000000     0.00000000     0.00000000
 
 Results for state 13.1 Quartet
 ==============================
 !MCSCF STATE 13.1 Quartet Energy             -109.298877945170
 Nuclear energy                                  0.00000000
 Kinetic energy                                 38.83963768
 One electron energy                          -189.47916710
 Two electron energy                            80.18028916
 Virial ratio                                    3.81410653
 
 !MCSCF STATE 13.1 Quartet Dipole moment         0.00000000     0.00000000     0.00000000
 Dipole moment /Debye                            0.00000000     0.00000000     0.00000000
 
 Results for state 14.1 Quartet
 ==============================
 !MCSCF STATE 14.1 Quartet Energy             -109.298877938816
 Nuclear energy                                  0.00000000
 Kinetic energy                                 38.83963759
 One electron energy                          -189.47916670
 Two electron energy                            80.18028877
 Virial ratio                                    3.81410653
 
 !MCSCF STATE 14.1 Quartet Dipole moment         0.00000000     0.00000000     0.00000000
 Dipole moment /Debye                            0.00000000     0.00000000     0.00000000
 
 Results for state 15.1 Quartet
 ==============================
 !MCSCF STATE 15.1 Quartet Energy             -109.298877865194
 Nuclear energy                                  0.00000000
 Kinetic energy                                 38.83963528
 One electron energy                          -189.47916390
 Two electron energy                            80.18028603
 Virial ratio                                    3.81410670
 
 !MCSCF STATE 15.1 Quartet Dipole moment         0.00000000     0.00000000     0.00000000
 Dipole moment /Debye                            0.00000000     0.00000000     0.00000000
 
 Results for state 16.1 Quartet
 ==============================
 !MCSCF STATE 16.1 Quartet Energy             -109.298877864318
 Nuclear energy                                  0.00000000
 Kinetic energy                                 38.83963523
 One electron energy                          -189.47916366
 Two electron energy                            80.18028579
 Virial ratio                                    3.81410670
 
 !MCSCF STATE 16.1 Quartet Dipole moment         0.00000000     0.00000000     0.00000000
 Dipole moment /Debye                            0.00000000     0.00000000     0.00000000
 
 Results for state 17.1 Quartet
 ==============================
 !MCSCF STATE 17.1 Quartet Energy             -109.298877830280
 Nuclear energy                                  0.00000000
 Kinetic energy                                 38.83963414
 One electron energy                          -189.47916226
 Two electron energy                            80.18028443
 Virial ratio                                    3.81410678
 
 !MCSCF STATE 17.1 Quartet Dipole moment         0.00000000     0.00000000     0.00000000
 Dipole moment /Debye                            0.00000000     0.00000000     0.00000000
 
 Results for state 1.1 Doublet
 =============================
 !MCSCF STATE 1.1 Doublet Energy              -109.349802184078
 Nuclear energy                                  0.00000000
 Kinetic energy                                 41.25943443
 One electron energy                          -193.93863290
 Two electron energy                            84.58883071
 Virial ratio                                    3.65029814
 
 !MCSCF STATE 1.1 Doublet Dipole moment          0.00000000     0.00000000     0.00000000
 Dipole moment /Debye                            0.00000000     0.00000000     0.00000000
 
 Results for state 2.1 Doublet
 =============================
 !MCSCF STATE 2.1 Doublet Energy              -109.349802098708
 Nuclear energy                                  0.00000000
 Kinetic energy                                 41.25943731
 One electron energy                          -193.93863666
 Two electron energy                            84.58883456
 Virial ratio                                    3.65029795
 
 !MCSCF STATE 2.1 Doublet Dipole moment          0.00000000     0.00000000     0.00000000
 Dipole moment /Debye                            0.00000000     0.00000000     0.00000000
 
 Results for state 3.1 Doublet
 =============================
 !MCSCF STATE 3.1 Doublet Energy              -109.349802037385
 Nuclear energy                                  0.00000000
 Kinetic energy                                 41.25943934
 One electron energy                          -193.93863935
 Two electron energy                            84.58883731
 Virial ratio                                    3.65029782
 
 !MCSCF STATE 3.1 Doublet Dipole moment          0.00000000     0.00000000     0.00000000
 Dipole moment /Debye                            0.00000000     0.00000000     0.00000000
 
 Results for state 4.1 Doublet
 =============================
 !MCSCF STATE 4.1 Doublet Energy              -109.349802025345
 Nuclear energy                                  0.00000000
 Kinetic energy                                 41.25943943
 One electron energy                          -193.93863974
 Two electron energy                            84.58883771
 Virial ratio                                    3.65029781
 
 !MCSCF STATE 4.1 Doublet Dipole moment          0.00000000     0.00000000     0.00000000
 Dipole moment /Debye                            0.00000000     0.00000000     0.00000000
 
 Results for state 5.1 Doublet
 =============================
 !MCSCF STATE 5.1 Doublet Energy              -109.349801967669
 Nuclear energy                                  0.00000000
 Kinetic energy                                 41.25944172
 One electron energy                          -193.93864252
 Two electron energy                            84.58884055
 Virial ratio                                    3.65029766
 
 !MCSCF STATE 5.1 Doublet Dipole moment          0.00000000     0.00000000     0.00000000
 Dipole moment /Debye                            0.00000000     0.00000000     0.00000000
 
 Results for state 6.1 Doublet
 =============================
 !MCSCF STATE 6.1 Doublet Energy              -109.349801956887
 Nuclear energy                                  0.00000000
 Kinetic energy                                 41.25944176
 One electron energy                          -193.93864274
 Two electron energy                            84.58884079
 Virial ratio                                    3.65029766
 
 !MCSCF STATE 6.1 Doublet Dipole moment          0.00000000     0.00000000     0.00000000
 Dipole moment /Debye                            0.00000000     0.00000000     0.00000000
 
 Results for state 7.1 Doublet
 =============================
 !MCSCF STATE 7.1 Doublet Energy              -109.349801923923
 Nuclear energy                                  0.00000000
 Kinetic energy                                 41.25944284
 One electron energy                          -193.93864412
 Two electron energy                            84.58884220
 Virial ratio                                    3.65029759
 
 !MCSCF STATE 7.1 Doublet Dipole moment          0.00000000     0.00000000     0.00000000
 Dipole moment /Debye                            0.00000000     0.00000000     0.00000000
 
 Results for state 8.1 Doublet
 =============================
 !MCSCF STATE 8.1 Doublet Energy              -109.331351352749
 Nuclear energy                                  0.00000000
 Kinetic energy                                 41.30619250
 One electron energy                          -194.00348213
 Two electron energy                            84.67213078
 Virial ratio                                    3.64685135
 
 !MCSCF STATE 8.1 Doublet Dipole moment          0.00000000     0.00000000     0.00000000
 Dipole moment /Debye                            0.00000000     0.00000000     0.00000000
 
 Results for state 9.1 Doublet
 =============================
 !MCSCF STATE 9.1 Doublet Energy              -109.331351333369
 Nuclear energy                                  0.00000000
 Kinetic energy                                 41.30619341
 One electron energy                          -194.00348340
 Two electron energy                            84.67213207
 Virial ratio                                    3.64685129
 
 !MCSCF STATE 9.1 Doublet Dipole moment          0.00000000     0.00000000     0.00000000
 Dipole moment /Debye                            0.00000000     0.00000000     0.00000000
 
 Results for state 10.1 Doublet
 ==============================
 !MCSCF STATE 10.1 Doublet Energy             -109.331351310255
 Nuclear energy                                  0.00000000
 Kinetic energy                                 41.30619485
 One electron energy                          -194.00348512
 Two electron energy                            84.67213381
 Virial ratio                                    3.64685120
 
 !MCSCF STATE 10.1 Doublet Dipole moment         0.00000000     0.00000000     0.00000000
 Dipole moment /Debye                            0.00000000     0.00000000     0.00000000
 
 Results for state 11.1 Doublet
 ==============================
 !MCSCF STATE 11.1 Doublet Energy             -109.331351306377
 Nuclear energy                                  0.00000000
 Kinetic energy                                 41.30619512
 One electron energy                          -194.00348545
 Two electron energy                            84.67213415
 Virial ratio                                    3.64685118
 
 !MCSCF STATE 11.1 Doublet Dipole moment         0.00000000     0.00000000     0.00000000
 Dipole moment /Debye                            0.00000000     0.00000000     0.00000000
 
 Results for state 12.1 Doublet
 ==============================
 !MCSCF STATE 12.1 Doublet Energy             -109.331351303445
 Nuclear energy                                  0.00000000
 Kinetic energy                                 41.30619509
 One electron energy                          -194.00348537
 Two electron energy                            84.67213407
 Virial ratio                                    3.64685118
 
 !MCSCF STATE 12.1 Doublet Dipole moment         0.00000000     0.00000000     0.00000000
 Dipole moment /Debye                            0.00000000     0.00000000     0.00000000
 
 Results for state 13.1 Doublet
 ==============================
 !MCSCF STATE 13.1 Doublet Energy             -109.305587264048
 Nuclear energy                                  0.00000000
 Kinetic energy                                 40.97870543
 One electron energy                          -193.39693452
 Two electron energy                            84.09134726
 Virial ratio                                    3.66737531
 
 !MCSCF STATE 13.1 Doublet Dipole moment         0.00000000     0.00000000     0.00000000
 Dipole moment /Debye                            0.00000000     0.00000000     0.00000000
 
 Results for state 14.1 Doublet
 ==============================
 !MCSCF STATE 14.1 Doublet Energy             -109.305587244738
 Nuclear energy                                  0.00000000
 Kinetic energy                                 40.97870601
 One electron energy                          -193.39693511
 Two electron energy                            84.09134786
 Virial ratio                                    3.66737528
 
 !MCSCF STATE 14.1 Doublet Dipole moment         0.00000000     0.00000000     0.00000000
 Dipole moment /Debye                            0.00000000     0.00000000     0.00000000
 
 Results for state 15.1 Doublet
 ==============================
 !MCSCF STATE 15.1 Doublet Energy             -109.305587230812
 Nuclear energy                                  0.00000000
 Kinetic energy                                 40.97870590
 One electron energy                          -193.39693503
 Two electron energy                            84.09134780
 Virial ratio                                    3.66737528
 
 !MCSCF STATE 15.1 Doublet Dipole moment         0.00000000     0.00000000     0.00000000
 Dipole moment /Debye                            0.00000000     0.00000000     0.00000000
 
 Results for state 16.1 Doublet
 ==============================
 !MCSCF STATE 16.1 Doublet Energy             -109.293166514802
 Nuclear energy                                  0.00000000
 Kinetic energy                                 41.17640199
 One electron energy                          -193.78140621
 Two electron energy                            84.48823969
 Virial ratio                                    3.65426704
 
 !MCSCF STATE 16.1 Doublet Dipole moment         0.00000000     0.00000000     0.00000000
 Dipole moment /Debye                            0.00000000     0.00000000     0.00000000
 
 Results for state 17.1 Doublet
 ==============================
 !MCSCF STATE 17.1 Doublet Energy             -109.293166513993
 Nuclear energy                                  0.00000000
 Kinetic energy                                 41.17640210
 One electron energy                          -193.78140636
 Two electron energy                            84.48823984
 Virial ratio                                    3.65426703
 
 !MCSCF STATE 17.1 Doublet Dipole moment         0.00000000     0.00000000     0.00000000
 Dipole moment /Debye                            0.00000000     0.00000000     0.00000000
 
 Results for state 18.1 Doublet
 ==============================
 !MCSCF STATE 18.1 Doublet Energy             -109.293166493863
 Nuclear energy                                  0.00000000
 Kinetic energy                                 41.17640355
 One electron energy                          -193.78140810
 Two electron energy                            84.48824161
 Virial ratio                                    3.65426694
 
 !MCSCF STATE 18.1 Doublet Dipole moment         0.00000000     0.00000000     0.00000000
 Dipole moment /Debye                            0.00000000     0.00000000     0.00000000
 
 Results for state 19.1 Doublet
 ==============================
 !MCSCF STATE 19.1 Doublet Energy             -109.293166490361
 Nuclear energy                                  0.00000000
 Kinetic energy                                 41.17640352
 One electron energy                          -193.78140803
 Two electron energy                            84.48824154
 Virial ratio                                    3.65426694
 
 !MCSCF STATE 19.1 Doublet Dipole moment         0.00000000     0.00000000     0.00000000
 Dipole moment /Debye                            0.00000000     0.00000000     0.00000000
 
 Results for state 20.1 Doublet
 ==============================
 !MCSCF STATE 20.1 Doublet Energy             -109.293166478962
 Nuclear energy                                  0.00000000
 Kinetic energy                                 41.17640535
 One electron energy                          -193.78141071
 Two electron energy                            84.48824423
 Virial ratio                                    3.65426682
 
 !MCSCF STATE 20.1 Doublet Dipole moment         0.00000000     0.00000000     0.00000000
 Dipole moment /Debye                            0.00000000     0.00000000     0.00000000
 
 Results for state 21.1 Doublet
 ==============================
 !MCSCF STATE 21.1 Doublet Energy             -109.293166473137
 Nuclear energy                                  0.00000000
 Kinetic energy                                 41.17640335
 One electron energy                          -193.78140799
 Two electron energy                            84.48824151
 Virial ratio                                    3.65426695
 
 !MCSCF STATE 21.1 Doublet Dipole moment         0.00000000     0.00000000     0.00000000
 Dipole moment /Debye                            0.00000000     0.00000000     0.00000000
 
 Results for state 22.1 Doublet
 ==============================
 !MCSCF STATE 22.1 Doublet Energy             -109.293166472625
 Nuclear energy                                  0.00000000
 Kinetic energy                                 41.17640519
 One electron energy                          -193.78141045
 Two electron energy                            84.48824398
 Virial ratio                                    3.65426683
 
 !MCSCF STATE 22.1 Doublet Dipole moment         0.00000000     0.00000000     0.00000000
 Dipole moment /Debye                            0.00000000     0.00000000     0.00000000
 
 Results for state 23.1 Doublet
 ==============================
 !MCSCF STATE 23.1 Doublet Energy             -109.293166471902
 Nuclear energy                                  0.00000000
 Kinetic energy                                 41.17640367
 One electron energy                          -193.78140845
 Two electron energy                            84.48824198
 Virial ratio                                    3.65426693
 
 !MCSCF STATE 23.1 Doublet Dipole moment         0.00000000     0.00000000     0.00000000
 Dipole moment /Debye                            0.00000000     0.00000000     0.00000000
 
 Results for state 24.1 Doublet
 ==============================
 !MCSCF STATE 24.1 Doublet Energy             -109.293166469619
 Nuclear energy                                  0.00000000
 Kinetic energy                                 41.17640540
 One electron energy                          -193.78141070
 Two electron energy                            84.48824423
 Virial ratio                                    3.65426682
 
 !MCSCF STATE 24.1 Doublet Dipole moment         0.00000000     0.00000000     0.00000000
 Dipole moment /Debye                            0.00000000     0.00000000     0.00000000
 
 State-averaged charge density matrix saved on record 2140.2 (density set 1)
 
 No non-zero expectation values
 
 Expectation values for two-electron operators:
 
 !MCSCF expec      <1.1 Quartet|LXLX|1.1 Quartet>     4.000000000027
 !MCSCF expec      <2.1 Quartet|LXLX|2.1 Quartet>     3.813852634794
 !MCSCF expec      <3.1 Quartet|LXLX|3.1 Quartet>     3.743759444374
 !MCSCF expec      <4.1 Quartet|LXLX|4.1 Quartet>     3.996757453359
 !MCSCF expec      <5.1 Quartet|LXLX|5.1 Quartet>     0.003242284606
 !MCSCF expec      <6.1 Quartet|LXLX|6.1 Quartet>     6.256230327129
 !MCSCF expec      <7.1 Quartet|LXLX|7.1 Quartet>     6.186145283083
 !MCSCF expec      <8.1 Quartet|LXLX|8.1 Quartet>     1.000000000048
 !MCSCF expec      <9.1 Quartet|LXLX|9.1 Quartet>     1.000000000047
 !MCSCF expec    <10.1 Quartet|LXLX|10.1 Quartet>     0.000000000032
 !MCSCF expec    <11.1 Quartet|LXLX|11.1 Quartet>     4.000000000027
 !MCSCF expec    <12.1 Quartet|LXLX|12.1 Quartet>     4.083647131788
 !MCSCF expec    <13.1 Quartet|LXLX|13.1 Quartet>     4.526197483437
 !MCSCF expec    <14.1 Quartet|LXLX|14.1 Quartet>     3.991188238616
 !MCSCF expec    <15.1 Quartet|LXLX|15.1 Quartet>     0.008811828898
 !MCSCF expec    <16.1 Quartet|LXLX|16.1 Quartet>     5.473800953325
 !MCSCF expec    <17.1 Quartet|LXLX|17.1 Quartet>     5.916351640615
 !MCSCF expec      <1.1 Doublet|LXLX|1.1 Doublet>     4.000000000027
 !MCSCF expec      <2.1 Doublet|LXLX|2.1 Doublet>     3.897353885496
 !MCSCF expec      <3.1 Doublet|LXLX|3.1 Doublet>     4.013089334999
 !MCSCF expec      <4.1 Doublet|LXLX|4.1 Doublet>     3.992708863934
 !MCSCF expec      <5.1 Doublet|LXLX|5.1 Doublet>     0.007291479002
 !MCSCF expec      <6.1 Doublet|LXLX|6.1 Doublet>     5.986907711511
 !MCSCF expec      <7.1 Doublet|LXLX|7.1 Doublet>     6.102648536710
 !MCSCF expec      <8.1 Doublet|LXLX|8.1 Doublet>     3.576381070735
 !MCSCF expec      <9.1 Doublet|LXLX|9.1 Doublet>     0.423616669436
 !MCSCF expec    <10.1 Doublet|LXLX|10.1 Doublet>     1.000000002759
 !MCSCF expec    <11.1 Doublet|LXLX|11.1 Doublet>     3.999999987846
 !MCSCF expec    <12.1 Doublet|LXLX|12.1 Doublet>     1.000000007147
 !MCSCF expec    <13.1 Doublet|LXLX|13.1 Doublet>     1.000000000060
 !MCSCF expec    <14.1 Doublet|LXLX|14.1 Doublet>     0.999999999842
 !MCSCF expec    <15.1 Doublet|LXLX|15.1 Doublet>     0.000000000255
 !MCSCF expec    <16.1 Doublet|LXLX|16.1 Doublet>     1.327586140181
 !MCSCF expec    <17.1 Doublet|LXLX|17.1 Doublet>     1.638929901313
 !MCSCF expec    <18.1 Doublet|LXLX|18.1 Doublet>     1.195532772127
 !MCSCF expec    <19.1 Doublet|LXLX|19.1 Doublet>     3.350776617578
 !MCSCF expec    <20.1 Doublet|LXLX|20.1 Doublet>     4.301319267258
 !MCSCF expec    <21.1 Doublet|LXLX|21.1 Doublet>    15.698662101398
 !MCSCF expec    <22.1 Doublet|LXLX|22.1 Doublet>     8.804470845146
 !MCSCF expec    <23.1 Doublet|LXLX|23.1 Doublet>    15.321644093746
 !MCSCF expec    <24.1 Doublet|LXLX|24.1 Doublet>     8.361073458206
 
 !MCSCF expec      <1.1 Quartet|LYLY|1.1 Quartet>     4.000000000023
 !MCSCF expec      <2.1 Quartet|LYLY|2.1 Quartet>     4.188487928207
 !MCSCF expec      <3.1 Quartet|LYLY|3.1 Quartet>     3.995541249564
 !MCSCF expec      <4.1 Quartet|LYLY|4.1 Quartet>     4.222072565212
 !MCSCF expec      <5.1 Quartet|LYLY|5.1 Quartet>     5.777936468785
 !MCSCF expec      <6.1 Quartet|LYLY|6.1 Quartet>     0.004458391034
 !MCSCF expec      <7.1 Quartet|LYLY|7.1 Quartet>     5.811514206739
 !MCSCF expec      <8.1 Quartet|LYLY|8.1 Quartet>     1.000000000039
 !MCSCF expec      <9.1 Quartet|LYLY|9.1 Quartet>     0.000000000031
 !MCSCF expec    <10.1 Quartet|LYLY|10.1 Quartet>     1.000000000038
 !MCSCF expec    <11.1 Quartet|LYLY|11.1 Quartet>     4.000000000022
 !MCSCF expec    <12.1 Quartet|LYLY|12.1 Quartet>     3.916816794757
 !MCSCF expec    <13.1 Quartet|LYLY|13.1 Quartet>     3.982083975991
 !MCSCF expec    <14.1 Quartet|LYLY|14.1 Quartet>     4.367565961712
 !MCSCF expec    <15.1 Quartet|LYLY|15.1 Quartet>     5.632432625235
 !MCSCF expec    <16.1 Quartet|LYLY|16.1 Quartet>     0.017916129455
 !MCSCF expec    <17.1 Quartet|LYLY|17.1 Quartet>     6.083184419332
 !MCSCF expec      <1.1 Doublet|LYLY|1.1 Doublet>     4.000000000023
 !MCSCF expec      <2.1 Doublet|LYLY|2.1 Doublet>     4.103353503654
 !MCSCF expec      <3.1 Doublet|LYLY|3.1 Doublet>     3.999988587839
 !MCSCF expec      <4.1 Doublet|LYLY|4.1 Doublet>     4.334050914988
 !MCSCF expec      <5.1 Doublet|LYLY|5.1 Doublet>     5.665941219899
 !MCSCF expec      <6.1 Doublet|LYLY|6.1 Doublet>     0.000011417911
 !MCSCF expec      <7.1 Doublet|LYLY|7.1 Doublet>     5.896644040499
 !MCSCF expec      <8.1 Doublet|LYLY|8.1 Doublet>     2.277767737776
 !MCSCF expec      <9.1 Doublet|LYLY|9.1 Doublet>     1.722235898810
 !MCSCF expec    <10.1 Doublet|LYLY|10.1 Doublet>     1.000000002727
 !MCSCF expec    <11.1 Doublet|LYLY|11.1 Doublet>     1.000000009517
 !MCSCF expec    <12.1 Doublet|LYLY|12.1 Doublet>     3.999999989361
 !MCSCF expec    <13.1 Doublet|LYLY|13.1 Doublet>     1.000000000051
 !MCSCF expec    <14.1 Doublet|LYLY|14.1 Doublet>     0.000000000333
 !MCSCF expec    <15.1 Doublet|LYLY|15.1 Doublet>     0.999999999894
 !MCSCF expec    <16.1 Doublet|LYLY|16.1 Doublet>     3.305596298013
 !MCSCF expec    <17.1 Doublet|LYLY|17.1 Doublet>     2.428187784060
 !MCSCF expec    <18.1 Doublet|LYLY|18.1 Doublet>    15.505662159296
 !MCSCF expec    <19.1 Doublet|LYLY|19.1 Doublet>    14.477456781527
 !MCSCF expec    <20.1 Doublet|LYLY|20.1 Doublet>     7.021436970660
 !MCSCF expec    <21.1 Doublet|LYLY|21.1 Doublet>     2.978586542346
 !MCSCF expec    <22.1 Doublet|LYLY|22.1 Doublet>     4.494330353049
 !MCSCF expec    <23.1 Doublet|LYLY|23.1 Doublet>     2.216951459352
 !MCSCF expec    <24.1 Doublet|LYLY|24.1 Doublet>     7.571807470097
 
 !MCSCF expec      <1.1 Quartet|LZLZ|1.1 Quartet>     4.000000000007
 !MCSCF expec      <2.1 Quartet|LZLZ|2.1 Quartet>     3.997659437064
 !MCSCF expec      <3.1 Quartet|LZLZ|3.1 Quartet>     4.260699306129
 !MCSCF expec      <4.1 Quartet|LZLZ|4.1 Quartet>     3.781169981493
 !MCSCF expec      <5.1 Quartet|LZLZ|5.1 Quartet>     6.218821246686
 !MCSCF expec      <6.1 Quartet|LZLZ|6.1 Quartet>     5.739311281908
 !MCSCF expec      <7.1 Quartet|LZLZ|7.1 Quartet>     0.002340510237
 !MCSCF expec      <8.1 Quartet|LZLZ|8.1 Quartet>     0.000000000012
 !MCSCF expec      <9.1 Quartet|LZLZ|9.1 Quartet>     1.000000000011
 !MCSCF expec    <10.1 Quartet|LZLZ|10.1 Quartet>     1.000000000012
 !MCSCF expec    <11.1 Quartet|LZLZ|11.1 Quartet>     4.000000000007
 !MCSCF expec    <12.1 Quartet|LZLZ|12.1 Quartet>     3.999536073511
 !MCSCF expec    <13.1 Quartet|LZLZ|13.1 Quartet>     3.491718540627
 !MCSCF expec    <14.1 Quartet|LZLZ|14.1 Quartet>     3.641245799728
 !MCSCF expec    <15.1 Quartet|LZLZ|15.1 Quartet>     6.358755545919
 !MCSCF expec    <16.1 Quartet|LZLZ|16.1 Quartet>     6.508282917271
 !MCSCF expec    <17.1 Quartet|LZLZ|17.1 Quartet>     0.000463940089
 !MCSCF expec      <1.1 Doublet|LZLZ|1.1 Doublet>     4.000000000007
 !MCSCF expec      <2.1 Doublet|LZLZ|2.1 Doublet>     3.999292610913
 !MCSCF expec      <3.1 Doublet|LZLZ|3.1 Doublet>     3.986922077223
 !MCSCF expec      <4.1 Doublet|LZLZ|4.1 Doublet>     3.673240221135
 !MCSCF expec      <5.1 Doublet|LZLZ|5.1 Doublet>     6.326767301176
 !MCSCF expec      <6.1 Doublet|LZLZ|6.1 Doublet>     6.013080870647
 !MCSCF expec      <7.1 Doublet|LZLZ|7.1 Doublet>     0.000707422838
 !MCSCF expec      <8.1 Doublet|LZLZ|8.1 Doublet>     0.145851191579
 !MCSCF expec      <9.1 Doublet|LZLZ|9.1 Doublet>     3.854147431857
 !MCSCF expec    <10.1 Doublet|LZLZ|10.1 Doublet>     3.999999994608
 !MCSCF expec    <11.1 Doublet|LZLZ|11.1 Doublet>     1.000000002725
 !MCSCF expec    <12.1 Doublet|LZLZ|12.1 Doublet>     1.000000003579
 !MCSCF expec    <13.1 Doublet|LZLZ|13.1 Doublet>     0.000000000033
 !MCSCF expec    <14.1 Doublet|LZLZ|14.1 Doublet>     0.999999999984
 !MCSCF expec    <15.1 Doublet|LZLZ|15.1 Doublet>     1.000000000015
 !MCSCF expec    <16.1 Doublet|LZLZ|16.1 Doublet>    15.366817561880
 !MCSCF expec    <17.1 Doublet|LZLZ|17.1 Doublet>    15.932882314691
 !MCSCF expec    <18.1 Doublet|LZLZ|18.1 Doublet>     3.298805068571
 !MCSCF expec    <19.1 Doublet|LZLZ|19.1 Doublet>     2.171766600918
 !MCSCF expec    <20.1 Doublet|LZLZ|20.1 Doublet>     8.677243762147
 !MCSCF expec    <21.1 Doublet|LZLZ|21.1 Doublet>     1.322751356210
 !MCSCF expec    <22.1 Doublet|LZLZ|22.1 Doublet>     6.701198801849
 !MCSCF expec    <23.1 Doublet|LZLZ|23.1 Doublet>     2.461404446906
 !MCSCF expec    <24.1 Doublet|LZLZ|24.1 Doublet>     4.067119071731
 
 !MCSCF expec      <1.1 Quartet|L**2|1.1 Quartet>    12.000000000058
 !MCSCF expec      <2.1 Quartet|L**2|2.1 Quartet>    12.000000000066
 !MCSCF expec      <3.1 Quartet|L**2|3.1 Quartet>    12.000000000067
 !MCSCF expec      <4.1 Quartet|L**2|4.1 Quartet>    12.000000000064
 !MCSCF expec      <5.1 Quartet|L**2|5.1 Quartet>    12.000000000077
 !MCSCF expec      <6.1 Quartet|L**2|6.1 Quartet>    12.000000000072
 !MCSCF expec      <7.1 Quartet|L**2|7.1 Quartet>    12.000000000058
 !MCSCF expec      <8.1 Quartet|L**2|8.1 Quartet>     2.000000000100
 !MCSCF expec      <9.1 Quartet|L**2|9.1 Quartet>     2.000000000088
 !MCSCF expec    <10.1 Quartet|L**2|10.1 Quartet>     2.000000000083
 !MCSCF expec    <11.1 Quartet|L**2|11.1 Quartet>    12.000000000056
 !MCSCF expec    <12.1 Quartet|L**2|12.1 Quartet>    12.000000000056
 !MCSCF expec    <13.1 Quartet|L**2|13.1 Quartet>    12.000000000055
 !MCSCF expec    <14.1 Quartet|L**2|14.1 Quartet>    12.000000000055
 !MCSCF expec    <15.1 Quartet|L**2|15.1 Quartet>    12.000000000052
 !MCSCF expec    <16.1 Quartet|L**2|16.1 Quartet>    12.000000000051
 !MCSCF expec    <17.1 Quartet|L**2|17.1 Quartet>    12.000000000036
 !MCSCF expec      <1.1 Doublet|L**2|1.1 Doublet>    12.000000000057
 !MCSCF expec      <2.1 Doublet|L**2|2.1 Doublet>    12.000000000062
 !MCSCF expec      <3.1 Doublet|L**2|3.1 Doublet>    12.000000000061
 !MCSCF expec      <4.1 Doublet|L**2|4.1 Doublet>    12.000000000057
 !MCSCF expec      <5.1 Doublet|L**2|5.1 Doublet>    12.000000000077
 !MCSCF expec      <6.1 Doublet|L**2|6.1 Doublet>    12.000000000069
 !MCSCF expec      <7.1 Doublet|L**2|7.1 Doublet>    12.000000000047
 !MCSCF expec      <8.1 Doublet|L**2|8.1 Doublet>     6.000000000090
 !MCSCF expec      <9.1 Doublet|L**2|9.1 Doublet>     6.000000000103
 !MCSCF expec    <10.1 Doublet|L**2|10.1 Doublet>     6.000000000094
 !MCSCF expec    <11.1 Doublet|L**2|11.1 Doublet>     6.000000000088
 !MCSCF expec    <12.1 Doublet|L**2|12.1 Doublet>     6.000000000087
 !MCSCF expec    <13.1 Doublet|L**2|13.1 Doublet>     2.000000000144
 !MCSCF expec    <14.1 Doublet|L**2|14.1 Doublet>     2.000000000159
 !MCSCF expec    <15.1 Doublet|L**2|15.1 Doublet>     2.000000000164
 !MCSCF expec    <16.1 Doublet|L**2|16.1 Doublet>    20.000000000074
 !MCSCF expec    <17.1 Doublet|L**2|17.1 Doublet>    20.000000000063
 !MCSCF expec    <18.1 Doublet|L**2|18.1 Doublet>    19.999999999993
 !MCSCF expec    <19.1 Doublet|L**2|19.1 Doublet>    20.000000000022
 !MCSCF expec    <20.1 Doublet|L**2|20.1 Doublet>    20.000000000065
 !MCSCF expec    <21.1 Doublet|L**2|21.1 Doublet>    19.999999999953
 !MCSCF expec    <22.1 Doublet|L**2|22.1 Doublet>    20.000000000044
 !MCSCF expec    <23.1 Doublet|L**2|23.1 Doublet>    20.000000000003
 !MCSCF expec    <24.1 Doublet|L**2|24.1 Doublet>    20.000000000034
 
 EXTRA SYMMETRY OF MOS IN SYMMETRY 1:   1 5 2 3 4 6 1 1 2 5   3 4 6 1 2 5 3 4 6 2   5 3 4 6 1 814151211   9 71310 2 6 5 4 3 1
                                        814151112 7 91310 6   4 2 3 5 1
 EXTRA SYMMETRY OF MOS IN SYMMETRY 2:   2 3 1 1 3 2 1 3 2 1   3 2 8 410 5 6 7 9 3   1 2 6 7 9 5 410 8 3   2 1 8 510 4 6 7 9 3
                                        2 1
 
  NATURAL ORBITALS (STATE AVERAGED)
  =================================

  Orbital  Occupation    Energy    Cen Mu Typ  Coefficients
    1.1     1.99991    -3.75181     1  1  s    1.00127
    2.1     1.56230    -0.31860     1  1  d2+  1.00398
    3.1     1.56230    -0.31860     1  1  d0   1.00398
    4.1     1.56230    -0.31860     1  1  d2-  1.00398
    5.1     1.56230    -0.31860     1  1  d1+  1.00398
    6.1     1.56230    -0.31860     1  1  d1-  1.00398
    7.1     1.18972    -0.12876     1  2  s    0.96995
    1.2     1.99963    -2.37865     1  1  py   0.99984
    2.2     1.99963    -2.37865     1  1  pz   0.99984
    3.2     1.99963    -2.37865     1  1  px   0.99984
 
 Natural orbital dump (state averaged) at molpro section 2140.2 (Orbital set 2)
 
 Transform the CI vectors
 
 CI Coefficients of symmetry 1 (Quartet)
 =======================================

 State:                1               2               3               4               5               6               7
 2aa222a 222      0.99999874      0.00000000      0.00000000     -0.00000000      0.00000000     -0.00000000     -0.00000000
 22aa22a 222     -0.00000000      0.99970613      0.00000106     -0.00000003     -0.00000014      0.00000007     -0.02418965
 222aaa2 222     -0.00000000      0.00000000     -0.00000000      0.00000000      0.00000000     -0.00000000      0.00000000
 2a22aa2 222     -0.00000000      0.00000000      0.00000000     -0.00000000      0.00000000      0.00000000      0.00000006
 2222aaa 222     -0.00000000      0.02163583      0.00000061      0.00000009     -0.00000004     -0.00000020      0.89416398
 222aa2a 222     -0.00000000      0.00000013      0.00000001     -0.02546581      0.89406341     -0.00000010      0.00000004
 2aaa222 222     -0.00000000      0.00000006      0.00000000     -0.00000000      0.00000000     -0.00000000     -0.00000002
 222a2aa 222      0.00000000     -0.00000002     -0.02986210      0.00000023      0.00000010      0.89392724      0.00000022
 2a2a22a 222      0.00000000     -0.01081805     -0.00000030     -0.00000005      0.00000002      0.00000010     -0.44708290
 2aa22a2 222     -0.00000000     -0.00000000     -0.00000000     -0.00000004     -0.00000001     -0.00000000     -0.00000000
 2aa2a22 222     -0.00000000      0.00000000      0.00000001      0.00000000     -0.00000000      0.00000007      0.00000000
 2a22a2a 222     -0.00000000     -0.00000093      0.87300709     -0.00000265     -0.00000011     -0.19456815     -0.00000062
 2a222aa 222     -0.00000000      0.00000006      0.00000260      0.85930677      0.24817309     -0.00000016     -0.00000008
 22aaa22 222     -0.00000000     -0.00000000     -0.00000000      0.00000002      0.00000000     -0.00000000     -0.00000000
 22aa2a2 222      0.00000000     -0.00000000     -0.00000001      0.00000000     -0.00000000     -0.00000001      0.00000000
 22a22aa 222     -0.00000000      0.00000004     -0.00000149     -0.51082371      0.37290511      0.00000004      0.00000007
 22a2a2a 222     -0.00000000     -0.00000055      0.48678986     -0.00000140     -0.00000000      0.40377570     -0.00000023
 2a2a2a2 222      0.00000000     -0.00000000     -0.00000002      0.00000000     -0.00000000     -0.00000001     -0.00000000
 2a2aa22 222      0.00000000      0.00000000      0.00000000     -0.00000003      0.00000010      0.00000000      0.00000000
 22a2aa2 222      0.00000000      0.00000001      0.00000000      0.00000000      0.00000000     -0.00000000      0.00000009
 
 Energy:       -109.37973528   -109.37973523   -109.37973519   -109.37973519   -109.37973515   -109.37973514   -109.37973512

 State:                8               9              10              11              12              13              14
 2aa222a 222      0.00000000      0.00000000      0.00000000     -0.00000000      0.00000000      0.00000000      0.00000000
 22aa22a 222      0.00000010      0.00000000      0.00000000      0.00000000      0.00000000     -0.00000000     -0.00000000
 222aaa2 222     -0.00000000      0.00000000     -0.00000000      0.99956711      0.00000020      0.00000037     -0.00000028
 2a22aa2 222      0.00000006      0.00000000     -0.00000000     -0.00000020      0.99950915     -0.00000001     -0.00000006
 2222aaa 222      0.44688043      0.00000083     -0.00000006      0.00000000     -0.00000008     -0.00000000     -0.00000000
 222aa2a 222     -0.00000006     -0.00000002     -0.44687980     -0.00000000     -0.00000000      0.00000000     -0.00000016
 2aaa222 222     -0.00009037     -0.00000000      0.00000000     -0.00000000     -0.00962830      0.00000028      0.00000003
 222a2aa 222      0.00000083     -0.44688008      0.00000002      0.00000000     -0.00000000     -0.00000008     -0.00000000
 2a2a22a 222      0.89375903      0.00000166     -0.00000012      0.00000000     -0.00000003     -0.00000000      0.00000000
 2aa22a2 222      0.00000000      0.00000000      0.00009041      0.00000003      0.00000001     -0.00000001      0.04196214
 2aa2a22 222      0.00000000     -0.00009019      0.00000000      0.00000001      0.00000009     -0.05983386     -0.00000016
 2a22a2a 222      0.00000083     -0.44687953      0.00000002      0.00000000     -0.00000000     -0.00000008     -0.00000000
 2a222aa 222      0.00000006      0.00000002      0.44687968     -0.00000000      0.00000000     -0.00000000      0.00000009
 22aaa22 222      0.00000000      0.00000000      0.00009054      0.00000024      0.00000005     -0.00000096      0.85420588
 22aa2a2 222     -0.00000000      0.00009060     -0.00000000     -0.00000032      0.00000004      0.84875112      0.00000091
 22a22aa 222      0.00000011      0.00000003      0.77401829      0.00000000      0.00000000     -0.00000000      0.00000016
 22a2a2a 222     -0.00000144      0.77401822     -0.00000003      0.00000000     -0.00000000      0.00000015      0.00000000
 2a2a2a2 222     -0.00000000      0.00015724     -0.00000000      0.00000019      0.00000003     -0.52457207     -0.00000062
 2a2aa22 222     -0.00000000     -0.00000000     -0.00015726      0.00000015      0.00000003     -0.00000056      0.51740304
 22a2aa2 222      0.00018148      0.00000000     -0.00000000     -0.00000000     -0.00481425      0.00000014      0.00000002
 
 Energy:       -109.32570339   -109.32570338   -109.32570336   -109.29887810   -109.29887801   -109.29887795   -109.29887794

 State:               15              16              17
 2aa222a 222      0.00000000      0.00000000     -0.00000000
 22aa22a 222      0.00000000     -0.00000000     -0.00000006
 222aaa2 222     -0.00000002      0.00000002      0.00000000
 2a22aa2 222     -0.00000001     -0.00000010      0.01076481
 2222aaa 222     -0.00000000      0.00000000     -0.00000017
 222aa2a 222     -0.00000015      0.00000000      0.00000000
 2aaa222 222     -0.00000008      0.00000021      0.89398760
 222a2aa 222      0.00000000      0.00000016      0.00000000
 2a2a22a 222     -0.00000000      0.00000000     -0.00000028
 2aa22a2 222      0.89305437     -0.00000731      0.00000008
 2aa2a22 222      0.00000730      0.89203527     -0.00000019
 2a22a2a 222      0.00000000      0.00000023     -0.00000000
 2a222aa 222      0.00000017     -0.00000000     -0.00000000
 22aaa22 222     -0.26389375      0.00000225     -0.00000005
 22aa2a2 222      0.00000226      0.28094316     -0.00000034
 22a22aa 222      0.00000018     -0.00000000     -0.00000000
 22a2a2a 222     -0.00000000     -0.00000039      0.00000000
 2a2a2a2 222      0.00000291      0.35281502      0.00000008
 2a2aa22 222      0.36324703     -0.00000292      0.00000001
 22a2aa2 222     -0.00000004      0.00000011      0.44699520
 
 Energy:       -109.29887787   -109.29887786   -109.29887783
 
 
 CI Coefficients of symmetry 1 (Doublet)
 =======================================

 State:                1               2               3               4               5               6               7
 2aa222b 222      0.81369138      0.00000001      0.00000001     -0.00000001     -0.00000000     -0.00000001     -0.00000001
 22aa22b 222     -0.00000001      0.81361943     -0.00000167      0.00000021      0.00000064      0.00000185     -0.01082079
 222a2ab 222      0.00000001     -0.00000168      0.00122932      0.00000261      0.00001397      0.72778641     -0.00000251
 2222aab 222      0.00000001      0.00967837      0.00000202      0.00000144      0.00000111      0.00000252      0.72772285
 222aa2b 222      0.00000000     -0.00000058     -0.00000104     -0.03107221      0.72712399     -0.00001385     -0.00000104
 2a22a2b 222     -0.00000001      0.00000185      0.70436910      0.00000102     -0.00000244     -0.18313718     -0.00000134
 222220a 222      0.00000006     -0.00000000      0.00000000      0.00000000     -0.00000000     -0.00000000      0.00000000
 2a222ab 222      0.00000001     -0.00000037     -0.00000198      0.69626681      0.21186668     -0.00000656     -0.00000169
 202222a 222     -0.00000001     -0.00000000     -0.00000000     -0.00000000      0.00000000      0.00000000     -0.00000000
 2a2b22a 222      0.00000000      0.00241965      0.00000050      0.00000036      0.00000028      0.00000063      0.18193124
 2b2a22a 222      0.00000000      0.00241964      0.00000050      0.00000036      0.00000028      0.00000063      0.18193141
 2a2a22b 222     -0.00000000     -0.00483929     -0.00000101     -0.00000072     -0.00000056     -0.00000126     -0.36386265
 222202a 222     -0.00000004     -0.00000000     -0.00000000     -0.00000000     -0.00000000     -0.00000000     -0.00000000
 222022a 222     -0.00000003      0.00000000     -0.00000000     -0.00000000      0.00000000      0.00000000      0.00000000
 22a22ba 222      0.00000000      0.00000006     -0.00000027      0.20996432     -0.14874196      0.00000210     -0.00000019
 22b22aa 222      0.00000000      0.00000006     -0.00000027      0.20996510     -0.14874230      0.00000210     -0.00000019
 22a22ab 222     -0.00000000     -0.00000012      0.00000054     -0.41992942      0.29748426     -0.00000421      0.00000038
 22a2a2b 222      0.00000000      0.00000009      0.40737737      0.00000210      0.00000666      0.31445410     -0.00000222
 22a2b2a 222     -0.00000000     -0.00000005     -0.20368835     -0.00000105     -0.00000333     -0.15722685      0.00000111
 22b2a2a 222     -0.00000000     -0.00000005     -0.20368903     -0.00000105     -0.00000333     -0.15722725      0.00000111
 220222a 222      0.00000001      0.00000000     -0.00000000     -0.00000000     -0.00000000     -0.00000000     -0.00000000
 2222aba 222     -0.00000000     -0.00483942     -0.00000101     -0.00000072     -0.00000056     -0.00000126     -0.36386137
 2222baa 222     -0.00000000     -0.00483894     -0.00000101     -0.00000072     -0.00000056     -0.00000126     -0.36386149
 22ab22a 222      0.00000000     -0.40680921      0.00000084     -0.00000010     -0.00000032     -0.00000092      0.00541034
 22ba22a 222      0.00000000     -0.40681022      0.00000084     -0.00000010     -0.00000032     -0.00000092      0.00541044
 222ab2a 222     -0.00000000      0.00000029      0.00000052      0.01553574     -0.36356182      0.00000692      0.00000052
 222ba2a 222     -0.00000000      0.00000029      0.00000052      0.01553647     -0.36356216      0.00000692      0.00000052
 222a2ba 222     -0.00000000      0.00000084     -0.00061437     -0.00000130     -0.00000699     -0.36389296      0.00000125
 222b2aa 222     -0.00000000      0.00000084     -0.00061495     -0.00000130     -0.00000699     -0.36389345      0.00000125
 2ba222a 222     -0.40684560     -0.00000000     -0.00000000      0.00000000      0.00000000      0.00000000      0.00000000
 2ab222a 222     -0.40684578     -0.00000000     -0.00000000      0.00000000      0.00000000      0.00000000      0.00000000
 2a22b2a 222      0.00000000     -0.00000092     -0.35218400     -0.00000051      0.00000122      0.09156864      0.00000067
 2a222ba 222     -0.00000000      0.00000018      0.00000099     -0.34813277     -0.10593332      0.00000328      0.00000085
 2b22a2a 222      0.00000000     -0.00000092     -0.35218510     -0.00000051      0.00000122      0.09156854      0.00000067
 2b222aa 222     -0.00000000      0.00000018      0.00000099     -0.34813404     -0.10593336      0.00000328      0.00000085
 2aba222 222      0.00000000      0.00056730      0.00000012      0.00000008      0.00000007      0.00000015      0.04265534
 222a220 222      0.00000000      0.00000006      0.00000000     -0.00000000      0.00000000     -0.00000000     -0.00000004
 2222a20 222      0.00000000      0.00000000      0.00000003      0.00000000     -0.00000000     -0.00000002     -0.00000000
 22222a0 222     -0.00000000      0.00000000      0.00000000      0.00000009      0.00000002     -0.00000000     -0.00000000
 2a22220 222     -0.00000004     -0.00000000      0.00000000     -0.00000000     -0.00000000     -0.00000000     -0.00000000
 22a2220 222      0.00000007     -0.00000000      0.00000000     -0.00000000     -0.00000000     -0.00000000      0.00000000
 22220a2 222     -0.00000000     -0.00000001      0.00000003     -0.02461414      0.01743701     -0.00000025      0.00000002
 2222a02 222      0.00000000      0.00000001      0.02387839      0.00000012      0.00000039      0.01843165     -0.00000013
 222a022 222      0.00000000     -0.02409073     -0.00000000     -0.00000004     -0.00000005     -0.00000012     -0.01815312
 222a202 222      0.00000000     -0.02359945      0.00000010      0.00000003      0.00000001      0.00000001      0.01878739
 22202a2 222     -0.00000000      0.00000002      0.00000008     -0.02303679     -0.01947325      0.00000046      0.00000007
 2220a22 222     -0.00000000      0.00000009      0.02381592     -0.00000001     -0.00000032     -0.01851217     -0.00000000
 2a22ab2 222     -0.00000000     -0.00024567     -0.00000005     -0.00000004     -0.00000003     -0.00000006     -0.01847022
 2a22ba2 222      0.00000000      0.00024560      0.00000005      0.00000004      0.00000003      0.00000006      0.01847020
 20222a2 222      0.00000000     -0.00000003     -0.00000007      0.01072978      0.02819164     -0.00000058     -0.00000006
 2022a22 222      0.00000000     -0.00000009     -0.01187674      0.00000007      0.00000051      0.02772796     -0.00000006
 22022a2 222      0.00000000      0.00000001     -0.00000005      0.03692095     -0.02615535      0.00000037     -0.00000003
 2202a22 222     -0.00000000     -0.00000001     -0.03581736     -0.00000018     -0.00000059     -0.02764738      0.00000020
 22ab2a2 222     -0.00000000      0.00000010      0.02060713     -0.00000005     -0.00000048     -0.02669670      0.00000003
 22aba22 222     -0.00000000      0.00000003      0.00000009     -0.01949507     -0.02751930      0.00000060      0.00000008
 2ba22a2 222      0.00000000     -0.00000003     -0.00000009      0.01949502      0.02751931     -0.00000060     -0.00000008
 2ba2a22 222     -0.00000000      0.00000010      0.02060713     -0.00000005     -0.00000048     -0.02669674      0.00000003
 2b22aa2 222      0.00000000      0.00000006     -0.00000000      0.00000000      0.00000000      0.00000000      0.00000003
 220a222 222     -0.00000000      0.00000005      0.00000000     -0.00000000     -0.00000000      0.00000000      0.00000001
 222aab2 222     -0.00000001     -0.00000000      0.00000000      0.00000000     -0.00000000     -0.00000000     -0.00000000
 22baa22 222      0.00000000     -0.00000002     -0.00000003     -0.00091071      0.02131006     -0.00000041     -0.00000003
 22a0222 222     -0.00000001      0.00000000      0.00000000     -0.00000000      0.00000000      0.00000000      0.00000000
 22ba2a2 222      0.00000000     -0.00000005      0.00003608      0.00000008      0.00000041      0.02132948     -0.00000007
 22aa2b2 222      0.00000000     -0.00000005     -0.02064322     -0.00000003      0.00000007      0.00536722      0.00000004
 22aab22 222      0.00000000     -0.00000001     -0.00000006      0.02040578      0.00620924     -0.00000019     -0.00000005
 2aa22b2 222     -0.00000000      0.00000002      0.00000003      0.00091066     -0.02131011      0.00000041      0.00000003
 2aa2b22 222      0.00000000     -0.00000005      0.00003602      0.00000008      0.00000041      0.02132954     -0.00000007
 2aab222 222     -0.00000000     -0.00028368     -0.00000006     -0.00000004     -0.00000003     -0.00000007     -0.02132770
 2baa222 222     -0.00000000     -0.00028362     -0.00000006     -0.00000004     -0.00000003     -0.00000007     -0.02132764
 222baa2 222      0.00000002      0.00000000      0.00000000      0.00000000     -0.00000000      0.00000000      0.00000000
 2a02222 222     -0.00000002      0.00000000     -0.00000000     -0.00000000     -0.00000000      0.00000000      0.00000000
 2a22022 222      0.02384716      0.00000000      0.00000000     -0.00000000     -0.00000000     -0.00000000     -0.00000000
 222aba2 222     -0.00000001     -0.00000000     -0.00000000     -0.00000000      0.00000000      0.00000000     -0.00000000
 2ab22a2 222     -0.00000000      0.00000001      0.00000006     -0.02040568     -0.00620920      0.00000019      0.00000005
 2a2a2b2 222     -0.00000000     -0.00000001     -0.03581746     -0.00000018     -0.00000059     -0.02764739      0.00000020
 2a2ab22 222     -0.00000000     -0.00000001      0.00000005     -0.03692105      0.02615539     -0.00000037      0.00000003
 2a22202 222      0.02384716      0.00000000      0.00000000     -0.00000000     -0.00000000     -0.00000000     -0.00000000
 2ab2a22 222      0.00000000     -0.00000005     -0.02064315     -0.00000003      0.00000007      0.00536720      0.00000004
 20a2222 222      0.00000004     -0.00000000      0.00000000      0.00000000      0.00000000      0.00000000      0.00000000
 22a2202 222      0.04130447      0.00000000      0.00000000     -0.00000000     -0.00000000     -0.00000000     -0.00000000
 22a2022 222     -0.04130448     -0.00000000     -0.00000000      0.00000000      0.00000000      0.00000000      0.00000000
 202a222 222     -0.00000000      0.04768992     -0.00000010      0.00000001      0.00000004      0.00000011     -0.00063427
 2b2aa22 222     -0.00000000      0.00000003      0.00000005      0.00157725     -0.03691011      0.00000070      0.00000005
 2b2a2a2 222      0.00000000     -0.00000009      0.00006238      0.00000013      0.00000071      0.03694379     -0.00000013
 2a2ba22 222      0.00000000     -0.00000002     -0.00000010      0.03534379      0.01075472     -0.00000033     -0.00000009
 
 Energy:       -109.34980218   -109.34980210   -109.34980204   -109.34980203   -109.34980197   -109.34980196   -109.34980192

 State:                8               9              10              11              12              13              14
 2aa222b 222      0.00000001      0.00000012     -0.00000000      0.00000000     -0.00000000      0.00000000      0.00000000
 22aa22b 222      0.00000000      0.00000000     -0.00000061     -0.00000000      0.00000000      0.00000008      0.00000000
 222a2ab 222     -0.00000000      0.00000000     -0.00000000     -0.00000000     -0.00000024     -0.00000073     -0.34064429
 2222aab 222     -0.00000000      0.00000000      0.00000010      0.00000000     -0.00000000      0.34064476     -0.00000073
 222aa2b 222     -0.00000000      0.00000000     -0.00000000      0.00000015     -0.00000000     -0.00000050     -0.00000503
 2a22a2b 222      0.00000000      0.00000000     -0.00000000     -0.00000000     -0.00000056     -0.00000073     -0.34064367
 222220a 222     -0.16908265     -0.49128466      0.00000001      0.00000003     -0.00000002      0.00000000     -0.00000000
 2a222ab 222     -0.00000000      0.00000000      0.00000000     -0.00000069      0.00000000      0.00000050      0.00000503
 202222a 222      0.51000740      0.09921279      0.00000001     -0.00000003     -0.00000001      0.00000000     -0.00000000
 2a2b22a 222     -0.00000000      0.00000000     -0.00000007     -0.00000000      0.00000000     -0.34064291      0.00000073
 2b2a22a 222     -0.00000000      0.00000000      0.00000007      0.00000000     -0.00000000     -0.34064434      0.00000073
 2a2a22b 222      0.00000000     -0.00000000      0.00000001     -0.00000000     -0.00000000      0.68128725     -0.00000145
 222202a 222     -0.34092381      0.39207223     -0.00000002     -0.00000000      0.00000004     -0.00000000     -0.00000000
 222022a 222      0.51000674      0.09921252      0.00000001     -0.00000003     -0.00000001     -0.00000000      0.00000000
 22a22ba 222     -0.00000001     -0.00000001      0.00000781     -0.25978411      0.00001460     -0.00000044     -0.00000436
 22b22aa 222      0.00000001      0.00000001     -0.00000781      0.25978348     -0.00001460     -0.00000044     -0.00000436
 22a22ab 222     -0.00000000     -0.00000000     -0.00000000      0.00000063     -0.00000000      0.00000087      0.00000872
 22a2a2b 222     -0.00000000      0.00000000     -0.00000000     -0.00000000     -0.00000055      0.00000126      0.59001229
 22a2b2a 222      0.00000001     -0.00000002      0.00000778      0.00001460      0.25978405     -0.00000063     -0.29500498
 22b2a2a 222     -0.00000001      0.00000002     -0.00000778     -0.00001460     -0.25978350     -0.00000063     -0.29500732
 220222a 222     -0.51000747     -0.09921269     -0.00000001      0.00000003      0.00000001      0.00000000      0.00000000
 2222aba 222      0.00000001     -0.00000001     -0.44995822     -0.00001353      0.00001347     -0.17032230      0.00000036
 2222baa 222     -0.00000001      0.00000001      0.44995813      0.00001353     -0.00001347     -0.17032246      0.00000036
 22ab22a 222     -0.00000001      0.00000001      0.51956821      0.00001563     -0.00001555     -0.00000006     -0.00000000
 22ba22a 222      0.00000001     -0.00000001     -0.51956760     -0.00001563      0.00001555     -0.00000002      0.00000000
 222ab2a 222     -0.00000002     -0.00000002      0.00001353     -0.44995864      0.00002529      0.00000025      0.00000252
 222ba2a 222      0.00000002      0.00000002     -0.00001353      0.44995849     -0.00002529      0.00000025      0.00000252
 222a2ba 222      0.00000002     -0.00000003      0.00001347      0.00002529      0.44995858      0.00000036      0.17032200
 222b2aa 222     -0.00000002      0.00000003     -0.00001347     -0.00002529     -0.44995833      0.00000036      0.17032229
 2ba222a 222      0.09921269     -0.51000770      0.00000001      0.00000002     -0.00000003     -0.00000000     -0.00000000
 2ab222a 222     -0.09921270      0.51000758     -0.00000001     -0.00000002      0.00000003      0.00000000      0.00000000
 2a22b2a 222      0.00000002     -0.00000003      0.00001347      0.00002529      0.44995914      0.00000036      0.17032139
 2a222ba 222      0.00000002      0.00000002     -0.00001353      0.44995910     -0.00002529     -0.00000025     -0.00000252
 2b22a2a 222     -0.00000002      0.00000003     -0.00001347     -0.00002529     -0.44995858      0.00000036      0.17032228
 2b222aa 222     -0.00000002     -0.00000002      0.00001353     -0.44995841      0.00002529     -0.00000025     -0.00000252
 2aba222 222     -0.00000000      0.00000000     -0.00000003     -0.00000000      0.00000000     -0.19748069      0.00000042
 222a220 222     -0.00000000      0.00000000      0.17553250      0.00000528     -0.00000525      0.00000007     -0.00000000
 2222a20 222     -0.00000001      0.00000001     -0.00000525     -0.00000987     -0.17553228     -0.00000000     -0.00000003
 22222a0 222      0.00000001      0.00000001     -0.00000528      0.17553225     -0.00000987      0.00000000      0.00000000
 2a22220 222     -0.03351839      0.17230280     -0.00000000     -0.00000001      0.00000001      0.00000000     -0.00000000
 22a2220 222     -0.17230272     -0.03351836     -0.00000000      0.00000001      0.00000000     -0.00000000      0.00000000
 22220a2 222     -0.00000000     -0.00000000      0.00000166     -0.05502909      0.00000309     -0.00000019     -0.00000190
 2222a02 222      0.00000000     -0.00000000      0.00000165      0.00000309      0.05502910     -0.00000027     -0.12826845
 222a022 222      0.00000000     -0.00000000     -0.05502906     -0.00000166      0.00000165     -0.12826831      0.00000027
 222a202 222      0.00000000     -0.00000000     -0.05502906     -0.00000166      0.00000165      0.12826831     -0.00000027
 22202a2 222     -0.00000000     -0.00000000      0.00000166     -0.05502897      0.00000309      0.00000019      0.00000190
 2220a22 222      0.00000000     -0.00000000      0.00000165      0.00000309      0.05502898      0.00000027      0.12826822
 2a22ab2 222      0.00000000     -0.00000000     -0.02717195     -0.00000082      0.00000081     -0.12826802      0.00000027
 2a22ba2 222      0.00000000     -0.00000000     -0.02717187     -0.00000082      0.00000081      0.12826801     -0.00000027
 20222a2 222     -0.00000000     -0.00000000      0.00000166     -0.05502880      0.00000309      0.00000019      0.00000190
 2022a22 222      0.00000000     -0.00000000      0.00000165      0.00000309      0.05502885      0.00000027      0.12826770
 22022a2 222     -0.00000000     -0.00000000      0.00000002     -0.00068521      0.00000004     -0.00000019     -0.00000190
 2202a22 222      0.00000000     -0.00000000      0.00000002      0.00000004      0.00068520     -0.00000027     -0.12826753
 22ab2a2 222     -0.00000000      0.00000000     -0.00000141     -0.00000265     -0.04706310      0.00000026      0.12342575
 22aba22 222      0.00000000      0.00000000     -0.00000142      0.04706313     -0.00000265      0.00000018      0.00000182
 2ba22a2 222      0.00000000      0.00000000     -0.00000142      0.04706301     -0.00000265      0.00000018      0.00000182
 2ba2a22 222      0.00000000     -0.00000000      0.00000141      0.00000265      0.04706301     -0.00000026     -0.12342551
 2b22aa2 222     -0.00000000      0.00000000      0.05434381      0.00000163     -0.00000163      0.00000001     -0.00000000
 220a222 222      0.00000000     -0.00000000     -0.08220057     -0.00000247      0.00000246     -0.00000003      0.00000000
 222aab2 222     -0.05138572      0.01768513     -0.00000000      0.00000000      0.00000000      0.00000000     -0.00000000
 22baa22 222     -0.00000000     -0.00000000      0.00000142     -0.04706309      0.00000265     -0.00000004     -0.00000036
 22a0222 222      0.08068816      0.01569641      0.00000000     -0.00000000     -0.00000000     -0.00000000      0.00000000
 22ba2a2 222      0.00000000     -0.00000000      0.00000141      0.00000265      0.04706307     -0.00000005     -0.02468510
 22aa2b2 222     -0.00000000     -0.00000000      0.00000000      0.00000000      0.00000002     -0.00000021     -0.09874065
 22aab22 222      0.00000000      0.00000000      0.00000000     -0.00000004      0.00000000     -0.00000015     -0.00000146
 2aa22b2 222      0.00000000     -0.00000000      0.00000000     -0.00000003      0.00000000     -0.00000015     -0.00000146
 2aa2b22 222     -0.00000000      0.00000000      0.00000000     -0.00000000      0.00000000      0.00000021      0.09874045
 2aab222 222      0.00000000      0.00000000      0.00000004      0.00000000     -0.00000000      0.09874035     -0.00000021
 2baa222 222     -0.00000000     -0.00000000     -0.00000000     -0.00000000      0.00000000      0.09874034     -0.00000021
 222baa2 222      0.01037709     -0.05334390      0.00000000      0.00000000     -0.00000000      0.00000000      0.00000000
 2a02222 222      0.01569634     -0.08068790      0.00000000      0.00000000     -0.00000001     -0.00000000     -0.00000000
 2a22022 222      0.05670500     -0.04502959      0.00000000     -0.00000000     -0.00000000      0.00000000      0.00000000
 222aba2 222      0.04100862      0.03565876      0.00000000     -0.00000000      0.00000000     -0.00000000      0.00000000
 2ab22a2 222     -0.00000000     -0.00000000      0.00000142     -0.04706297      0.00000265     -0.00000004     -0.00000036
 2a2a2b2 222      0.00000000     -0.00000000      0.00000163      0.00000305      0.05434387      0.00000018      0.08551187
 2a2ab22 222      0.00000000      0.00000000     -0.00000163      0.05434382     -0.00000305     -0.00000013     -0.00000126
 2a22202 222     -0.03568918     -0.06300328      0.00000000      0.00000000     -0.00000000     -0.00000000     -0.00000000
 2ab2a22 222     -0.00000000      0.00000000     -0.00000141     -0.00000265     -0.04706301      0.00000005      0.02468507
 20a2222 222      0.08068790      0.01569640      0.00000000     -0.00000000     -0.00000000      0.00000000     -0.00000000
 22a2202 222     -0.00831417      0.04632795     -0.00000000     -0.00000000      0.00000000      0.00000000      0.00000000
 22a2022 222      0.00965942     -0.04606625      0.00000000      0.00000000     -0.00000000     -0.00000000      0.00000000
 202a222 222     -0.00000000      0.00000000      0.02648663      0.00000080     -0.00000079      0.00000003     -0.00000000
 2b2aa22 222     -0.00000000     -0.00000000      0.00000082     -0.02717191      0.00000153      0.00000006      0.00000063
 2b2a2a2 222     -0.00000000      0.00000000     -0.00000081     -0.00000153     -0.02717191     -0.00000009     -0.04275590
 2a2ba22 222     -0.00000000     -0.00000000      0.00000082     -0.02717192      0.00000153      0.00000006      0.00000063
 
 Energy:       -109.33135135   -109.33135133   -109.33135131   -109.33135131   -109.33135130   -109.30558726   -109.30558724

 State:               15              16              17              18              19              20              21
 2aa222b 222      0.00000000     -0.00000001     -0.00000000      0.00000000     -0.00000002     -0.00000000      0.00000000
 22aa22b 222     -0.00000000      0.00000000     -0.00000000      0.00000000      0.00000000      0.00000000     -0.00000000
 222a2ab 222      0.00000503     -0.00000000      0.00000000      0.00000041     -0.00000000      0.00000000      0.00000000
 2222aab 222     -0.00000050     -0.00000000     -0.00000027      0.00000000     -0.00000000     -0.00000000     -0.00000000
 222aa2b 222     -0.34064400      0.00000000     -0.00000000      0.00000000      0.00000000     -0.00000009      0.00000053
 2a22a2b 222      0.00000503     -0.00000000      0.00000000      0.00000061     -0.00000000     -0.00000000      0.00000000
 222220a 222      0.00000000     -0.00480666      0.00000010      0.00000002      0.04242710     -0.00000007      0.00000188
 2a222ab 222      0.34064380      0.00000000      0.00000000     -0.00000000     -0.00000000     -0.00000021     -0.00000065
 202222a 222      0.00000000      0.69512759     -0.00000040     -0.00000004      0.05547846     -0.00000016     -0.00000035
 2a2b22a 222      0.00000050      0.00000039      0.68979264     -0.00000298     -0.00000002      0.00000049      0.00000434
 2b2a22a 222      0.00000050     -0.00000039     -0.68979193      0.00000298      0.00000002     -0.00000049     -0.00000434
 2a2a22b 222     -0.00000101     -0.00000000     -0.00000071      0.00000000     -0.00000000      0.00000000     -0.00000000
 222202a 222      0.00000000     -0.14583278      0.00000009     -0.00000064      0.67563778     -0.00000005     -0.00000033
 222022a 222      0.00000000     -0.65746794      0.00000036      0.00000020     -0.23499498      0.00000019     -0.00000003
 22a22ba 222     -0.29500488      0.00000010     -0.00000127      0.00000308      0.00000002     -0.12863383      0.62736569
 22b22aa 222     -0.29500746     -0.00000010      0.00000127     -0.00000308     -0.00000002      0.12863379     -0.62736449
 22a22ab 222      0.59001235      0.00000000      0.00000000     -0.00000000     -0.00000000      0.00000004     -0.00000120
 22a2a2b 222     -0.00000872      0.00000000     -0.00000000     -0.00000100      0.00000000     -0.00000000     -0.00000000
 22a2b2a 222      0.00000436     -0.00000004      0.00000263      0.54063141      0.00000049      0.00000551      0.00033237
 22b2a2a 222      0.00000436      0.00000004     -0.00000263     -0.54063042     -0.00000049     -0.00000551     -0.00033237
 220222a 222     -0.00000000      0.11297988     -0.00000014      0.00000046     -0.53854845      0.00000009     -0.00000116
 2222aba 222      0.00000025     -0.00000006     -0.03910608     -0.00000203      0.00000006     -0.00000325      0.00002791
 2222baa 222      0.00000025      0.00000006      0.03910635      0.00000203     -0.00000006      0.00000325     -0.00002791
 22ab22a 222     -0.00000000     -0.00000006     -0.03386686     -0.00000176      0.00000005     -0.00000281      0.00002417
 22ba22a 222      0.00000000      0.00000006      0.03386686      0.00000176     -0.00000005      0.00000281     -0.00002417
 222ab2a 222      0.17032194      0.00000010     -0.00000041      0.00000274      0.00000007      0.51629172     -0.08285929
[...]
   40    6.1  1.5 -0.5   0.004%   0.000%   0.000%   0.000%   0.000%   0.024%   0.069%   0.002%   0.000%   0.004%
   41    7.1  1.5 -0.5   0.000%   0.041%   0.051%   0.000%   0.000%   0.000%   0.002%   0.079%   0.000%   0.000%
   42    8.1  1.5 -0.5   0.000%   0.000%   0.000%   0.000%   0.000%   0.000%   0.000%   0.000%   0.000%   0.000%
   43    9.1  1.5 -0.5   0.000%   0.000%   0.000%   0.000%   0.000%   0.000%   0.000%   0.000%   0.000%   0.000%
   44   10.1  1.5 -0.5   0.000%   0.000%   0.000%   0.000%   0.000%   0.000%   0.000%   0.000%   0.000%   0.000%
   45   11.1  1.5 -0.5   0.000%   0.000%   0.000%   0.000%   0.020%   0.000%   0.000%   0.000%   0.016%   0.000%
   46   12.1  1.5 -0.5   0.000%   0.000%   0.000%   0.000%   0.234%   0.004%   0.000%   0.002%   0.110%   0.000%
   47   13.1  1.5 -0.5   0.066%   0.001%   0.000%   0.023%   0.000%   0.000%   0.024%   0.001%   0.000%   0.023%
   48   14.1  1.5 -0.5   0.069%   0.001%   0.000%   0.022%   0.000%   0.005%   0.024%   0.001%   0.000%   0.028%
   49   15.1  1.5 -0.5   0.001%   0.077%   0.096%   0.000%   0.000%   0.000%   0.003%   0.148%   0.000%   0.000%
   50   16.1  1.5 -0.5   0.009%   0.000%   0.000%   0.023%   0.001%   0.069%   0.115%   0.003%   0.000%   0.003%
   51   17.1  1.5 -0.5   0.012%   0.000%   0.000%   0.025%   0.002%   0.110%   0.062%   0.001%   0.000%   0.003%
   52    1.1  1.5 -1.5   0.072%   0.001%   0.000%   0.025%   0.000%   0.001%   0.032%   0.001%   0.000%   0.000%
   53    2.1  1.5 -1.5   0.031%   0.000%   0.000%   0.003%   0.000%   0.003%   0.090%   0.002%   0.000%   0.000%
   54    3.1  1.5 -1.5   0.000%   0.007%   0.064%   0.000%   0.023%   0.000%   0.000%   0.002%   0.010%   0.000%
   55    4.1  1.5 -1.5   0.000%   0.006%   0.064%   0.000%   0.026%   0.000%   0.000%   0.000%   0.010%   0.000%
   56    5.1  1.5 -1.5   0.001%   0.062%   0.055%   0.000%   0.024%   0.000%   0.000%   0.012%   0.000%   0.000%
   57    6.1  1.5 -1.5   0.001%   0.060%   0.054%   0.000%   0.016%   0.000%   0.000%   0.020%   0.000%   0.000%
   58    7.1  1.5 -1.5   0.000%   0.000%   0.000%   0.000%   0.001%   0.034%   0.002%   0.000%   0.000%   0.024%
   59    8.1  1.5 -1.5   0.000%   0.000%   0.000%   0.000%   0.000%   0.000%   0.000%   0.000%   0.000%   0.000%
   60    9.1  1.5 -1.5   0.000%   0.000%   0.000%   0.000%   0.000%   0.000%   0.000%   0.000%   0.000%   0.000%
   61   10.1  1.5 -1.5   0.000%   0.000%   0.000%   0.000%   0.000%   0.000%   0.000%   0.000%   0.000%   0.000%
   62   11.1  1.5 -1.5   0.136%   0.001%   0.000%   0.047%   0.000%   0.002%   0.060%   0.001%   0.000%   0.000%
   63   12.1  1.5 -1.5   0.058%   0.001%   0.000%   0.006%   0.000%   0.005%   0.170%   0.004%   0.000%   0.001%
   64   13.1  1.5 -1.5   0.001%   0.089%   0.222%   0.000%   0.003%   0.000%   0.000%   0.005%   0.025%   0.000%
   65   14.1  1.5 -1.5   0.001%   0.091%   0.224%   0.000%   0.001%   0.000%   0.000%   0.006%   0.024%   0.000%
   66   15.1  1.5 -1.5   0.000%   0.000%   0.000%   0.000%   0.001%   0.065%   0.004%   0.000%   0.000%   0.114%
   67   16.1  1.5 -1.5   0.000%   0.037%   0.001%   0.000%   0.072%   0.001%   0.001%   0.039%   0.021%   0.000%
   68   17.1  1.5 -1.5   0.000%   0.038%   0.001%   0.000%   0.093%   0.002%   0.000%   0.017%   0.020%   0.000%
   69    1.1  0.5  0.5   0.000%   0.000%   0.000%   0.000%   0.000%   0.000%   0.000%   0.000%   0.000%   0.262%
   70    2.1  0.5  0.5   0.000%   0.000%   0.000%   0.000%   0.000%   0.000%   0.000%   0.000%   0.000%   0.005%
   71    3.1  0.5  0.5   0.000%   0.000%   0.000%   0.000%   0.000%   0.000%   0.000%   0.000%   0.125%   0.000%
   72    4.1  0.5  0.5   0.000%   0.000%   0.000%   0.000%   0.000%   0.000%   0.000%   0.000%   0.119%   0.000%
   73    5.1  0.5  0.5   0.000%   0.000%   0.000%   0.000%   0.000%   0.000%   0.000%   0.000%   0.015%   0.000%
   74    6.1  0.5  0.5   0.000%   0.000%   0.000%   0.000%   0.000%   0.000%   0.000%   0.000%   0.010%   0.000%
   75    7.1  0.5  0.5   0.000%   0.000%   0.000%   0.000%   0.000%   0.000%   0.000%   0.000%   0.000%   0.000%
   76    8.1  0.5  0.5   0.000%   0.000%   0.000%   0.000%   0.000%   0.000%   0.000%   0.000%   0.000%   0.000%
   77    9.1  0.5  0.5   0.000%   0.000%   0.000%   0.000%   0.000%   0.000%   0.000%   0.000%   0.000%   0.000%
   78   10.1  0.5  0.5   0.000%   0.000%   0.000%   0.000%   0.000%   0.000%   0.000%   0.000%   0.000%   0.000%
   79   11.1  0.5  0.5   0.000%   0.000%   0.000%   0.000%   0.000%   0.000%   0.000%   0.000%   0.000%   0.000%
   80   12.1  0.5  0.5   0.000%   0.000%   0.000%   0.000%   0.000%   0.000%   0.000%   0.000%   0.000%   0.000%
   81   13.1  0.5  0.5   0.000%   0.000%   0.000%   0.000%   0.000%   0.000%   0.000%   0.000%   0.000%   0.000%
   82   14.1  0.5  0.5   0.000%   0.000%   0.000%   0.000%   0.000%   0.000%   0.000%   0.000%   0.000%   0.000%
   83   15.1  0.5  0.5   0.000%   0.000%   0.000%   0.000%   0.000%   0.000%   0.000%   0.000%   0.000%   0.000%
   84   16.1  0.5  0.5  31.803%   0.334%   0.001%  23.577%   0.000%   0.001%   0.053%   0.001%   0.000%   0.047%
   85   17.1  0.5  0.5   0.196%  18.687%  10.539%   0.001%   2.902%   0.049%   0.000%   0.012%  22.431%   0.000%
   86   18.1  0.5  0.5   0.193%  18.390%  10.734%   0.001%   2.533%   0.043%   0.000%   0.012%  23.280%   0.000%
   87   19.1  0.5  0.5   0.024%   0.000%   0.000%   0.017%   0.078%   4.625%   0.012%   0.000%   0.000%  42.971%
   88   20.1  0.5  0.5   7.760%   0.081%   0.002%  33.143%   0.056%   3.305%   9.654%   0.228%   0.000%   0.380%
   89   21.1  0.5  0.5   6.390%   0.067%   0.001%  18.432%   0.334%  19.740%   9.006%   0.212%   0.000%   2.141%
   90   22.1  0.5  0.5   0.054%   5.157%   0.082%   0.000%  23.005%   0.389%   0.588%  24.966%   2.176%   0.000%
   91   23.1  0.5  0.5   5.315%   0.056%   0.000%   2.397%   0.501%  29.652%  15.819%   0.373%   0.000%   4.060%
   92   24.1  0.5  0.5   0.046%   4.391%   0.018%   0.000%  11.538%   0.195%   0.875%  37.132%   1.507%   0.000%
   93    1.1  0.5 -0.5   0.000%   0.000%   0.000%   0.000%   0.000%   0.000%   0.000%   0.000%   0.262%   0.000%
   94    2.1  0.5 -0.5   0.000%   0.000%   0.000%   0.000%   0.000%   0.000%   0.000%   0.000%   0.005%   0.000%
   95    3.1  0.5 -0.5   0.000%   0.000%   0.000%   0.000%   0.000%   0.000%   0.000%   0.000%   0.000%   0.125%
   96    4.1  0.5 -0.5   0.000%   0.000%   0.000%   0.000%   0.000%   0.000%   0.000%   0.000%   0.000%   0.119%
   97    5.1  0.5 -0.5   0.000%   0.000%   0.000%   0.000%   0.000%   0.000%   0.000%   0.000%   0.000%   0.015%
   98    6.1  0.5 -0.5   0.000%   0.000%   0.000%   0.000%   0.000%   0.000%   0.000%   0.000%   0.000%   0.010%
   99    7.1  0.5 -0.5   0.000%   0.000%   0.000%   0.000%   0.000%   0.000%   0.000%   0.000%   0.000%   0.000%
  100    8.1  0.5 -0.5   0.000%   0.000%   0.000%   0.000%   0.000%   0.000%   0.000%   0.000%   0.000%   0.000%
  101    9.1  0.5 -0.5   0.000%   0.000%   0.000%   0.000%   0.000%   0.000%   0.000%   0.000%   0.000%   0.000%
  102   10.1  0.5 -0.5   0.000%   0.000%   0.000%   0.000%   0.000%   0.000%   0.000%   0.000%   0.000%   0.000%
  103   11.1  0.5 -0.5   0.000%   0.000%   0.000%   0.000%   0.000%   0.000%   0.000%   0.000%   0.000%   0.000%
  104   12.1  0.5 -0.5   0.000%   0.000%   0.000%   0.000%   0.000%   0.000%   0.000%   0.000%   0.000%   0.000%
  105   13.1  0.5 -0.5   0.000%   0.000%   0.000%   0.000%   0.000%   0.000%   0.000%   0.000%   0.000%   0.000%
  106   14.1  0.5 -0.5   0.000%   0.000%   0.000%   0.000%   0.000%   0.000%   0.000%   0.000%   0.000%   0.000%
  107   15.1  0.5 -0.5   0.000%   0.000%   0.000%   0.000%   0.000%   0.000%   0.000%   0.000%   0.000%   0.000%
  108   16.1  0.5 -0.5   0.334%  31.803%  23.577%   0.001%   0.001%   0.000%   0.001%   0.053%   0.047%   0.000%
  109   17.1  0.5 -0.5  18.687%   0.196%   0.001%  10.539%   0.049%   2.902%   0.012%   0.000%   0.000%  22.431%
  110   18.1  0.5 -0.5  18.390%   0.193%   0.001%  10.734%   0.043%   2.533%   0.012%   0.000%   0.000%  23.280%
  111   19.1  0.5 -0.5   0.000%   0.024%   0.017%   0.000%   4.625%   0.078%   0.000%   0.012%  42.971%   0.000%
  112   20.1  0.5 -0.5   0.081%   7.760%  33.143%   0.002%   3.305%   0.056%   0.228%   9.654%   0.380%   0.000%
  113   21.1  0.5 -0.5   0.067%   6.390%  18.432%   0.001%  19.740%   0.334%   0.212%   9.006%   2.141%   0.000%
  114   22.1  0.5 -0.5   5.157%   0.054%   0.000%   0.082%   0.389%  23.005%  24.966%   0.588%   0.000%   2.176%
  115   23.1  0.5 -0.5   0.056%   5.315%   2.397%   0.000%  29.652%   0.501%   0.373%  15.819%   4.060%   0.000%
  116   24.1  0.5 -0.5   4.391%   0.046%   0.000%   0.018%   0.195%  11.538%  37.132%   0.875%   0.000%   1.507%

   Nr   State  S   Sz     111      112      113      114      115      116

    1    1.1  1.5  1.5   0.023%   0.000%   0.001%   0.000%   0.000%   0.000%
    2    2.1  1.5  1.5   0.003%   0.000%   0.022%   0.000%   0.000%   0.000%
    3    3.1  1.5  1.5   0.000%   0.003%   0.000%   0.007%   0.000%   0.006%
    4    4.1  1.5  1.5   0.000%   0.003%   0.000%   0.009%   0.000%   0.004%
    5    5.1  1.5  1.5   0.000%   0.001%   0.000%   0.004%   0.000%   0.008%
    6    6.1  1.5  1.5   0.000%   0.001%   0.000%   0.003%   0.000%   0.010%
    7    7.1  1.5  1.5   0.000%   0.000%   0.000%   0.000%   0.015%   0.000%
    8    8.1  1.5  1.5   0.000%   0.000%   0.000%   0.000%   0.000%   0.000%
    9    9.1  1.5  1.5   0.000%   0.000%   0.000%   0.000%   0.000%   0.000%
   10   10.1  1.5  1.5   0.000%   0.000%   0.000%   0.000%   0.000%   0.000%
   11   11.1  1.5  1.5   0.106%   0.000%   0.003%   0.000%   0.000%   0.000%
   12   12.1  1.5  1.5   0.012%   0.000%   0.100%   0.000%   0.000%   0.000%
   13   13.1  1.5  1.5   0.000%   0.002%   0.000%   0.004%   0.000%   0.000%
   14   14.1  1.5  1.5   0.000%   0.002%   0.000%   0.005%   0.000%   0.000%
   15   15.1  1.5  1.5   0.000%   0.000%   0.000%   0.000%   0.070%   0.000%
   16   16.1  1.5  1.5   0.000%   0.017%   0.000%   0.044%   0.000%   0.072%
   17   17.1  1.5  1.5   0.000%   0.018%   0.000%   0.058%   0.000%   0.058%
   18    1.1  1.5  0.5   0.000%   0.000%   0.000%   0.000%   0.000%   0.020%
   19    2.1  1.5  0.5   0.000%   0.000%   0.000%   0.000%   0.000%   0.000%
   20    3.1  1.5  0.5   0.001%   0.000%   0.016%   0.000%   0.002%   0.000%
   21    4.1  1.5  0.5   0.001%   0.000%   0.014%   0.000%   0.004%   0.000%
   22    5.1  1.5  0.5   0.023%   0.000%   0.000%   0.000%   0.007%   0.000%
   23    6.1  1.5  0.5   0.022%   0.000%   0.000%   0.000%   0.007%   0.000%
   24    7.1  1.5  0.5   0.000%   0.002%   0.000%   0.006%   0.000%   0.000%
   25    8.1  1.5  0.5   0.000%   0.000%   0.000%   0.000%   0.000%   0.000%
   26    9.1  1.5  0.5   0.000%   0.000%   0.000%   0.000%   0.000%   0.000%
   27   10.1  1.5  0.5   0.000%   0.000%   0.000%   0.000%   0.000%   0.000%
   28   11.1  1.5  0.5   0.000%   0.000%   0.000%   0.000%   0.000%   0.094%
   29   12.1  1.5  0.5   0.000%   0.000%   0.000%   0.000%   0.000%   0.002%
   30   13.1  1.5  0.5   0.068%   0.000%   0.060%   0.000%   0.038%   0.000%
   31   14.1  1.5  0.5   0.069%   0.000%   0.047%   0.000%   0.045%   0.000%
   32   15.1  1.5  0.5   0.000%   0.010%   0.000%   0.028%   0.000%   0.000%
   33   16.1  1.5  0.5   0.042%   0.000%   0.018%   0.000%   0.006%   0.000%
   34   17.1  1.5  0.5   0.042%   0.000%   0.021%   0.000%   0.003%   0.000%
   35    1.1  1.5 -0.5   0.000%   0.000%   0.000%   0.000%   0.020%   0.000%
   36    2.1  1.5 -0.5   0.000%   0.000%   0.000%   0.000%   0.000%   0.000%
   37    3.1  1.5 -0.5   0.000%   0.001%   0.000%   0.016%   0.000%   0.002%
   38    4.1  1.5 -0.5   0.000%   0.001%   0.000%   0.014%   0.000%   0.004%
   39    5.1  1.5 -0.5   0.000%   0.023%   0.000%   0.000%   0.000%   0.007%
   40    6.1  1.5 -0.5   0.000%   0.022%   0.000%   0.000%   0.000%   0.007%
   41    7.1  1.5 -0.5   0.002%   0.000%   0.006%   0.000%   0.000%   0.000%
   42    8.1  1.5 -0.5   0.000%   0.000%   0.000%   0.000%   0.000%   0.000%
   43    9.1  1.5 -0.5   0.000%   0.000%   0.000%   0.000%   0.000%   0.000%
   44   10.1  1.5 -0.5   0.000%   0.000%   0.000%   0.000%   0.000%   0.000%
   45   11.1  1.5 -0.5   0.000%   0.000%   0.000%   0.000%   0.094%   0.000%
   46   12.1  1.5 -0.5   0.000%   0.000%   0.000%   0.000%   0.002%   0.000%
   47   13.1  1.5 -0.5   0.000%   0.068%   0.000%   0.060%   0.000%   0.038%
   48   14.1  1.5 -0.5   0.000%   0.069%   0.000%   0.047%   0.000%   0.045%
   49   15.1  1.5 -0.5   0.010%   0.000%   0.028%   0.000%   0.000%   0.000%
   50   16.1  1.5 -0.5   0.000%   0.042%   0.000%   0.018%   0.000%   0.006%
   51   17.1  1.5 -0.5   0.000%   0.042%   0.000%   0.021%   0.000%   0.003%
   52    1.1  1.5 -1.5   0.000%   0.023%   0.000%   0.001%   0.000%   0.000%
   53    2.1  1.5 -1.5   0.000%   0.003%   0.000%   0.022%   0.000%   0.000%
   54    3.1  1.5 -1.5   0.003%   0.000%   0.007%   0.000%   0.006%   0.000%
   55    4.1  1.5 -1.5   0.003%   0.000%   0.009%   0.000%   0.004%   0.000%
   56    5.1  1.5 -1.5   0.001%   0.000%   0.004%   0.000%   0.008%   0.000%
   57    6.1  1.5 -1.5   0.001%   0.000%   0.003%   0.000%   0.010%   0.000%
   58    7.1  1.5 -1.5   0.000%   0.000%   0.000%   0.000%   0.000%   0.015%
   59    8.1  1.5 -1.5   0.000%   0.000%   0.000%   0.000%   0.000%   0.000%
   60    9.1  1.5 -1.5   0.000%   0.000%   0.000%   0.000%   0.000%   0.000%
   61   10.1  1.5 -1.5   0.000%   0.000%   0.000%   0.000%   0.000%   0.000%
   62   11.1  1.5 -1.5   0.000%   0.106%   0.000%   0.003%   0.000%   0.000%
   63   12.1  1.5 -1.5   0.000%   0.012%   0.000%   0.100%   0.000%   0.000%
   64   13.1  1.5 -1.5   0.002%   0.000%   0.004%   0.000%   0.000%   0.000%
   65   14.1  1.5 -1.5   0.002%   0.000%   0.005%   0.000%   0.000%   0.000%
   66   15.1  1.5 -1.5   0.000%   0.000%   0.000%   0.000%   0.000%   0.070%
   67   16.1  1.5 -1.5   0.017%   0.000%   0.044%   0.000%   0.072%   0.000%
   68   17.1  1.5 -1.5   0.018%   0.000%   0.058%   0.000%   0.058%   0.000%
   69    1.1  0.5  0.5   0.000%   0.000%   0.000%   0.000%   0.000%   0.044%
   70    2.1  0.5  0.5   0.000%   0.000%   0.000%   0.001%   0.000%   0.300%
   71    3.1  0.5  0.5   0.158%   0.000%   0.006%   0.000%   0.018%   0.000%
   72    4.1  0.5  0.5   0.169%   0.000%   0.006%   0.000%   0.012%   0.000%
   73    5.1  0.5  0.5   0.062%   0.000%   0.159%   0.000%   0.071%   0.000%
   74    6.1  0.5  0.5   0.068%   0.000%   0.138%   0.000%   0.090%   0.000%
   75    7.1  0.5  0.5   0.000%   0.079%   0.000%   0.227%   0.000%   0.001%
   76    8.1  0.5  0.5   0.000%   0.000%   0.000%   0.000%   0.000%   0.000%
   77    9.1  0.5  0.5   0.000%   0.000%   0.000%   0.000%   0.000%   0.000%
   78   10.1  0.5  0.5   0.000%   0.000%   0.000%   0.000%   0.000%   0.000%
   79   11.1  0.5  0.5   0.000%   0.000%   0.000%   0.000%   0.000%   0.000%
   80   12.1  0.5  0.5   0.000%   0.000%   0.000%   0.000%   0.000%   0.000%
   81   13.1  0.5  0.5   0.000%   0.000%   0.000%   0.000%   0.000%   0.000%
   82   14.1  0.5  0.5   0.000%   0.000%   0.000%   0.000%   0.000%   0.000%
   83   15.1  0.5  0.5   0.000%   0.000%   0.000%   0.000%   0.000%   0.000%
   84   16.1  0.5  0.5   0.000%  32.052%   0.000%  11.043%   0.000%   0.006%
   85   17.1  0.5  0.5  11.260%   0.000%   9.237%   0.000%   0.509%   0.000%
   86   18.1  0.5  0.5  10.672%   0.000%   9.048%   0.000%   0.466%   0.000%
   87   19.1  0.5  0.5   0.000%   0.031%   0.000%   0.011%   0.000%   0.764%
   88   20.1  0.5  0.5   0.000%  29.132%   0.000%  14.115%   0.000%   1.084%
   89   21.1  0.5  0.5   0.000%  14.305%   0.000%  18.098%   0.000%  10.056%
   90   22.1  0.5  0.5   0.052%   0.000%  14.066%   0.000%  27.980%   0.000%
   91   23.1  0.5  0.5   0.000%   1.475%   0.000%  12.209%   0.000%  26.548%
   92   24.1  0.5  0.5   0.014%   0.000%  11.166%   0.000%  31.580%   0.000%
   93    1.1  0.5 -0.5   0.000%   0.000%   0.000%   0.000%   0.044%   0.000%
   94    2.1  0.5 -0.5   0.000%   0.000%   0.001%   0.000%   0.300%   0.000%
   95    3.1  0.5 -0.5   0.000%   0.158%   0.000%   0.006%   0.000%   0.018%
   96    4.1  0.5 -0.5   0.000%   0.169%   0.000%   0.006%   0.000%   0.012%
   97    5.1  0.5 -0.5   0.000%   0.062%   0.000%   0.159%   0.000%   0.071%
   98    6.1  0.5 -0.5   0.000%   0.068%   0.000%   0.138%   0.000%   0.090%
   99    7.1  0.5 -0.5   0.079%   0.000%   0.227%   0.000%   0.001%   0.000%
  100    8.1  0.5 -0.5   0.000%   0.000%   0.000%   0.000%   0.000%   0.000%
  101    9.1  0.5 -0.5   0.000%   0.000%   0.000%   0.000%   0.000%   0.000%
  102   10.1  0.5 -0.5   0.000%   0.000%   0.000%   0.000%   0.000%   0.000%
  103   11.1  0.5 -0.5   0.000%   0.000%   0.000%   0.000%   0.000%   0.000%
  104   12.1  0.5 -0.5   0.000%   0.000%   0.000%   0.000%   0.000%   0.000%
  105   13.1  0.5 -0.5   0.000%   0.000%   0.000%   0.000%   0.000%   0.000%
  106   14.1  0.5 -0.5   0.000%   0.000%   0.000%   0.000%   0.000%   0.000%
  107   15.1  0.5 -0.5   0.000%   0.000%   0.000%   0.000%   0.000%   0.000%
  108   16.1  0.5 -0.5  32.052%   0.000%  11.043%   0.000%   0.006%   0.000%
  109   17.1  0.5 -0.5   0.000%  11.260%   0.000%   9.237%   0.000%   0.509%
  110   18.1  0.5 -0.5   0.000%  10.672%   0.000%   9.048%   0.000%   0.466%
  111   19.1  0.5 -0.5   0.031%   0.000%   0.011%   0.000%   0.764%   0.000%
  112   20.1  0.5 -0.5  29.132%   0.000%  14.115%   0.000%   1.084%   0.000%
  113   21.1  0.5 -0.5  14.305%   0.000%  18.098%   0.000%  10.056%   0.000%
  114   22.1  0.5 -0.5   0.000%   0.052%   0.000%  14.066%   0.000%  27.980%
  115   23.1  0.5 -0.5   1.475%   0.000%  12.209%   0.000%  26.548%   0.000%
  116   24.1  0.5 -0.5   0.000%   0.014%   0.000%  11.166%   0.000%  31.580%


 Property matrices transformed in SO basis (not sym. adapted)
 ============================================================

 No matrix element <i|DMX|i> larger than 5E-7
 No matrix element <i|DMX|1> larger than 5E-7

 No matrix element <i|DMY|i> larger than 5E-7
 No matrix element <i|DMY|1> larger than 5E-7

 No matrix element <i|DMZ|i> larger than 5E-7
 No matrix element <i|DMZ|1> larger than 5E-7


 **********************************************************************************************************************************
 DATASETS  * FILE   NREC   LENGTH (MB)   RECORD NAMES
              1      21       32.05       500      610      700      900      950      970     1000      129      960     1100   
                                          VAR    BASINP    GEOM    SYMINP    ZMAT    AOBASIS   BASIS     P2S    ABASIS      S 
                                         1400     1410     1420     1200     1210     1080     1700     1600     1650     1380   
                                           T        V       ECP      H0       H01     AOSYM    OPER      SMH    MOLCAS    JKOP   
                                         1700(1)
                                         OPER   

              2       6     1252.71       700     1000      520     2140     5103     5101   
                                         GEOM     BASIS   MCVARS    MCSCF    MRCI     MRCI   

 PROGRAMS   *        TOTAL        CI        CI        CI     MULTI       INT
 CPU TIMES  *     49117.16  44535.77   3820.15    755.50      4.13      1.25
 REAL TIME  *     51644.50 SEC
 DISK USED  *         1.25 GB (local),       25.18 GB (total)
 SF USED    *         8.23 GB
 GA USED    *         0.00 MB       (max)       0.00 MB       (current)
 **********************************************************************************************************************************

 CI/cc-pWCVTZ-PP energy=   -109.948576664375

              CI              CI           MULTI
   -109.89226133   -109.89645859   -109.33135131
 **********************************************************************************************************************************
 Molpro calculation terminated
