
 Working directory              : /wrk/irikura/molpro.TYMmM0mrtX/
 Global scratch directory       : /wrk/irikura/molpro.TYMmM0mrtX/
 Wavefunction directory         : /home/irikura/wfu/
 Main file repository           : /wrk/irikura/molpro.TYMmM0mrtX/

 id        : nistki

 Nodes            nprocs
 pn112695.nist.gov   12
 GA implementation: MPI file
 GA implementation (serial work in mppx): MPI file

 Using customized tuning parameters: mindgm=1; mindgv=20; mindgc=4; mindgr=1; noblas=0; minvec=7
 default implementation of scratch files=sf  


 Variables initialized (1040), CPU time= 0.01 sec
 ***,Rh atom, (17/10) active space
                                                                                 ! 4F,4P,4F + 2F,2D,2P
 memory,1500,M;
 
 gprint,orbitals,civector
 
 symmetry,xyz
 geometry={Rh}
 
 basis=cc-pwCVTZ-PP
 
 {multi
     closed,0,0
     wf,nelec=17,sym=1,spin=3; state,17;
     wf,nelec=17,sym=1,spin=1; state,15;
     expec2,lxx,lyy,lzz;
  }
 table, energy, ll
 title, Energies and LL values
 
 {ci;wf,sym=1,spin=3;state,17;save,5103.2}
 hlsdiag = energd4
 {ci;wf,sym=1,spin=1;state,15;save,5101.2}
 hlsdiag(18) = energd4
 
 table, hlsdiag
 
                                                                                 !compute and diagonalize SO matrix
 {ci;hlsmat,ecp,5103.2,5101.2;print,vls=0,hls=0}
 
 Commands initialized (846), CPU time= 0.01 sec, 717 directives.
 Default parameters read. Elapsed time= 0.11 sec

 Checking input...
 Passed
1


                                         ***  PROGRAM SYSTEM MOLPRO  ***
                                       Copyright, TTI GmbH Stuttgart, 2015
                                    Version 2023.2 linked Fri Sep 22 03:27:09 2023


 **********************************************************************************************************************************
 LABEL *   Rh atom, (17/10) active space                                                                                                                                 
  (32 PROC) 64 bit mpp version                                                           DATE: 14-Feb-24          TIME: 10:13:38  
 **********************************************************************************************************************************

 SHA1:             3c61bfe44d37c8635c785372c339f5cbdd4e4b59
 **********************************************************************************************************************************

 Memory per process:      1500 MW
 Total memory per node:  18000 MW

 GA preallocation disabled
 GA check disabled

 Variable memory set to 1500.0 MW


 ZSYMEL=XYZ

 SETTING BASIS          =    CC-PWCVTZ-PP


 Recomputing integrals since basis changed


 Using spherical harmonics

 Library entry Rh   ECP ECP28MDF                 selected for group  1
 Library entry RH     S cc-pwCVTZ-PP         selected for orbital group  1
 Library entry RH     P cc-pwCVTZ-PP         selected for orbital group  1
 Library entry RH     D cc-pwCVTZ-PP         selected for orbital group  1
 Library entry RH     F cc-pwCVTZ-PP         selected for orbital group  1
 Library entry RH     G cc-pwCVTZ-PP         selected for orbital group  1


 PROGRAM * SEWARD (Integral evaluation for generally contracted gaussian basis sets)     Author: Roland Lindh, 1990

 Geometry written to block  1 of record 700

 Orientation using atomic masses  
 Molecule type: Atom
 User-specified symmetry elements: XYZ
 Symmetry elements: XYZ
 Rotational constants:       0.0000000      0.0000000      0.0000000 GHz  (calculated with average atomic masses)

 Point group  Ci  



 ATOMIC COORDINATES

 NR  ATOM    CHARGE       X              Y              Z

   1  RH     17.00    0.000000000    0.000000000    0.000000000

 NUCLEAR CHARGE:                   17
 NUMBER OF PRIMITIVE AOS:         165
 NUMBER OF SYMMETRY AOS:          134
 NUMBER OF CONTRACTIONS:           97   (   55Ag  +   42Au  )
 NUMBER OF INNER CORE ORBITALS:     0   (    0Ag  +    0Au  )
 NUMBER OF OUTER CORE ORBITALS:     4   (    1Ag  +    3Au  )
 NUMBER OF VALENCE ORBITALS:        6   (    6Ag  +    0Au  )


 LX: Ag           LY: Ag           LZ: Ag 


 NUCLEAR REPULSION ENERGY    0.00000000

 EXTRA SYMMETRY OF AOS IN SYMMETRY 1:   1 1 1 1 1 1 1 2 3 4   5 6 2 3 4 5 6 2 3 4   5 6 2 3 4 5 6 2 3 4   5 6 2 3 4 5 6 7 8 9
                                       101112131415 7 8 910  1112131415
 EXTRA SYMMETRY OF AOS IN SYMMETRY 2:   1 2 3 1 2 3 1 2 3 1   2 3 1 2 3 1 2 3 1 2   3 4 5 6 7 8 910 4 5   6 7 8 910 4 5 6 7 8
                                        910


 Eigenvalues of metric

         1 0.743E-03 0.223E-02 0.223E-02 0.223E-02 0.223E-02 0.223E-02 0.534E-02 0.439E-01
         2 0.905E-03 0.905E-03 0.905E-03 0.520E-02 0.520E-02 0.520E-02 0.207E+00 0.207E+00


 Contracted 2-electron integrals neglected if value below      1.0D-11
 AO integral compression algorithm  1   Integral accuracy      1.0D-11

     13.369 MB (compressed) written to integral file ( 16.7%)

     Node minimum: 0.786 MB, node maximum: 1.573 MB


 NUMBER OF SORTED TWO-ELECTRON INTEGRALS:     479772.     BUFFER LENGTH:  32768
 NUMBER OF SEGMENTS:   1  SEGMENT LENGTH:     479772      RECORD LENGTH: 524288

 Memory used in sort:       1.04 MW

 SORT1 READ    10862098. AND WROTE       89681. INTEGRALS IN      1 RECORDS. CPU TIME:     0.05 SEC, REAL TIME:     0.06 SEC
 SORT2 READ     1120219. AND WROTE     5766586. INTEGRALS IN     36 RECORDS. CPU TIME:     0.02 SEC, REAL TIME:     0.02 SEC

 Node minimum:      478351.  Node maximum:      485007. integrals

 OPERATOR DM      FOR CENTER  0  COORDINATES:    0.000000    0.000000    0.000000


 **********************************************************************************************************************************
 DATASETS  * FILE   NREC   LENGTH (MB)   RECORD NAMES
              1      19       28.86       500      610      700      900      950      970     1000      129      960     1100   
                                          VAR    BASINP    GEOM    SYMINP    ZMAT    AOBASIS   BASIS     P2S    ABASIS      S 
                                         1400     1410     1420     1200     1210     1080     1700     1600     1650   
                                           T        V       ECP      H0       H01     AOSYM    OPER      SMH    MOLCAS    

 PROGRAMS   *        TOTAL       INT
 CPU TIMES  *         0.70      0.49
 REAL TIME  *         1.50 SEC
 DISK USED  *        29.20 MB (local),      405.52 MB (total)
 GA USED    *         0.00 MB       (max)       0.00 MB       (current)
 **********************************************************************************************************************************

 PROGRAM * MULTI (Direct Multiconfiguration SCF)       Authors: P.J. Knowles, H.-J. Werner (1984)
                                                                D.A. Kreplin, P.J. Knowles, H.-J. Werner (2019)

 Number of active  orbitals:       10 (    7    3)
 Number of external orbitals:      87 (   48   39)

 State symmetry 1

 Number of active electrons:  17    Spin symmetry=Quartet   Space symmetry=1
 Number of states:            17
 Number of CSFs:              56   (56 determinants, 120 intermediate states)

 State symmetry 2

 Number of active electrons:  17    Spin symmetry=Doublet   Space symmetry=1
 Number of states:            15
 Number of CSFs:             175   (231 determinants, 450 intermediate states)

 Orbital guess generated from atomic densities. Full valence occupancy:    7   3
 *** IN SYMMETRY 1 ORBITAL  3 SYMMETRY CONTAMINATION OF 0.326D+00 HAS BEEN REMOVED
 *** IN SYMMETRY 1 ORBITAL  4 SYMMETRY CONTAMINATION OF 0.321D+00 HAS BEEN REMOVED
 *** IN SYMMETRY 1 ORBITAL  5 SYMMETRY CONTAMINATION OF 0.469D+00 HAS BEEN REMOVED
 *** IN SYMMETRY 1 ORBITAL  6 SYMMETRY CONTAMINATION OF 0.472D+00 HAS BEEN REMOVED

 EXTRA SYMMETRY OF MOS IN SYMMETRY 1:   1 2 4 6 3 5 1 1 2 4   6 3 5 1 6 4 2 5 3 2   6 4 5 3 1 7 9111514  1310 812 2 4 6 5 3 1
                                        715141310 911 812 2   4 6 5 3 1
 *** IN SYMMETRY 2 ORBITAL  1 SYMMETRY CONTAMINATION OF 0.210D-02 HAS BEEN REMOVED
 *** IN SYMMETRY 2 ORBITAL  2 SYMMETRY CONTAMINATION OF 0.188D-02 HAS BEEN REMOVED
 *** IN SYMMETRY 2 ORBITAL  3 SYMMETRY CONTAMINATION OF 0.436D-03 HAS BEEN REMOVED
 EXTRA SYMMETRY OF MOS IN SYMMETRY 2:   1 2 3 1 2 3 1 2 3 3   1 2 7 9 5 4 6 810 3   1 2 6 5 4 7 9 810 1   2 3 810 6 7 9 4 5 1
                                        2 3

 Wavefunction dump at record             2140.2

 Convergence thresholds  0.10E-04 (gradient)  0.10E-05 (energy)

 Weight factors for state symmetry  1:    0.03125   0.03125   0.03125   0.03125   0.03125   0.03125   0.03125   0.03125
                                          0.03125   0.03125   0.03125   0.03125   0.03125   0.03125   0.03125   0.03125
                                          0.03125
 Weight factors for state symmetry  2:    0.03125   0.03125   0.03125   0.03125   0.03125   0.03125   0.03125   0.03125
                                          0.03125   0.03125   0.03125   0.03125   0.03125   0.03125   0.03125
 
 Number of orbital rotations:  453  ( 0 closed/active, 0 closed/virtual, 0 active/active, 453 active/virtual )
 Total number of variables:    4870
 
 Second-order MCSCF: L-BFGS accelerated
 
 ITER  MIC  NCI  NEG     ENERGY(VAR)    ENERGY(PROJ) ENERGY CHANGE       GRAD(0)  GRAD(ORB)   GRAD(CI)      STEP      TIME
   1    4    8    0   -109.30997365    -109.33689836   -0.02692471    0.24076082 0.00025543 0.00000000  0.17E+00      0.27
   2    3    6    0   -109.33599848    -109.33606179   -0.00006331    0.01246715 0.00003398 0.00000000  0.86E-02      0.48
   3   20   40    0   -109.33606192    -109.33606192   -0.00000000    0.00003340 0.00000087 0.00000000  0.28E-04      1.59
   4   20   40    0   -109.33606192    -109.33606192   -0.00000000    0.00000009 0.00000012 0.00000000  0.75E-07      2.69

 CONVERGENCE REACHED!  Final gradient:    0.00000010 ( 0.10E-06)
                       Final energy:   -109.33606192
 
 Results for state 1.1 Quartet
 =============================
 !MCSCF STATE 1.1 Quartet Energy              -109.378682212572
 Nuclear energy                                  0.00000000
 Kinetic energy                                 41.36792212
 One electron energy                          -194.10072924
 Two electron energy                            84.72204703
 Virial ratio                                    3.64404584
 
 !MCSCF STATE 1.1 Quartet Dipole moment          0.00000000     0.00000000     0.00000000
 Dipole moment /Debye                            0.00000000     0.00000000     0.00000000
 
 Results for state 2.1 Quartet
 =============================
 !MCSCF STATE 2.1 Quartet Energy              -109.378682212481
 Nuclear energy                                  0.00000000
 Kinetic energy                                 41.36792212
 One electron energy                          -194.10072925
 Two electron energy                            84.72204703
 Virial ratio                                    3.64404584
 
 !MCSCF STATE 2.1 Quartet Dipole moment          0.00000000     0.00000000     0.00000000
 Dipole moment /Debye                            0.00000000     0.00000000     0.00000000
 
 Results for state 3.1 Quartet
 =============================
 !MCSCF STATE 3.1 Quartet Energy              -109.378682212009
 Nuclear energy                                  0.00000000
 Kinetic energy                                 41.36792213
 One electron energy                          -194.10072925
 Two electron energy                            84.72204704
 Virial ratio                                    3.64404584
 
 !MCSCF STATE 3.1 Quartet Dipole moment          0.00000000     0.00000000     0.00000000
 Dipole moment /Debye                            0.00000000     0.00000000     0.00000000
 
 Results for state 4.1 Quartet
 =============================
 !MCSCF STATE 4.1 Quartet Energy              -109.378682211749
 Nuclear energy                                  0.00000000
 Kinetic energy                                 41.36792213
 One electron energy                          -194.10072926
 Two electron energy                            84.72204705
 Virial ratio                                    3.64404584
 
 !MCSCF STATE 4.1 Quartet Dipole moment          0.00000000     0.00000000     0.00000000
 Dipole moment /Debye                            0.00000000     0.00000000     0.00000000
 
 Results for state 5.1 Quartet
 =============================
 !MCSCF STATE 5.1 Quartet Energy              -109.378682210956
 Nuclear energy                                  0.00000000
 Kinetic energy                                 41.36792215
 One electron energy                          -194.10072928
 Two electron energy                            84.72204707
 Virial ratio                                    3.64404583
 
 !MCSCF STATE 5.1 Quartet Dipole moment          0.00000000     0.00000000     0.00000000
 Dipole moment /Debye                            0.00000000     0.00000000     0.00000000
 
 Results for state 6.1 Quartet
 =============================
 !MCSCF STATE 6.1 Quartet Energy              -109.378682210740
 Nuclear energy                                  0.00000000
 Kinetic energy                                 41.36792217
 One electron energy                          -194.10072931
 Two electron energy                            84.72204710
 Virial ratio                                    3.64404583
 
 !MCSCF STATE 6.1 Quartet Dipole moment          0.00000000     0.00000000     0.00000000
 Dipole moment /Debye                            0.00000000     0.00000000     0.00000000
 
 Results for state 7.1 Quartet
 =============================
 !MCSCF STATE 7.1 Quartet Energy              -109.378682210592
 Nuclear energy                                  0.00000000
 Kinetic energy                                 41.36792216
 One electron energy                          -194.10072931
 Two electron energy                            84.72204709
 Virial ratio                                    3.64404583
 
 !MCSCF STATE 7.1 Quartet Dipole moment          0.00000000     0.00000000     0.00000000
 Dipole moment /Debye                            0.00000000     0.00000000     0.00000000
 
 Results for state 8.1 Quartet
 =============================
 !MCSCF STATE 8.1 Quartet Energy              -109.324480883118
 Nuclear energy                                  0.00000000
 Kinetic energy                                 41.36876879
 One electron energy                          -194.09096124
 Two electron energy                            84.76648036
 Virial ratio                                    3.64268152
 
 !MCSCF STATE 8.1 Quartet Dipole moment          0.00000000     0.00000000     0.00000000
 Dipole moment /Debye                            0.00000000     0.00000000     0.00000000
 
 Results for state 9.1 Quartet
 =============================
 !MCSCF STATE 9.1 Quartet Energy              -109.324480880512
 Nuclear energy                                  0.00000000
 Kinetic energy                                 41.36876886
 One electron energy                          -194.09096133
 Two electron energy                            84.76648045
 Virial ratio                                    3.64268152
 
 !MCSCF STATE 9.1 Quartet Dipole moment          0.00000000     0.00000000     0.00000000
 Dipole moment /Debye                            0.00000000     0.00000000     0.00000000
 
 Results for state 10.1 Quartet
 ==============================
 !MCSCF STATE 10.1 Quartet Energy             -109.324480879365
 Nuclear energy                                  0.00000000
 Kinetic energy                                 41.36876889
 One electron energy                          -194.09096137
 Two electron energy                            84.76648049
 Virial ratio                                    3.64268152
 
 !MCSCF STATE 10.1 Quartet Dipole moment         0.00000000     0.00000000     0.00000000
 Dipole moment /Debye                            0.00000000     0.00000000     0.00000000
 
 Results for state 11.1 Quartet
 ==============================
 !MCSCF STATE 11.1 Quartet Energy             -109.303283482227
 Nuclear energy                                  0.00000000
 Kinetic energy                                 38.92300388
 One electron energy                          -189.61138119
 Two electron energy                            80.30809771
 Virial ratio                                    3.80819240
 
 !MCSCF STATE 11.1 Quartet Dipole moment         0.00000000     0.00000000     0.00000000
 Dipole moment /Debye                            0.00000000     0.00000000     0.00000000
 
 Results for state 12.1 Quartet
 ==============================
 !MCSCF STATE 12.1 Quartet Energy             -109.303283482121
 Nuclear energy                                  0.00000000
 Kinetic energy                                 38.92300386
 One electron energy                          -189.61138119
 Two electron energy                            80.30809771
 Virial ratio                                    3.80819240
 
 !MCSCF STATE 12.1 Quartet Dipole moment         0.00000000     0.00000000     0.00000000
 Dipole moment /Debye                            0.00000000     0.00000000     0.00000000
 
 Results for state 13.1 Quartet
 ==============================
 !MCSCF STATE 13.1 Quartet Energy             -109.303283482107
 Nuclear energy                                  0.00000000
 Kinetic energy                                 38.92300387
 One electron energy                          -189.61138120
 Two electron energy                            80.30809771
 Virial ratio                                    3.80819240
 
 !MCSCF STATE 13.1 Quartet Dipole moment         0.00000000     0.00000000     0.00000000
 Dipole moment /Debye                            0.00000000     0.00000000     0.00000000
 
 Results for state 14.1 Quartet
 ==============================
 !MCSCF STATE 14.1 Quartet Energy             -109.303283481938
 Nuclear energy                                  0.00000000
 Kinetic energy                                 38.92300386
 One electron energy                          -189.61138118
 Two electron energy                            80.30809769
 Virial ratio                                    3.80819240
 
 !MCSCF STATE 14.1 Quartet Dipole moment         0.00000000     0.00000000     0.00000000
 Dipole moment /Debye                            0.00000000     0.00000000     0.00000000
 
 Results for state 15.1 Quartet
 ==============================
 !MCSCF STATE 15.1 Quartet Energy             -109.303283481338
 Nuclear energy                                  0.00000000
 Kinetic energy                                 38.92300384
 One electron energy                          -189.61138115
 Two electron energy                            80.30809767
 Virial ratio                                    3.80819240
 
 !MCSCF STATE 15.1 Quartet Dipole moment         0.00000000     0.00000000     0.00000000
 Dipole moment /Debye                            0.00000000     0.00000000     0.00000000
 
 Results for state 16.1 Quartet
 ==============================
 !MCSCF STATE 16.1 Quartet Energy             -109.303283481117
 Nuclear energy                                  0.00000000
 Kinetic energy                                 38.92300383
 One electron energy                          -189.61138113
 Two electron energy                            80.30809765
 Virial ratio                                    3.80819240
 
 !MCSCF STATE 16.1 Quartet Dipole moment         0.00000000     0.00000000     0.00000000
 Dipole moment /Debye                            0.00000000     0.00000000     0.00000000
 
 Results for state 17.1 Quartet
 ==============================
 !MCSCF STATE 17.1 Quartet Energy             -109.303283480721
 Nuclear energy                                  0.00000000
 Kinetic energy                                 38.92300382
 One electron energy                          -189.61138112
 Two electron energy                            80.30809764
 Virial ratio                                    3.80819240
 
 !MCSCF STATE 17.1 Quartet Dipole moment         0.00000000     0.00000000     0.00000000
 Dipole moment /Debye                            0.00000000     0.00000000     0.00000000
 
 Results for state 1.1 Doublet
 =============================
 !MCSCF STATE 1.1 Doublet Energy              -109.348755625846
 Nuclear energy                                  0.00000000
 Kinetic energy                                 41.34766053
 One electron energy                          -194.06559456
 Two electron energy                            84.71683893
 Virial ratio                                    3.64461772
 
 !MCSCF STATE 1.1 Doublet Dipole moment          0.00000000     0.00000000     0.00000000
 Dipole moment /Debye                            0.00000000     0.00000000     0.00000000
 
 Results for state 2.1 Doublet
 =============================
 !MCSCF STATE 2.1 Doublet Energy              -109.348755625704
 Nuclear energy                                  0.00000000
 Kinetic energy                                 41.34766053
 One electron energy                          -194.06559456
 Two electron energy                            84.71683894
 Virial ratio                                    3.64461772
 
 !MCSCF STATE 2.1 Doublet Dipole moment          0.00000000     0.00000000     0.00000000
 Dipole moment /Debye                            0.00000000     0.00000000     0.00000000
 
 Results for state 3.1 Doublet
 =============================
 !MCSCF STATE 3.1 Doublet Energy              -109.348755625287
 Nuclear energy                                  0.00000000
 Kinetic energy                                 41.34766054
 One electron energy                          -194.06559456
 Two electron energy                            84.71683894
 Virial ratio                                    3.64461772
 
 !MCSCF STATE 3.1 Doublet Dipole moment          0.00000000     0.00000000     0.00000000
 Dipole moment /Debye                            0.00000000     0.00000000     0.00000000
 
 Results for state 4.1 Doublet
 =============================
 !MCSCF STATE 4.1 Doublet Energy              -109.348755624900
 Nuclear energy                                  0.00000000
 Kinetic energy                                 41.34766055
 One electron energy                          -194.06559458
 Two electron energy                            84.71683895
 Virial ratio                                    3.64461772
 
 !MCSCF STATE 4.1 Doublet Dipole moment          0.00000000     0.00000000     0.00000000
 Dipole moment /Debye                            0.00000000     0.00000000     0.00000000
 
 Results for state 5.1 Doublet
 =============================
 !MCSCF STATE 5.1 Doublet Energy              -109.348755623964
 Nuclear energy                                  0.00000000
 Kinetic energy                                 41.34766057
 One electron energy                          -194.06559460
 Two electron energy                            84.71683897
 Virial ratio                                    3.64461772
 
 !MCSCF STATE 5.1 Doublet Dipole moment          0.00000000     0.00000000     0.00000000
 Dipole moment /Debye                            0.00000000     0.00000000     0.00000000
 
 Results for state 6.1 Doublet
 =============================
 !MCSCF STATE 6.1 Doublet Energy              -109.348755623482
 Nuclear energy                                  0.00000000
 Kinetic energy                                 41.34766059
 One electron energy                          -194.06559463
 Two electron energy                            84.71683900
 Virial ratio                                    3.64461771
 
 !MCSCF STATE 6.1 Doublet Dipole moment          0.00000000     0.00000000     0.00000000
 Dipole moment /Debye                            0.00000000     0.00000000     0.00000000
 
 Results for state 7.1 Doublet
 =============================
 !MCSCF STATE 7.1 Doublet Energy              -109.348755623404
 Nuclear energy                                  0.00000000
 Kinetic energy                                 41.34766058
 One electron energy                          -194.06559462
 Two electron energy                            84.71683900
 Virial ratio                                    3.64461771
 
 !MCSCF STATE 7.1 Doublet Dipole moment          0.00000000     0.00000000     0.00000000
 Dipole moment /Debye                            0.00000000     0.00000000     0.00000000
 
 Results for state 8.1 Doublet
 =============================
 !MCSCF STATE 8.1 Doublet Energy              -109.330091363851
 Nuclear energy                                  0.00000000
 Kinetic energy                                 41.38184052
 One electron energy                          -194.10693513
 Two electron energy                            84.77684376
 Virial ratio                                    3.64198233
 
 !MCSCF STATE 8.1 Doublet Dipole moment          0.00000000     0.00000000     0.00000000
 Dipole moment /Debye                            0.00000000     0.00000000     0.00000000
 
 Results for state 9.1 Doublet
 =============================
 !MCSCF STATE 9.1 Doublet Energy              -109.330091363353
 Nuclear energy                                  0.00000000
 Kinetic energy                                 41.38184054
 One electron energy                          -194.10693515
 Two electron energy                            84.77684379
 Virial ratio                                    3.64198233
 
 !MCSCF STATE 9.1 Doublet Dipole moment          0.00000000     0.00000000     0.00000000
 Dipole moment /Debye                            0.00000000     0.00000000     0.00000000
 
 Results for state 10.1 Doublet
 ==============================
 !MCSCF STATE 10.1 Doublet Energy             -109.330091363267
 Nuclear energy                                  0.00000000
 Kinetic energy                                 41.38184054
 One electron energy                          -194.10693515
 Two electron energy                            84.77684379
 Virial ratio                                    3.64198233
 
 !MCSCF STATE 10.1 Doublet Dipole moment         0.00000000     0.00000000     0.00000000
 Dipole moment /Debye                            0.00000000     0.00000000     0.00000000
 
 Results for state 11.1 Doublet
 ==============================
 !MCSCF STATE 11.1 Doublet Energy             -109.330091362565
 Nuclear energy                                  0.00000000
 Kinetic energy                                 41.38184056
 One electron energy                          -194.10693519
 Two electron energy                            84.77684382
 Virial ratio                                    3.64198233
 
 !MCSCF STATE 11.1 Doublet Dipole moment         0.00000000     0.00000000     0.00000000
 Dipole moment /Debye                            0.00000000     0.00000000     0.00000000
 
 Results for state 12.1 Doublet
 ==============================
 !MCSCF STATE 12.1 Doublet Energy             -109.330091362392
 Nuclear energy                                  0.00000000
 Kinetic energy                                 41.38184057
 One electron energy                          -194.10693519
 Two electron energy                            84.77684383
 Virial ratio                                    3.64198233
 
 !MCSCF STATE 12.1 Doublet Dipole moment         0.00000000     0.00000000     0.00000000
 Dipole moment /Debye                            0.00000000     0.00000000     0.00000000
 
 Results for state 13.1 Doublet
 ==============================
 !MCSCF STATE 13.1 Doublet Energy             -109.305010878454
 Nuclear energy                                  0.00000000
 Kinetic energy                                 41.03254610
 One electron energy                          -193.46147066
 Two electron energy                            84.15645979
 Virial ratio                                    3.66386128
 
 !MCSCF STATE 13.1 Doublet Dipole moment         0.00000000     0.00000000     0.00000000
 Dipole moment /Debye                            0.00000000     0.00000000     0.00000000
 
 Results for state 14.1 Doublet
 ==============================
 !MCSCF STATE 14.1 Doublet Energy             -109.305010875531
 Nuclear energy                                  0.00000000
 Kinetic energy                                 41.03254613
 One electron energy                          -193.46147070
 Two electron energy                            84.15645982
 Virial ratio                                    3.66386128
 
 !MCSCF STATE 14.1 Doublet Dipole moment         0.00000000     0.00000000     0.00000000
 Dipole moment /Debye                            0.00000000     0.00000000     0.00000000
 
 Results for state 15.1 Doublet
 ==============================
 !MCSCF STATE 15.1 Doublet Energy             -109.305010874364
 Nuclear energy                                  0.00000000
 Kinetic energy                                 41.03254615
 One electron energy                          -193.46147071
 Two electron energy                            84.15645984
 Virial ratio                                    3.66386128
 
 !MCSCF STATE 15.1 Doublet Dipole moment         0.00000000     0.00000000     0.00000000
 Dipole moment /Debye                            0.00000000     0.00000000     0.00000000
 
 State-averaged charge density matrix saved on record 2140.2 (density set 1)
 
 No non-zero expectation values
 
 Expectation values for two-electron operators:
 
 ? Warning
 ? Transition properties are only calculated between states of the same symmetry
 ? The problem occurs in mu_properties_expec2

 !MCSCF expec      <1.1 Quartet|LXLX|1.1 Quartet>     3.219267359671
 !MCSCF expec      <2.1 Quartet|LXLX|2.1 Quartet>     2.363381652060
 !MCSCF expec      <3.1 Quartet|LXLX|3.1 Quartet>     4.842633579390
 !MCSCF expec      <4.1 Quartet|LXLX|4.1 Quartet>     3.999999999703
 !MCSCF expec      <5.1 Quartet|LXLX|5.1 Quartet>     1.636518989972
 !MCSCF expec      <6.1 Quartet|LXLX|6.1 Quartet>     6.780678941389
 !MCSCF expec      <7.1 Quartet|LXLX|7.1 Quartet>     5.157526724626
 !MCSCF expec      <8.1 Quartet|LXLX|8.1 Quartet>     1.000000000000
 !MCSCF expec      <9.1 Quartet|LXLX|9.1 Quartet>     0.000000083242
 !MCSCF expec    <10.1 Quartet|LXLX|10.1 Quartet>     0.999999905931
 !MCSCF expec    <11.1 Quartet|LXLX|11.1 Quartet>     3.936682519430
 !MCSCF expec    <12.1 Quartet|LXLX|12.1 Quartet>     3.257831718835
 !MCSCF expec    <13.1 Quartet|LXLX|13.1 Quartet>     4.781026027385
 !MCSCF expec    <14.1 Quartet|LXLX|14.1 Quartet>     4.000000116425
 !MCSCF expec    <15.1 Quartet|LXLX|15.1 Quartet>     0.063269847804
 !MCSCF expec    <16.1 Quartet|LXLX|16.1 Quartet>     6.742574920075
 !MCSCF expec    <17.1 Quartet|LXLX|17.1 Quartet>     5.219052572384
 !MCSCF expec      <1.1 Doublet|LXLX|1.1 Doublet>     3.493327875186
 !MCSCF expec      <2.1 Doublet|LXLX|2.1 Doublet>     2.549433361245
 !MCSCF expec      <3.1 Doublet|LXLX|3.1 Doublet>     4.550653299581
 !MCSCF expec      <4.1 Doublet|LXLX|4.1 Doublet>     4.000000142339
 !MCSCF expec      <5.1 Doublet|LXLX|5.1 Doublet>     1.450717080843
 !MCSCF expec      <6.1 Doublet|LXLX|6.1 Doublet>     6.506512440164
 !MCSCF expec      <7.1 Doublet|LXLX|7.1 Doublet>     5.449466629655
 !MCSCF expec      <8.1 Doublet|LXLX|8.1 Doublet>     2.232841173815
 !MCSCF expec      <9.1 Doublet|LXLX|9.1 Doublet>     1.000291533937
 !MCSCF expec    <10.1 Doublet|LXLX|10.1 Doublet>     3.999718132805
 !MCSCF expec    <11.1 Doublet|LXLX|11.1 Doublet>     1.000000000016
 !MCSCF expec    <12.1 Doublet|LXLX|12.1 Doublet>     1.767008194038
 !MCSCF expec    <13.1 Doublet|LXLX|13.1 Doublet>     0.999999999999
 !MCSCF expec    <14.1 Doublet|LXLX|14.1 Doublet>     0.000000006928
 !MCSCF expec    <15.1 Doublet|LXLX|15.1 Doublet>     0.999999985663
 
 !MCSCF expec      <1.1 Quartet|LYLY|1.1 Quartet>     0.488580886134
 !MCSCF expec      <2.1 Quartet|LYLY|2.1 Quartet>     1.009787992247
 !MCSCF expec      <3.1 Quartet|LYLY|3.1 Quartet>     3.202703139265
 !MCSCF expec      <4.1 Quartet|LYLY|4.1 Quartet>     4.000000000137
 !MCSCF expec      <5.1 Quartet|LYLY|5.1 Quartet>     8.990225216268
 !MCSCF expec      <6.1 Quartet|LYLY|6.1 Quartet>     3.511439378485
 !MCSCF expec      <7.1 Quartet|LYLY|7.1 Quartet>     6.797153537618
 !MCSCF expec      <8.1 Quartet|LYLY|8.1 Quartet>     1.000000000000
 !MCSCF expec      <9.1 Quartet|LYLY|9.1 Quartet>     0.999999916760
 !MCSCF expec    <10.1 Quartet|LYLY|10.1 Quartet>     0.000000094098
 !MCSCF expec    <11.1 Quartet|LYLY|11.1 Quartet>     3.064846270986
 !MCSCF expec    <12.1 Quartet|LYLY|12.1 Quartet>     4.781228681683
 !MCSCF expec    <13.1 Quartet|LYLY|13.1 Quartet>     0.093786646965
 !MCSCF expec    <14.1 Quartet|LYLY|14.1 Quartet>     3.999999904386
 !MCSCF expec    <15.1 Quartet|LYLY|15.1 Quartet>     6.934820198310
 !MCSCF expec    <16.1 Quartet|LYLY|16.1 Quartet>     5.218320244246
 !MCSCF expec    <17.1 Quartet|LYLY|17.1 Quartet>     3.906204139652
 !MCSCF expec      <1.1 Doublet|LYLY|1.1 Doublet>     0.394469054028
 !MCSCF expec      <2.1 Doublet|LYLY|2.1 Doublet>     1.001311022783
 !MCSCF expec      <3.1 Doublet|LYLY|3.1 Doublet>     3.468944289847
 !MCSCF expec      <4.1 Doublet|LYLY|4.1 Doublet>     3.999999874504
 !MCSCF expec      <5.1 Doublet|LYLY|5.1 Doublet>     8.998695399658
 !MCSCF expec      <6.1 Doublet|LYLY|6.1 Doublet>     3.605583435804
 !MCSCF expec      <7.1 Doublet|LYLY|7.1 Doublet>     6.530944198168
 !MCSCF expec      <8.1 Doublet|LYLY|8.1 Doublet>     3.603852259334
 !MCSCF expec      <9.1 Doublet|LYLY|9.1 Doublet>     3.999708448716
 !MCSCF expec    <10.1 Doublet|LYLY|10.1 Doublet>     1.000281865934
 !MCSCF expec    <11.1 Doublet|LYLY|11.1 Doublet>     1.000000000023
 !MCSCF expec    <12.1 Doublet|LYLY|12.1 Doublet>     0.396238366802
 !MCSCF expec    <13.1 Doublet|LYLY|13.1 Doublet>     0.999999999981
 !MCSCF expec    <14.1 Doublet|LYLY|14.1 Doublet>     0.999999993076
 !MCSCF expec    <15.1 Doublet|LYLY|15.1 Doublet>     0.000000014337
 
 !MCSCF expec      <1.1 Quartet|LZLZ|1.1 Quartet>     8.292151754195
 !MCSCF expec      <2.1 Quartet|LZLZ|2.1 Quartet>     8.626830355693
 !MCSCF expec      <3.1 Quartet|LZLZ|3.1 Quartet>     3.954663281345
 !MCSCF expec      <4.1 Quartet|LZLZ|4.1 Quartet>     4.000000000160
 !MCSCF expec      <5.1 Quartet|LZLZ|5.1 Quartet>     1.373255793759
 !MCSCF expec      <6.1 Quartet|LZLZ|6.1 Quartet>     1.707881680126
 !MCSCF expec      <7.1 Quartet|LZLZ|7.1 Quartet>     0.045319737756
 !MCSCF expec      <8.1 Quartet|LZLZ|8.1 Quartet>    -0.000000000000
 !MCSCF expec      <9.1 Quartet|LZLZ|9.1 Quartet>     0.999999999998
 !MCSCF expec    <10.1 Quartet|LZLZ|10.1 Quartet>     0.999999999971
 !MCSCF expec    <11.1 Quartet|LZLZ|11.1 Quartet>     4.998471209584
 !MCSCF expec    <12.1 Quartet|LZLZ|12.1 Quartet>     3.960939599482
 !MCSCF expec    <13.1 Quartet|LZLZ|13.1 Quartet>     7.125187325650
 !MCSCF expec    <14.1 Quartet|LZLZ|14.1 Quartet>     3.999999979189
 !MCSCF expec    <15.1 Quartet|LZLZ|15.1 Quartet>     5.001909953886
 !MCSCF expec    <16.1 Quartet|LZLZ|16.1 Quartet>     0.039104835679
 !MCSCF expec    <17.1 Quartet|LZLZ|17.1 Quartet>     2.874743287965
 !MCSCF expec      <1.1 Doublet|LZLZ|1.1 Doublet>     8.112203070786
 !MCSCF expec      <2.1 Doublet|LZLZ|2.1 Doublet>     8.449255615971
 !MCSCF expec      <3.1 Doublet|LZLZ|3.1 Doublet>     3.980402410572
 !MCSCF expec      <4.1 Doublet|LZLZ|4.1 Doublet>     3.999999983157
 !MCSCF expec      <5.1 Doublet|LZLZ|5.1 Doublet>     1.550587519498
 !MCSCF expec      <6.1 Doublet|LZLZ|6.1 Doublet>     1.887904124032
 !MCSCF expec      <7.1 Doublet|LZLZ|7.1 Doublet>     0.019589172177
 !MCSCF expec      <8.1 Doublet|LZLZ|8.1 Doublet>     0.163306566851
 !MCSCF expec      <9.1 Doublet|LZLZ|9.1 Doublet>     1.000000017347
 !MCSCF expec    <10.1 Doublet|LZLZ|10.1 Doublet>     1.000000001261
 !MCSCF expec    <11.1 Doublet|LZLZ|11.1 Doublet>     3.999999999961
 !MCSCF expec    <12.1 Doublet|LZLZ|12.1 Doublet>     3.836753439159
 !MCSCF expec    <13.1 Doublet|LZLZ|13.1 Doublet>     0.000000000019
 !MCSCF expec    <14.1 Doublet|LZLZ|14.1 Doublet>     0.999999999996
 !MCSCF expec    <15.1 Doublet|LZLZ|15.1 Doublet>     1.000000000000
 
 !MCSCF expec      <1.1 Quartet|L**2|1.1 Quartet>    12.000000000000
 !MCSCF expec      <2.1 Quartet|L**2|2.1 Quartet>    12.000000000000
 !MCSCF expec      <3.1 Quartet|L**2|3.1 Quartet>    12.000000000000
 !MCSCF expec      <4.1 Quartet|L**2|4.1 Quartet>    12.000000000000
 !MCSCF expec      <5.1 Quartet|L**2|5.1 Quartet>    12.000000000000
 !MCSCF expec      <6.1 Quartet|L**2|6.1 Quartet>    12.000000000000
 !MCSCF expec      <7.1 Quartet|L**2|7.1 Quartet>    12.000000000000
 !MCSCF expec      <8.1 Quartet|L**2|8.1 Quartet>     2.000000000000
 !MCSCF expec      <9.1 Quartet|L**2|9.1 Quartet>     2.000000000000
 !MCSCF expec    <10.1 Quartet|L**2|10.1 Quartet>     2.000000000000
 !MCSCF expec    <11.1 Quartet|L**2|11.1 Quartet>    12.000000000000
 !MCSCF expec    <12.1 Quartet|L**2|12.1 Quartet>    12.000000000000
 !MCSCF expec    <13.1 Quartet|L**2|13.1 Quartet>    12.000000000000
 !MCSCF expec    <14.1 Quartet|L**2|14.1 Quartet>    12.000000000000
 !MCSCF expec    <15.1 Quartet|L**2|15.1 Quartet>    12.000000000000
 !MCSCF expec    <16.1 Quartet|L**2|16.1 Quartet>    12.000000000000
 !MCSCF expec    <17.1 Quartet|L**2|17.1 Quartet>    12.000000000000
 !MCSCF expec      <1.1 Doublet|L**2|1.1 Doublet>    12.000000000000
 !MCSCF expec      <2.1 Doublet|L**2|2.1 Doublet>    12.000000000000
 !MCSCF expec      <3.1 Doublet|L**2|3.1 Doublet>    12.000000000000
 !MCSCF expec      <4.1 Doublet|L**2|4.1 Doublet>    12.000000000000
 !MCSCF expec      <5.1 Doublet|L**2|5.1 Doublet>    12.000000000000
 !MCSCF expec      <6.1 Doublet|L**2|6.1 Doublet>    12.000000000000
 !MCSCF expec      <7.1 Doublet|L**2|7.1 Doublet>    12.000000000000
 !MCSCF expec      <8.1 Doublet|L**2|8.1 Doublet>     6.000000000000
 !MCSCF expec      <9.1 Doublet|L**2|9.1 Doublet>     6.000000000000
 !MCSCF expec    <10.1 Doublet|L**2|10.1 Doublet>     6.000000000000
 !MCSCF expec    <11.1 Doublet|L**2|11.1 Doublet>     6.000000000000
 !MCSCF expec    <12.1 Doublet|L**2|12.1 Doublet>     6.000000000000
 !MCSCF expec    <13.1 Doublet|L**2|13.1 Doublet>     2.000000000000
 !MCSCF expec    <14.1 Doublet|L**2|14.1 Doublet>     2.000000000000
 !MCSCF expec    <15.1 Doublet|L**2|15.1 Doublet>     2.000000000000
 
 EXTRA SYMMETRY OF MOS IN SYMMETRY 1:   1 3 2 4 5 6 1 1 2 3   4 6 5 1 3 2 4 6 5 2   4 3 6 5 1 9 71211 8  14151310 2 4 6 5 3 1
                                        912 711 815141310 4   2 6 5 3 1
 EXTRA SYMMETRY OF MOS IN SYMMETRY 2:   2 3 1 3 1 2 3 1 2 3   1 2 4 6 8 7 9 510 3   1 2 4 6 5 810 7 9 3   1 2 4 610 5 8 7 9 3
                                        1 2
 
  NATURAL ORBITALS (STATE AVERAGED)
  =================================

  Orbital  Occupation    Energy    Cen Mu Typ  Coefficients
    1.1     1.99989    -3.75648     1  1  s    1.00114
    2.1     1.55365    -0.32032     1  1  d2-  1.00403
    3.1     1.55365    -0.32032     1  1  d0   1.00403
    4.1     1.55365    -0.32032     1  1  d1+  1.00403
    5.1     1.55365    -0.32032     1  1  d2+  1.00403
    6.1     1.55365    -0.32032     1  1  d1-  1.00403
    7.1     1.23328    -0.13509     1  2  s    0.97538
    1.2     1.99953    -2.38281     1  1  py   0.99975
    2.2     1.99953    -2.38281     1  1  pz   0.99975
    3.2     1.99953    -2.38281     1  1  px   0.99975
 
 Natural orbital dump (state averaged) at molpro section 2140.2 (Orbital set 2)
 
 Transform the CI vectors
 
 CI Coefficients of symmetry 1 (Quartet)
 =======================================

 State:                1               2               3               4               5               6               7
 22a2a2a 222      0.00005280      0.00006857      0.00000000      0.99999877     -0.00002814     -0.00000212     -0.00000045
 2a2a2a2 222     -0.00000000     -0.00000000     -0.00000000      0.00000000     -0.00000000      0.00000000     -0.00000000
 222aaa2 222     -0.00000000      0.00000000      0.00000000      0.00000000     -0.00000000     -0.00000000      0.00000000
 2aa222a 222     -0.00000333     -0.00000125      0.99431555     -0.00000005      0.00000344      0.00002184     -0.10646197
 2a22a2a 222     -0.00000576     -0.00000182      0.04761125      0.00000020     -0.00001437     -0.00009123      0.44467146
 2aa2a22 222     -0.00000000     -0.00000000     -0.00000000     -0.00000000      0.00000000      0.00000000     -0.00000000
 222a2aa 222     -0.00001152     -0.00000363      0.09522248      0.00000040     -0.00002874     -0.00018247      0.88934282
 22a2aa2 222      0.00000000     -0.00000000     -0.00000000      0.00000000      0.00000000      0.00000000     -0.00000000
 2aaa222 222      0.00000000     -0.00000000     -0.00000000      0.00000000      0.00000000      0.00000000     -0.00000000
 22aaa22 222     -0.00000000     -0.00000000     -0.00000000     -0.00000000      0.00000000     -0.00000000     -0.00000000
 2a222aa 222      0.83802192      0.00127811      0.00000393     -0.00004500     -0.00001005     -0.31259509     -0.00005370
 2aa22a2 222      0.00000000      0.00000000     -0.00000000     -0.00000000     -0.00000000     -0.00000000     -0.00000000
 2222aaa 222     -0.00123242      0.80871155      0.00000135     -0.00006614     -0.38207612      0.00001495     -0.00000920
 22aa22a 222      0.18812834      0.00029297      0.00000088     -0.00001123     -0.00001033     -0.60382664     -0.00012154
 22a22aa 222      0.00021167     -0.13659556     -0.00000023      0.00002673      0.61752782     -0.00001090      0.00001942
 222aa2a 222      0.51217402      0.00077067      0.00000240     -0.00002554      0.00000784      0.73326340      0.00015682
 2a2a22a 222     -0.00086579      0.57212107      0.00000095     -0.00001984      0.68751348     -0.00000393      0.00002444
 2a22aa2 222      0.00000000      0.00000000     -0.00000000      0.00000000      0.00000000     -0.00000000     -0.00000000
 2a2aa22 222      0.00000000     -0.00000000     -0.00000000     -0.00000000      0.00000000      0.00000000     -0.00000000
 22aa2a2 222      0.00000000     -0.00000000     -0.00000000      0.00000000      0.00000000      0.00000000     -0.00000000
 
 Energy:       -109.37868221   -109.37868221   -109.37868221   -109.37868221   -109.37868221   -109.37868221   -109.37868221

 State:                8               9              10              11              12              13              14
 22a2a2a 222     -0.00000000      0.00000000      0.00000000     -0.00000000     -0.00000000      0.00000000     -0.00000000
 2a2a2a2 222      0.00000000      0.00000000      0.00000000      0.00012772      0.00002384      0.00008726      0.99956328
 222aaa2 222      0.00000000     -0.00000000     -0.00000000     -0.00037799      0.99467084     -0.00000002     -0.00002344
 2aa222a 222     -0.00000001     -0.00000000      0.00000000     -0.00000000      0.00000000      0.00000000     -0.00000000
 2a22a2a 222      0.89375384      0.00000000     -0.00000000      0.00000000     -0.00000000      0.00000000      0.00000000
 2aa2a22 222     -0.00009891     -0.00000000     -0.00000000     -0.00003267      0.08834737      0.00000101     -0.00000426
 222a2aa 222     -0.44687696     -0.00000000      0.00000000     -0.00000000      0.00000000     -0.00000000      0.00000000
 22a2aa2 222      0.00000000     -0.00009890      0.00000003     -0.11248297     -0.00004273      0.00000527      0.00002645
 2aaa222 222      0.00000000     -0.00009890      0.00000003      0.88688924      0.00033694      0.00000173     -0.00011487
 22aaa22 222     -0.00000000     -0.00000003     -0.00009890     -0.00000962     -0.00000009      0.88349366     -0.00008792
 2a222aa 222     -0.00000000     -0.00012893     -0.44687688      0.00000000      0.00000000      0.00000000      0.00000000
 2aa22a2 222     -0.00000000     -0.00000003     -0.00009890     -0.00004207      0.00000000     -0.35342192     -0.00003389
 2222aaa 222     -0.00000000      0.44687689     -0.00012893     -0.00000000     -0.00000000      0.00000000      0.00000000
 22aa22a 222      0.00000000      0.00022331      0.77401353     -0.00000000      0.00000000     -0.00000000      0.00000000
 22a22aa 222     -0.00000000      0.77401352     -0.00022331     -0.00000001     -0.00000000      0.00000000      0.00000000
 222aa2a 222      0.00000000      0.00012893      0.44687690     -0.00000000      0.00000000     -0.00000000      0.00000000
 2a2a22a 222      0.00000000     -0.44687690      0.00012893      0.00000000      0.00000000     -0.00000000      0.00000000
 2a22aa2 222     -0.00000000     -0.00000005     -0.00017131      0.00002984      0.00000005     -0.30603705      0.00007032
 2a2aa22 222      0.00000000     -0.00017131      0.00000005     -0.44710367     -0.00016986     -0.00000404      0.00005105
 22aa2a2 222     -0.00019780      0.00000000      0.00000000      0.00001633     -0.04417369     -0.00000050      0.00000213
 
 Energy:       -109.32448088   -109.32448088   -109.32448088   -109.30328348   -109.30328348   -109.30328348   -109.30328348

 State:               15              16              17
 22a2a2a 222     -0.00000000      0.00000000      0.00000000
 2a2a2a2 222     -0.00001361      0.00000242      0.00007881
 222aaa2 222      0.00000324     -0.09877537      0.00000001
 2aa222a 222     -0.00000000      0.00000000     -0.00000000
 2a22a2a 222     -0.00000000      0.00000001     -0.00000000
 2aa2a22 222     -0.00002925      0.88966070     -0.00000000
 222a2aa 222      0.00000000     -0.00000000     -0.00000000
 22a2aa2 222      0.88693235      0.00002927     -0.00007674
 2aaa222 222     -0.11282191     -0.00000460      0.00005549
 22aaa22 222      0.00000538     -0.00000099      0.13689551
 2a222aa 222      0.00000000      0.00000000      0.00000000
 2aa22a2 222      0.00006782      0.00000040      0.82121518
 2222aaa 222     -0.00000000      0.00000000     -0.00000000
 22aa22a 222     -0.00000000      0.00000000     -0.00000000
 22a22aa 222     -0.00000001      0.00000000     -0.00000000
 222aa2a 222     -0.00000000      0.00000000     -0.00000000
 2a2a22a 222      0.00000000     -0.00000000      0.00000000
 2a22aa2 222     -0.00004226      0.00000034     -0.55316546
 2a2aa22 222     -0.44693288     -0.00001424      0.00001227
 22aa2a2 222      0.00001462     -0.44483036      0.00000000
 
 Energy:       -109.30328348   -109.30328348   -109.30328348
 
 
 CI Coefficients of symmetry 1 (Doublet)
 =======================================

 State:                1               2               3               4               5               6               7
 22a2a2b 222     -0.00011029      0.00000888      0.00000127      0.81355783      0.00002711      0.00012760      0.00000889
 2aa222b 222      0.00001978     -0.00000896      0.81156243     -0.00000064      0.00000009     -0.00000612     -0.05694555
 222a2ab 222      0.00000349      0.00000276      0.05093364     -0.00000802      0.00001379      0.00004218      0.72588348
 2a222ab 222      0.69085614      0.00108700     -0.00001776      0.00012948      0.00005602     -0.22851196      0.00001120
 2a22a2b 222      0.00000175      0.00000138      0.02546683     -0.00000401      0.00000689      0.00002109      0.36294179
 2222aab 222     -0.00104935      0.67203398      0.00000763      0.00000183     -0.27905257     -0.00004412      0.00000221
 222aa2b 222      0.39396956      0.00058334     -0.00000757     -0.00004255     -0.00017338      0.61179140     -0.00003691
 22aa22b 222      0.17140751      0.00029079     -0.00000588      0.00009932      0.00013244     -0.48514933      0.00002778
 22a22ab 222      0.00021540     -0.13500429     -0.00000217     -0.00001506      0.49651214      0.00013073     -0.00000877
 2a2a22b 222     -0.00067628      0.43819965      0.00000388     -0.00002426      0.58093173      0.00018230     -0.00001298
 2ab222a 222     -0.00000989      0.00000448     -0.40578120      0.00000032     -0.00000005      0.00000306      0.02847278
 2ba222a 222     -0.00000989      0.00000448     -0.40578123      0.00000032     -0.00000005      0.00000306      0.02847277
 22b2a2a 222      0.00005514     -0.00000444     -0.00000063     -0.40677890     -0.00001355     -0.00006380     -0.00000445
 202222a 222     -0.00000000     -0.00000000      0.00000000     -0.00000000      0.00000000      0.00000000      0.00000000
 222202a 222     -0.00000000      0.00000000      0.00000000     -0.00000000      0.00000000      0.00000000      0.00000000
 22a2b2a 222      0.00005514     -0.00000444     -0.00000063     -0.40677892     -0.00001355     -0.00006380     -0.00000445
 220222a 222      0.00000000      0.00000000     -0.00000000      0.00000000      0.00000000     -0.00000000     -0.00000000
 222022a 222      0.00000000     -0.00000000     -0.00000000     -0.00000000      0.00000000     -0.00000000     -0.00000000
 222b2aa 222     -0.00000175     -0.00000138     -0.02546681      0.00000401     -0.00000689     -0.00002109     -0.36294174
 222a2ba 222     -0.00000175     -0.00000138     -0.02546683      0.00000401     -0.00000689     -0.00002109     -0.36294174
 2a222ba 222     -0.34542806     -0.00054350      0.00000888     -0.00006474     -0.00002801      0.11425597     -0.00000560
 2b222aa 222     -0.34542807     -0.00054350      0.00000888     -0.00006474     -0.00002801      0.11425599     -0.00000560
 2222baa 222      0.00052468     -0.33601699     -0.00000382     -0.00000091      0.13952629      0.00002206     -0.00000111
 2222aba 222      0.00052468     -0.33601699     -0.00000382     -0.00000091      0.13952628      0.00002206     -0.00000111
 222ba2a 222     -0.19698478     -0.00029167      0.00000378      0.00002127      0.00008669     -0.30589569      0.00001846
 2a2b22a 222      0.00033814     -0.21909982     -0.00000194      0.00001213     -0.29046586     -0.00009115      0.00000649
 222ab2a 222     -0.19698478     -0.00029167      0.00000378      0.00002127      0.00008669     -0.30589571      0.00001846
 2b2a22a 222      0.00033814     -0.21909983     -0.00000194      0.00001213     -0.29046588     -0.00009115      0.00000649
 222220a 222      0.00000000      0.00000000      0.00000000      0.00000001      0.00000000     -0.00000000      0.00000000
 2b22a2a 222     -0.00000087     -0.00000069     -0.01273342      0.00000201     -0.00000345     -0.00001055     -0.18147090
 2a22b2a 222     -0.00000087     -0.00000069     -0.01273342      0.00000201     -0.00000345     -0.00001055     -0.18147089
 22ba22a 222     -0.08570376     -0.00014539      0.00000294     -0.00004966     -0.00006622      0.24257467     -0.00001389
 22b22aa 222     -0.00010770      0.06750215      0.00000108      0.00000753     -0.24825607     -0.00006536      0.00000439
 22a22ba 222     -0.00010770      0.06750215      0.00000108      0.00000753     -0.24825607     -0.00006536      0.00000439
 22ab22a 222     -0.08570375     -0.00014539      0.00000294     -0.00004966     -0.00006622      0.24257466     -0.00001389
 2ab2a22 222     -0.00000021     -0.00000017     -0.00305631      0.00000048     -0.00000083     -0.00000253     -0.04355718
 2a22220 222     -0.00000000      0.00000000      0.00000000      0.00000000     -0.00000000     -0.00000000      0.00000000
 22222a0 222      0.00000000     -0.00000000     -0.00000000      0.00000000     -0.00000000     -0.00000000      0.00000000
 222a220 222      0.00000000     -0.00000000     -0.00000000     -0.00000000     -0.00000000      0.00000000     -0.00000000
 2222a20 222      0.00000000     -0.00000000     -0.00000000     -0.00000000     -0.00000000     -0.00000000     -0.00000000
 22a2220 222      0.00000000      0.00000000      0.00000000      0.00000000     -0.00000000     -0.00000000     -0.00000000
 220a222 222     -0.01542815     -0.00002617      0.00000053     -0.00000894     -0.00001192      0.04366762     -0.00000250
 222a022 222      0.03075865      0.00004776     -0.00000075      0.00000375     -0.00000106      0.00268091     -0.00000025
 22022a2 222     -0.00001939      0.01215155      0.00000020      0.00000136     -0.04469037     -0.00001177      0.00000079
 22202a2 222      0.00001293     -0.00810104     -0.00000013     -0.00000090      0.02979358      0.00000784     -0.00000053
 202a222 222     -0.02561594     -0.00003904      0.00000057     -0.00000077      0.00000504     -0.01723678      0.00000108
 222a202 222      0.01028544      0.00001745     -0.00000035      0.00000596      0.00000795     -0.02911175      0.00000167
 2a20222 222      0.00000050     -0.00000034      0.02302578      0.00000019     -0.00000036     -0.00000128     -0.02056934
 222baa2 222     -0.00000009     -0.00000007     -0.00132342      0.00000021     -0.00000036     -0.00000110     -0.01886081
 22220a2 222     -0.00004161      0.02682222      0.00000027     -0.00000081      0.01529219      0.00000555     -0.00000041
 222aab2 222      0.00000009      0.00000007      0.00132342     -0.00000021      0.00000036      0.00000110      0.01886080
 20222a2 222      0.00004807     -0.03087273     -0.00000033      0.00000036     -0.00039541     -0.00000163      0.00000015
 2a22202 222      0.00000068     -0.00000020      0.02567262     -0.00000023      0.00000036      0.00000091      0.01715228
 22aab22 222     -0.03254788     -0.00005012      0.00000076     -0.00000261      0.00000352     -0.01149948      0.00000077
 2baa222 222     -0.00005177      0.03331019      0.00000035     -0.00000067      0.00905724      0.00000415     -0.00000032
 2ba22a2 222      0.03254788      0.00005012     -0.00000076      0.00000261     -0.00000352      0.01149948     -0.00000077
 22a2ba2 222      0.00005177     -0.03331019     -0.00000035      0.00000067     -0.00905724     -0.00000415      0.00000032
 22aba22 222      0.02072766      0.00003261     -0.00000053      0.00000388      0.00000168     -0.00685601      0.00000034
 2aab222 222      0.00003148     -0.02016295     -0.00000023     -0.00000005      0.00837237      0.00000132     -0.00000007
 2aa22b2 222     -0.01182022     -0.00001750      0.00000023      0.00000128      0.00000520     -0.01835549      0.00000111
 22a2ab2 222     -0.00002029      0.01314725      0.00000012     -0.00000073      0.01742962      0.00000547     -0.00000039
 2ba2a22 222      0.00000010      0.00000008      0.00152816     -0.00000024      0.00000041      0.00000127      0.02177859
 2aa2b22 222      0.00000010      0.00000008      0.00152816     -0.00000024      0.00000041      0.00000127      0.02177859
 2a2ba22 222      0.00001939     -0.01215155     -0.00000020     -0.00000136      0.04469037      0.00001177     -0.00000079
 2a22ab2 222      0.01542815      0.00002617     -0.00000053      0.00000894      0.00001192     -0.04366762      0.00000250
 2a02222 222      0.00000000     -0.00000000      0.00000000      0.00000000     -0.00000000      0.00000000     -0.00000000
 2202a22 222      0.00000000      0.00000000     -0.00000000     -0.00000000      0.00000000      0.00000000      0.00000000
 22a2022 222     -0.00000000     -0.00000000      0.00000000      0.00000000      0.00000000      0.00000000      0.00000000
 20a2222 222     -0.00000000     -0.00000000      0.00000000     -0.00000000      0.00000000      0.00000000      0.00000000
 2220a22 222      0.00000331     -0.00000027     -0.00000004     -0.02440907     -0.00000081     -0.00000383     -0.00000027
 2222a02 222      0.00000331     -0.00000027     -0.00000004     -0.02440907     -0.00000081     -0.00000383     -0.00000027
 222aba2 222      0.00000000     -0.00000000     -0.00000000     -0.00000000      0.00000000      0.00000000      0.00000000
 2b2a2a2 222      0.00000000      0.00000000      0.00000000      0.00000000      0.00000000      0.00000000      0.00000000
 2a2b2a2 222     -0.00000000     -0.00000000     -0.00000000      0.00000000     -0.00000000      0.00000000     -0.00000000
 22ba2a2 222     -0.00000021     -0.00000017     -0.00305631      0.00000048     -0.00000083     -0.00000253     -0.04355718
 
 Energy:       -109.34875563   -109.34875563   -109.34875563   -109.34875562   -109.34875562   -109.34875562   -109.34875562

 State:                8               9              10              11              12              13              14
 22a2a2b 222      0.00000000     -0.00000000     -0.00000000      0.00000000      0.00000001      0.00000000     -0.00000000
 2aa222b 222      0.00000000      0.00000000     -0.00000000     -0.00000002      0.00000000     -0.00000001     -0.00000000
 222a2ab 222     -0.00000000     -0.00000000     -0.00000000     -0.00000000      0.00000000     -0.33779109     -0.00000026
 2a222ab 222      0.00000000     -0.00000000     -0.00000000      0.00000000     -0.00000000     -0.00000146      0.00002811
 2a22a2b 222      0.00000000     -0.00000000      0.00000000     -0.00000000      0.00000000      0.67558208      0.00000052
 2222aab 222      0.00000000     -0.00000000      0.00000000     -0.00000000      0.00000000     -0.00000026      0.33779103
 222aa2b 222     -0.00000000      0.00000001      0.00000000      0.00000000      0.00000000      0.00000146     -0.00002811
 22aa22b 222      0.00000000     -0.00000001     -0.00000000     -0.00000000     -0.00000000      0.00000254     -0.00004868
 22a22ab 222      0.00000000     -0.00000000      0.00000001     -0.00000000     -0.00000000     -0.00000045      0.58507128
 2a2a22b 222      0.00000000     -0.00000000      0.00000001     -0.00000000      0.00000000      0.00000026     -0.33779104
 2ab222a 222      0.00000016     -0.00000170      0.00000038      0.52003088      0.00000082      0.00000001      0.00000000
 2ba222a 222     -0.00000016      0.00000170     -0.00000038     -0.52003087     -0.00000082      0.00000000     -0.00000000
 22b2a2a 222     -0.10507537      0.00004584     -0.00004929      0.00000084     -0.50930470      0.00000000      0.00000000
 202222a 222      0.50930470     -0.00002832     -0.00007117      0.00000001     -0.10507536      0.00000000      0.00000000
 222202a 222      0.50930469     -0.00002832     -0.00007117      0.00000001     -0.10507537      0.00000000      0.00000000
 22a2b2a 222      0.10507537     -0.00004584      0.00004929     -0.00000084      0.50930469     -0.00000000      0.00000000
 220222a 222     -0.50930466      0.00002832      0.00007117     -0.00000001      0.10507536     -0.00000000     -0.00000000
 222022a 222     -0.16365441     -0.00002554      0.00007827     -0.00000073      0.49360846     -0.00000000      0.00000000
 222b2aa 222      0.00000014     -0.00000147      0.00000033      0.45035993      0.00000071      0.16889554      0.00000013
 222a2ba 222     -0.00000014      0.00000147     -0.00000033     -0.45035992     -0.00000071      0.16889555      0.00000013
 2a222ba 222      0.00003255      0.45033807      0.00443970      0.00000147      0.00003339      0.00000073     -0.00001405
 2b222aa 222     -0.00003255     -0.45033806     -0.00443970     -0.00000147     -0.00003339      0.00000073     -0.00001405
 2222baa 222     -0.00005142      0.00443970     -0.45033806      0.00000034      0.00005459      0.00000013     -0.16889551
 2222aba 222      0.00005142     -0.00443970      0.45033806     -0.00000034     -0.00005459      0.00000013     -0.16889552
 222ba2a 222     -0.00003255     -0.45033806     -0.00443970     -0.00000147     -0.00003339     -0.00000073      0.00001405
 2a2b22a 222     -0.00005142      0.00443970     -0.45033805      0.00000034      0.00005459     -0.00000013      0.16889552
 222ab2a 222      0.00003255      0.45033805      0.00443970      0.00000147      0.00003339     -0.00000073      0.00001405
 2b2a22a 222      0.00005142     -0.00443970      0.45033805     -0.00000034     -0.00005459     -0.00000013      0.16889552
 222220a 222     -0.34565029      0.00005386     -0.00000710      0.00000072     -0.38853310      0.00000000      0.00000000
 2b22a2a 222      0.00000000      0.00000000     -0.00000000     -0.00000000     -0.00000000     -0.33779104     -0.00000026
 2a22b2a 222     -0.00000000      0.00000000      0.00000000      0.00000001     -0.00000000     -0.33779104     -0.00000026
 22ba22a 222     -0.00001879     -0.26000277     -0.00256326     -0.00000085     -0.00001928     -0.00000127      0.00002434
 22b22aa 222      0.00002969     -0.00256326      0.26000277     -0.00000020     -0.00003152      0.00000022     -0.29253564
 22a22ba 222     -0.00002969      0.00256326     -0.26000278      0.00000020      0.00003152      0.00000022     -0.29253563
 22ab22a 222      0.00001879      0.26000279      0.00256326      0.00000085      0.00001928     -0.00000127      0.00002434
 2ab2a22 222      0.00000000      0.00000000      0.00000000     -0.00000000     -0.00000000     -0.20834498     -0.00000016
 2a22220 222      0.00000005     -0.00000054      0.00000012      0.16488803      0.00000026      0.00000000     -0.00000000
 22222a0 222      0.00001883     -0.00162548      0.16488001     -0.00000013     -0.00001999     -0.00000000     -0.00000000
 222a220 222     -0.00001192     -0.16488000     -0.00162548     -0.00000054     -0.00001222     -0.00000000      0.00000000
 2222a20 222      0.03331662     -0.00001453      0.00001563     -0.00000027      0.16148704     -0.00000000      0.00000000
 22a2220 222     -0.16148703      0.00000898      0.00002257     -0.00000000      0.03331662     -0.00000000      0.00000000
 220a222 222      0.00000001      0.00012135      0.00000120      0.00000000      0.00000001     -0.00000059      0.00001126
 222a022 222      0.00000412      0.05696799      0.00056162      0.00000019      0.00000422      0.00000059     -0.00001126
 22022a2 222     -0.00000001      0.00000120     -0.00012135      0.00000000      0.00000001      0.00000010     -0.13532404
 22202a2 222     -0.00000650      0.00056162     -0.05696799      0.00000004      0.00000691      0.00000010     -0.13532404
 202a222 222      0.00000412      0.05696799      0.00056162      0.00000019      0.00000422      0.00000059     -0.00001126
 222a202 222      0.00000412      0.05696799      0.00056162      0.00000019      0.00000422     -0.00000059      0.00001126
 2a20222 222     -0.00000002      0.00000019     -0.00000004     -0.05697076     -0.00000009      0.13532404      0.00000010
 222baa2 222      0.00000001     -0.00000009      0.00000002      0.02842470      0.00000004      0.13532404      0.00000010
 22220a2 222     -0.00000650      0.00056162     -0.05696799      0.00000004      0.00000691     -0.00000010      0.13532404
 222aab2 222      0.00000001     -0.00000009      0.00000002      0.02842470      0.00000004     -0.13532404     -0.00000010
 20222a2 222     -0.00000650      0.00056162     -0.05696799      0.00000004      0.00000691     -0.00000010      0.13532404
 2a22202 222     -0.00000002      0.00000019     -0.00000004     -0.05697076     -0.00000009     -0.13532404     -0.00000010
 22aab22 222      0.00000356      0.04923063      0.00048534      0.00000016      0.00000365     -0.00000056      0.00001084
 2baa222 222     -0.00000562      0.00048534     -0.04923063      0.00000004      0.00000597      0.00000010     -0.13021562
 2ba22a2 222      0.00000356      0.04923063      0.00048534      0.00000016      0.00000365     -0.00000056      0.00001084
 22a2ba2 222     -0.00000562      0.00048534     -0.04923063      0.00000004      0.00000597      0.00000010     -0.13021562
 22aba22 222      0.00000000      0.00000000      0.00000000      0.00000000      0.00000000      0.00000045     -0.00000867
 2aab222 222      0.00000000      0.00000000     -0.00000000      0.00000000      0.00000000     -0.00000008      0.10417250
 2aa22b2 222     -0.00000000      0.00000000      0.00000000     -0.00000000      0.00000000      0.00000045     -0.00000867
 22a2ab2 222     -0.00000000      0.00000000     -0.00000000     -0.00000000      0.00000000     -0.00000008      0.10417249
 2ba2a22 222     -0.00000000     -0.00000000      0.00000000      0.00000000      0.00000000      0.10417249      0.00000008
 2aa2b22 222     -0.00000000     -0.00000000     -0.00000000     -0.00000000      0.00000000      0.10417249      0.00000008
 2a2ba22 222      0.00000649     -0.00056043      0.05684664     -0.00000004     -0.00000689      0.00000007     -0.09021603
 2a22ab2 222     -0.00000411     -0.05684664     -0.00056043     -0.00000019     -0.00000421     -0.00000039      0.00000751
 2a02222 222     -0.00000003      0.00000028     -0.00000006     -0.08539546     -0.00000013     -0.00000000     -0.00000000
 2202a22 222     -0.01725467      0.00000753     -0.00000809      0.00000014     -0.08363409      0.00000000      0.00000000
 22a2022 222      0.08363409     -0.00000465     -0.00001169      0.00000000     -0.01725467     -0.00000000      0.00000000
 20a2222 222      0.08363409     -0.00000465     -0.00001169      0.00000000     -0.01725467     -0.00000000      0.00000000
 2220a22 222      0.03670626      0.00000234     -0.00001214      0.00000009     -0.06574351      0.00000000     -0.00000000
 2222a02 222     -0.05972883      0.00000770      0.00000134      0.00000009     -0.04584785      0.00000000     -0.00000000
 222aba2 222     -0.00000002      0.00000019     -0.00000004     -0.05684940     -0.00000009     -0.00000000      0.00000000
 2b2a2a2 222     -0.01148676      0.00000501     -0.00000539      0.00000009     -0.05567682      0.00000000     -0.00000000
 2a2b2a2 222      0.05396093     -0.00000519     -0.00000404     -0.00000005      0.01789058      0.00000000     -0.00000000
 22ba2a2 222     -0.00000000      0.00000000     -0.00000000      0.00000000      0.00000000      0.05208625      0.00000004
 
 Energy:       -109.33009136   -109.33009136   -109.33009136   -109.33009136   -109.33009136   -109.30501088   -109.30501088

 State:               15
 22a2a2b 222      0.00000000
 2aa222b 222     -0.00000000
 222a2ab 222      0.00000146
 2a222ab 222     -0.33779102
 2a22a2b 222     -0.00000293
 2222aab 222      0.00002811
 222aa2b 222      0.33779104
 22aa22b 222      0.58507128
 22a22ab 222      0.00004868
 2a2a22b 222     -0.00002811
 2ab222a 222     -0.00000000
 2ba222a 222      0.00000000
 22b2a2a 222     -0.00000000
 202222a 222      0.00000000
 222202a 222     -0.00000000
 22a2b2a 222     -0.00000000
 220222a 222     -0.00000000
 222022a 222      0.00000000
 222b2aa 222     -0.00000073
 222a2ba 222     -0.00000073
 2a222ba 222      0.16889551
 2b222aa 222      0.16889551
 2222baa 222     -0.00001405
 2222aba 222     -0.00001405
 222ba2a 222     -0.16889552
 2a2b22a 222      0.00001405
 222ab2a 222     -0.16889552
 2b2a22a 222      0.00001405
 222220a 222      0.00000000
 2b22a2a 222      0.00000146
 2a22b2a 222      0.00000146
 22ba22a 222     -0.29253565
 22b22aa 222     -0.00002434
 22a22ba 222     -0.00002434
 22ab22a 222     -0.29253563
 2ab2a22 222      0.00000090
 2a22220 222      0.00000000
 22222a0 222     -0.00000000
 222a220 222     -0.00000000
 2222a20 222     -0.00000000
 22a2220 222     -0.00000000
 220a222 222     -0.13532405
 222a022 222      0.13532404
 22022a2 222     -0.00001126
 22202a2 222     -0.00001126
 202a222 222      0.13532404
 222a202 222     -0.13532404
 2a20222 222     -0.00000059
 222baa2 222     -0.00000059
 22220a2 222      0.00001126
 222aab2 222      0.00000059
 20222a2 222      0.00001126
 2a22202 222      0.00000059
 22aab22 222     -0.13021562
 2baa222 222     -0.00001084
 2ba22a2 222     -0.13021562
 22a2ba2 222     -0.00001084
 22aba22 222      0.10417250
 2aab222 222      0.00000867
 2aa22b2 222      0.10417249
 22a2ab2 222      0.00000867
 2ba2a22 222     -0.00000045
 2aa2b22 222     -0.00000045
 2a2ba22 222     -0.00000751
 2a22ab2 222     -0.09021602
 2a02222 222      0.00000000
 2202a22 222      0.00000000
 22a2022 222      0.00000000
 20a2222 222      0.00000000
 2220a22 222     -0.00000000
 2222a02 222      0.00000000
 222aba2 222      0.00000000
 2b2a2a2 222     -0.00000000
 2a2b2a2 222      0.00000000
 22ba2a2 222     -0.00000023
 
 Energy:       -109.30501087
 


 **********************************************************************************************************************************
 DATASETS  * FILE   NREC   LENGTH (MB)   RECORD NAMES
              1      21       32.08       500      610      700      900      950      970     1000      129      960     1100   
                                          VAR    BASINP    GEOM    SYMINP    ZMAT    AOBASIS   BASIS     P2S    ABASIS      S 
                                         1400     1410     1420     1200     1210     1080     1700     1600     1650     1380   
                                           T        V       ECP      H0       H01     AOSYM    OPER      SMH    MOLCAS    JKOP   
                                         1700(1)
                                         OPER   

              2       4        0.52       700     1000      520     2140   
                                         GEOM     BASIS   MCVARS    MCSCF   

 PROGRAMS   *        TOTAL     MULTI       INT
 CPU TIMES  *         3.47      2.77      0.49
 REAL TIME  *         4.47 SEC
 DISK USED  *        32.69 MB (local),      447.41 MB (total)
 SF USED    *        12.10 MB
 GA USED    *         0.00 MB       (max)       0.00 MB       (current)
 **********************************************************************************************************************************

 Energies and LL values

         ENERGY      LL
    -109.3786822   12.0
    -109.3786822   12.0
    -109.3786822   12.0
    -109.3786822   12.0
    -109.3786822   12.0
    -109.3786822   12.0
    -109.3786822   12.0
    -109.3244809    2.0
    -109.3244809    2.0
    -109.3244809    2.0
    -109.3032835   12.0
    -109.3032835   12.0
    -109.3032835   12.0
    -109.3032835   12.0
    -109.3032835   12.0
    -109.3032835   12.0
    -109.3032835   12.0
    -109.3487556   12.0
    -109.3487556   12.0
    -109.3487556   12.0
    -109.3487556   12.0
    -109.3487556   12.0
    -109.3487556   12.0
    -109.3487556   12.0
    -109.3300914    6.0
    -109.3300914    6.0
    -109.3300914    6.0
    -109.3300914    6.0
    -109.3300914    6.0
    -109.3050109    2.0
    -109.3050109    2.0
    -109.3050109    2.0
                                                  


 PROGRAM * CI (Multireference internally contracted CI)     Authors: H.-J. Werner, P.J. Knowles, 1987


 Convergence thresholds:  THRVAR = 1.00D-08  THRDEN = 1.00D-06

 Number of optimized states: 17  Roots:   1   2   3   4   5   6   7   8   9  10  11  12  13  14  15  16  17
 Number of reference states: 17  Roots:   1   2   3   4   5   6   7   8   9  10  11  12  13  14  15  16  17

 Reference symmetry:                   1   Quartet 
 Number of electrons:                 17
 Maximum number of shells:             3
 Maximum number of spin couplings:    14

 Reference space:       56 conf       56 CSFs
 N elec internal:      120 conf      120 CSFs
 N-1 el internal:      570 conf     1200 CSFs
 N-2 el internal:     1260 conf     7056 CSFs

 Number of electrons in valence space:                     17
 Maximum number of open shell orbitals in reference space:  3
 Maximum number of open shell orbitals in internal spaces:  7


 Number of active  orbitals:       10 (   7   3 )
 Number of external orbitals:      87 (  48  39 )

 Molecular orbitals read from record     2140.2  Type=MCSCF/NATURAL (state averaged)

 Valence orbitals related to previous ones by unitary transformation. Operators transformed.


 Number of p-space configurations:  20
 Internal expansion vectors linearly dependent.
 Smallest eigenvalue of S: -0.6855619E-15. Vector removed
 Internal expansion vectors linearly dependent.
 Smallest eigenvalue of S: -0.7649157E-15. Vector removed
 Internal expansion vectors linearly dependent.
 Smallest eigenvalue of S: -0.3211156E-15. Vector removed
 Internal expansion vectors linearly dependent.
 Smallest eigenvalue of S: -0.5408052E-15. Vector removed

 Reference wavefunction optimized for reference space (refopt=1)

 State     Reference Energy 
     1      -109.37868221
     2      -109.37868221
     3      -109.37868221
     4      -109.37868221
     5      -109.37868221
     6      -109.37868221
     7      -109.37868221
     8      -109.32448088
     9      -109.32448088
    10      -109.32448088
    11      -109.30328348
    12      -109.30328348
    13      -109.30328348
    14      -109.30328348
    15      -109.30328348
    16      -109.30328348
    17      -109.30328348

 Number of blocks in overlap matrix:    70   Smallest eigenvalue:  0.12D-03
 Number of N-2 electron functions:    1575
 Number of N-1 electron functions:    1200

 Number of internal configurations:                   56
 Number of singly external configurations:         52056
 Number of doubly external configurations:       2985228
 Total number of contracted configurations:      3037340
 Total number of uncontracted configurations:   13328522

 Diagonal Coupling coefficients finished.               Storage:    871132 words, CPU-Time:      0.33 seconds.
 Energy denominators for pairs finished in 1 passes.    Storage:    564595 words, CPU-time:      0.06 seconds.

  ITER. STATE  ROOT     SQ.NORM     CORR.ENERGY   TOTAL ENERGY   ENERGY CHANGE       DEN1      VAR(S)    VAR(P)      TIME
    1     1     1     1.00000000     0.00000000  -109.37868221     0.00000000    -0.67898576  0.30D-01  0.99D-01     1.22
    1     2     2     1.00000000     0.00000000  -109.37868221    -0.00000000    -0.67988712  0.30D-01  0.10D+00     1.22
    1     3     3     1.00000000     0.00000000  -109.37868221     0.00000000    -0.68122551  0.30D-01  0.10D+00     1.22
    1     4     4     1.00000000     0.00000000  -109.37868221    -0.00000000    -0.68204364  0.30D-01  0.10D+00     1.22
    1     5     5     1.00000000     0.00000000  -109.37868221    -0.00000000    -0.67947183  0.30D-01  0.10D+00     1.22
    1     6     6     1.00000000     0.00000000  -109.37868221     0.00000000    -0.67997770  0.30D-01  0.10D+00     1.22
    1     7     7     1.00000000     0.00000000  -109.37868221     0.00000000    -0.67869786  0.30D-01  0.99D-01     1.22
    1     8     8     1.00000000     0.00000000  -109.32448088     0.00000000    -0.69272370  0.37D-01  0.10D+00     1.22
    1     9     9     1.00000000     0.00000000  -109.32448088     0.00000000    -0.69265386  0.38D-01  0.10D+00     1.22
    1    10    10     1.00000000     0.00000000  -109.32448088     0.00000000    -0.69255528  0.38D-01  0.10D+00     1.22
    1    11    11     1.00000000     0.00000000  -109.30328348     0.00000000    -0.68410413  0.71D-01  0.87D-01     1.22
    1    12    12     1.00000000     0.00000000  -109.30328348    -0.00000000    -0.68531401  0.72D-01  0.87D-01     1.22
    1    13    13     1.00000000     0.00000000  -109.30328348     0.00000000    -0.68198882  0.71D-01  0.86D-01     1.22
    1    14    14     1.00000000     0.00000000  -109.30328348    -0.00000000    -0.68381755  0.72D-01  0.86D-01     1.22
    1    15    15     1.00000000     0.00000000  -109.30328348    -0.00000000    -0.68246548  0.71D-01  0.86D-01     1.22
    1    16    16     1.00000000     0.00000000  -109.30328348     0.00000000    -0.68190730  0.70D-01  0.86D-01     1.22
    1    17    17     1.00000000     0.00000000  -109.30328348    -0.00000000    -0.68347704  0.70D-01  0.86D-01     1.22
    2     1     1     1.08864780    -0.56229916  -109.94098138    -0.56229916    -0.02062574  0.21D-02  0.26D-02   152.80
    2     2     2     1.08859443    -0.56206720  -109.94074942    -0.56206720    -0.02072671  0.21D-02  0.26D-02   152.80
    2     3     3     1.08846049    -0.56179631  -109.94047852    -0.56179631    -0.02070892  0.20D-02  0.26D-02   152.80
    2     4     4     1.08842582    -0.56176430  -109.94044651    -0.56176430    -0.02068237  0.20D-02  0.26D-02   152.80
    2     5     5     1.08837617    -0.56148290  -109.94016511    -0.56148290    -0.02079115  0.20D-02  0.26D-02   152.80
    2     6     6     1.08837188    -0.56141612  -109.94009833    -0.56141612    -0.02082555  0.21D-02  0.26D-02   152.80
    2     7     7     1.08833686    -0.56132690  -109.94000911    -0.56132690    -0.02082210  0.20D-02  0.26D-02   152.80
    2     8     8     1.09495360    -0.57167322  -109.89615410    -0.57167322    -0.02130060  0.28D-02  0.27D-02   152.80
    2     9     9     1.09501135    -0.57151430  -109.89599518    -0.57151430    -0.02146462  0.29D-02  0.27D-02   152.80
    2    10    10     1.09498067    -0.57147962  -109.89596050    -0.57147962    -0.02144920  0.29D-02  0.27D-02   152.80
    2    11    11     1.10655767    -0.56297509  -109.86625857    -0.56297509    -0.02656048  0.37D-02  0.33D-02   152.80
    2    12    12     1.10646012    -0.56285518  -109.86613867    -0.56285518    -0.02657981  0.37D-02  0.33D-02   152.80
    2    13    13     1.10708209    -0.56262982  -109.86591331    -0.56262982    -0.02697451  0.39D-02  0.33D-02   152.80
    2    14    14     1.10637176    -0.56235865  -109.86564213    -0.56235865    -0.02676229  0.37D-02  0.33D-02   152.80
    2    15    15     1.10636769    -0.56233934  -109.86562282    -0.56233934    -0.02677565  0.37D-02  0.33D-02   152.80
    2    16    16     1.10626271    -0.56201007  -109.86529355    -0.56201007    -0.02681069  0.37D-02  0.33D-02   152.80
    2    17    17     1.10657361    -0.56191088  -109.86519436    -0.56191088    -0.02693279  0.39D-02  0.32D-02   152.80
    3     1     1     1.08578688    -0.58380246  -109.96248467    -0.02150329    -0.00147416  0.91D-04  0.24D-03   305.84
    3     2     2     1.08573408    -0.58375327  -109.96243548    -0.02168606    -0.00150663  0.93D-04  0.24D-03   305.84
    3     3     3     1.08557490    -0.58361029  -109.96229250    -0.02181398    -0.00155848  0.92D-04  0.25D-03   305.84
    3     4     4     1.08553985    -0.58357647  -109.96225868    -0.02181217    -0.00156499  0.92D-04  0.24D-03   305.84
    3     5     5     1.08546440    -0.58348466  -109.96216687    -0.02200176    -0.00161166  0.95D-04  0.25D-03   305.84
    3     6     6     1.08545550    -0.58347191  -109.96215412    -0.02205579    -0.00162311  0.97D-04  0.25D-03   305.84
    3     7     7     1.08540542    -0.58341305  -109.96209526    -0.02208614    -0.00164047  0.96D-04  0.25D-03   305.84
    3     8     8     1.09020360    -0.59372665  -109.91820753    -0.02205343    -0.00164959  0.15D-03  0.25D-03   305.84
    3     9     9     1.09020480    -0.59369238  -109.91817326    -0.02217807    -0.00167885  0.16D-03  0.26D-03   305.84
    3    10    10     1.09016939    -0.59365907  -109.91813994    -0.02217945    -0.00168662  0.16D-03  0.26D-03   305.84
    3    11    11     1.09630471    -0.58988542  -109.89316890    -0.02691033    -0.00255181  0.16D-03  0.44D-03   305.84
    3    12    12     1.09615537    -0.58980100  -109.89308448    -0.02694582    -0.00257034  0.16D-03  0.44D-03   305.84
    3    13    13     1.09608386    -0.58967498  -109.89295846    -0.02704515    -0.00262893  0.16D-03  0.44D-03   305.84
    3    14    14     1.09608676    -0.58963443  -109.89291791    -0.02727578    -0.00258598  0.16D-03  0.44D-03   305.84
    3    15    15     1.09583452    -0.58952756  -109.89281104    -0.02718822    -0.00262453  0.16D-03  0.44D-03   305.84
    3    16    16     1.09566284    -0.58933264  -109.89261612    -0.02732257    -0.00270024  0.17D-03  0.44D-03   305.84
    3    17    17     1.09536198    -0.58903689  -109.89232037    -0.02712601    -0.00267234  0.17D-03  0.44D-03   305.84
    4     1     1     1.08873273    -0.58586146  -109.96454367    -0.00205900    -0.00024930  0.15D-04  0.41D-04   458.92
[...]
   25    8.1  1.5  0.5   0.000%   0.059%   0.000%   0.000%   0.000%   0.078%   0.000%   0.039%   0.001%   0.000%
   26    9.1  1.5  0.5   0.000%   0.000%   0.000%   0.000%   0.020%   0.000%   0.156%   0.000%   0.000%   0.009%
   27   10.1  1.5  0.5   0.000%   0.059%   0.000%   0.000%   0.000%   0.079%   0.000%   0.039%   0.003%   0.000%
   28   11.1  1.5  0.5   0.003%   0.000%   1.216%   0.001%   0.012%   0.000%   0.000%   0.000%   0.002%   4.242%
   29   12.1  1.5  0.5   0.000%   0.015%   0.000%   0.011%   0.000%   0.043%   0.000%   0.000%   2.033%   0.001%
   30   13.1  1.5  0.5   0.000%   0.000%   0.001%   3.172%   0.000%   0.003%   0.000%   0.000%   0.098%   0.000%
   31   14.1  1.5  0.5   0.016%   0.000%   3.589%   0.002%   0.000%   0.000%   0.000%   0.000%   0.000%   0.099%
   32   15.1  1.5  0.5   0.000%   0.009%   0.000%   0.621%   0.000%   0.042%   0.000%   0.000%   0.040%   0.000%
   33   16.1  1.5  0.5   0.001%   0.000%   1.072%   0.001%   0.055%   0.000%   0.000%   0.000%   0.007%  12.529%
   34   17.1  1.5  0.5   0.000%   0.027%   0.024%  50.756%   0.000%   0.004%   0.000%   0.000%   0.006%   0.000%
   35    1.1  1.5 -0.5   0.000%   0.025%   0.000%   0.000%   0.000%   0.000%   0.000%   0.000%   0.000%   0.000%
   36    2.1  1.5 -0.5   0.000%   0.026%   0.000%   0.000%   0.000%   0.000%   0.000%   0.000%   0.000%   0.000%
   37    3.1  1.5 -0.5   0.005%   0.000%   0.000%   0.000%   0.015%   0.000%   0.000%   0.000%   0.000%   0.000%
   38    4.1  1.5 -0.5   0.006%   0.000%   0.000%   0.000%   0.018%   0.000%   0.000%   0.000%   0.000%   0.000%
   39    5.1  1.5 -0.5   0.005%   0.000%   0.000%   0.000%   0.016%   0.000%   0.000%   0.000%   0.000%   0.000%
   40    6.1  1.5 -0.5   0.004%   0.000%   0.000%   0.000%   0.013%   0.000%   0.000%   0.000%   0.000%   0.000%
   41    7.1  1.5 -0.5   0.000%   0.000%   0.000%   0.000%   0.000%   0.046%   0.000%   0.000%   0.000%   0.000%
   42    8.1  1.5 -0.5   0.059%   0.000%   0.000%   0.000%   0.078%   0.000%   0.039%   0.000%   0.000%   0.001%
   43    9.1  1.5 -0.5   0.000%   0.000%   0.000%   0.000%   0.000%   0.020%   0.000%   0.156%   0.009%   0.000%
   44   10.1  1.5 -0.5   0.059%   0.000%   0.000%   0.000%   0.079%   0.000%   0.039%   0.000%   0.000%   0.003%
   45   11.1  1.5 -0.5   0.000%   0.003%   0.001%   1.216%   0.000%   0.012%   0.000%   0.000%   4.242%   0.002%
   46   12.1  1.5 -0.5   0.015%   0.000%   0.011%   0.000%   0.043%   0.000%   0.000%   0.000%   0.001%   2.033%
   47   13.1  1.5 -0.5   0.000%   0.000%   3.172%   0.001%   0.003%   0.000%   0.000%   0.000%   0.000%   0.098%
   48   14.1  1.5 -0.5   0.000%   0.016%   0.002%   3.589%   0.000%   0.000%   0.000%   0.000%   0.099%   0.000%
   49   15.1  1.5 -0.5   0.009%   0.000%   0.621%   0.000%   0.042%   0.000%   0.000%   0.000%   0.000%   0.040%
   50   16.1  1.5 -0.5   0.000%   0.001%   0.001%   1.072%   0.000%   0.055%   0.000%   0.000%  12.529%   0.007%
   51   17.1  1.5 -0.5   0.027%   0.000%  50.756%   0.024%   0.004%   0.000%   0.000%   0.000%   0.000%   0.006%
   52    1.1  1.5 -1.5   0.000%   0.000%   0.000%   0.000%   0.026%   0.000%   0.000%   0.000%   0.000%   0.000%
   53    2.1  1.5 -1.5   0.000%   0.000%   0.000%   0.000%   0.026%   0.000%   0.000%   0.000%   0.000%   0.000%
   54    3.1  1.5 -1.5   0.000%   0.027%   0.000%   0.000%   0.000%   0.005%   0.000%   0.000%   0.000%   0.000%
   55    4.1  1.5 -1.5   0.000%   0.022%   0.000%   0.000%   0.000%   0.006%   0.000%   0.000%   0.000%   0.000%
   56    5.1  1.5 -1.5   0.000%   0.025%   0.000%   0.000%   0.000%   0.005%   0.000%   0.000%   0.000%   0.000%
   57    6.1  1.5 -1.5   0.000%   0.030%   0.000%   0.000%   0.000%   0.004%   0.000%   0.000%   0.000%   0.000%
   58    7.1  1.5 -1.5   0.005%   0.000%   0.000%   0.000%   0.000%   0.000%   0.000%   0.000%   0.000%   0.000%
   59    8.1  1.5 -1.5   0.000%   0.000%   0.000%   0.000%   0.000%   0.059%   0.000%   0.117%   0.001%   0.000%
   60    9.1  1.5 -1.5   0.176%   0.000%   0.000%   0.000%   0.000%   0.000%   0.000%   0.000%   0.000%   0.000%
   61   10.1  1.5 -1.5   0.000%   0.000%   0.000%   0.000%   0.000%   0.059%   0.000%   0.117%   0.001%   0.000%
   62   11.1  1.5 -1.5   0.024%   0.000%   4.878%   0.002%   0.030%   0.000%   0.000%   0.000%   0.008%  14.008%
   63   12.1  1.5 -1.5   0.000%   0.016%   0.003%   5.476%   0.000%   0.016%   0.000%   0.000%  16.660%   0.010%
   64   13.1  1.5 -1.5   0.000%   0.086%   0.000%   0.482%   0.000%   0.001%   0.000%   0.000%   2.653%   0.002%
   65   14.1  1.5 -1.5   0.005%   0.000%  13.024%   0.006%   0.032%   0.000%   0.000%   0.000%   0.012%  20.891%
   66   15.1  1.5 -1.5   0.000%   0.014%   0.006%  12.784%   0.000%   0.010%   0.000%   0.000%  18.967%   0.011%
   67   16.1  1.5 -1.5   0.031%   0.000%   2.224%   0.001%   0.008%   0.000%   0.000%   0.000%   0.004%   7.455%
   68   17.1  1.5 -1.5   0.000%   0.089%   0.000%   0.603%   0.000%   0.000%   0.000%   0.000%   0.040%   0.000%
   69    1.1  0.5  0.5   0.000%   0.000%   0.001%   0.000%   0.000%   0.000%   0.000%   0.000%   0.000%   0.000%
   70    2.1  0.5  0.5   0.000%   0.000%   0.000%   0.003%   0.000%   0.000%   0.000%   0.000%   0.000%   0.000%
   71    3.1  0.5  0.5   0.000%   0.000%   0.000%   0.001%   0.000%   0.000%   0.000%   0.000%   0.000%   0.000%
   72    4.1  0.5  0.5   0.000%   0.000%   0.000%   0.000%   0.000%   0.000%   0.000%   0.000%   0.000%   0.000%
   73    5.1  0.5  0.5   0.000%   0.000%   0.000%   0.000%   0.000%   0.000%   0.000%   0.000%   0.000%   0.000%
   74    6.1  0.5  0.5   0.000%   0.000%   0.000%   0.000%   0.000%   0.000%   0.000%   0.000%   0.000%   0.000%
   75    7.1  0.5  0.5   0.000%   0.000%   0.001%   0.000%   0.000%   0.000%   0.000%   0.000%   0.000%   0.000%
   76    8.1  0.5  0.5   0.458%   0.000%   0.000%   0.000%   2.814%   0.000%   0.000%   0.000%   0.000%   0.097%
   77    9.1  0.5  0.5   0.000%   0.813%   0.000%   0.000%   0.000%   2.458%   0.000%   0.000%   0.025%   0.000%
   78   10.1  0.5  0.5   0.000%   0.822%   0.000%   0.000%   0.000%   2.450%   0.000%   0.000%   0.059%   0.000%
   79   11.1  0.5  0.5   2.813%   0.000%   0.001%   0.000%   0.459%   0.000%   0.000%   0.000%   0.000%   0.023%
   80   12.1  0.5  0.5   3.270%   0.000%   0.001%   0.000%   0.000%   0.000%   0.000%   0.000%   0.000%   0.000%
   81   13.1  0.5  0.5   0.001%  45.589%   0.000%   0.013%   0.000%  15.158%   0.005%  33.114%   0.000%   0.000%
   82   14.1  0.5  0.5   0.001%  45.421%   0.000%   0.019%   0.000%  15.318%   0.005%  33.116%   0.000%   0.000%
   83   15.1  0.5  0.5   0.000%   0.000%   0.001%   0.000%  60.612%   0.000%  33.287%   0.005%   0.000%   0.000%
   84    1.1  0.5 -0.5   0.000%   0.000%   0.000%   0.001%   0.000%   0.000%   0.000%   0.000%   0.000%   0.000%
   85    2.1  0.5 -0.5   0.000%   0.000%   0.003%   0.000%   0.000%   0.000%   0.000%   0.000%   0.000%   0.000%
   86    3.1  0.5 -0.5   0.000%   0.000%   0.001%   0.000%   0.000%   0.000%   0.000%   0.000%   0.000%   0.000%
   87    4.1  0.5 -0.5   0.000%   0.000%   0.000%   0.000%   0.000%   0.000%   0.000%   0.000%   0.000%   0.000%
   88    5.1  0.5 -0.5   0.000%   0.000%   0.000%   0.000%   0.000%   0.000%   0.000%   0.000%   0.000%   0.000%
   89    6.1  0.5 -0.5   0.000%   0.000%   0.000%   0.000%   0.000%   0.000%   0.000%   0.000%   0.000%   0.000%
   90    7.1  0.5 -0.5   0.000%   0.000%   0.000%   0.001%   0.000%   0.000%   0.000%   0.000%   0.000%   0.000%
   91    8.1  0.5 -0.5   0.000%   0.458%   0.000%   0.000%   0.000%   2.814%   0.000%   0.000%   0.097%   0.000%
   92    9.1  0.5 -0.5   0.813%   0.000%   0.000%   0.000%   2.458%   0.000%   0.000%   0.000%   0.000%   0.025%
   93   10.1  0.5 -0.5   0.822%   0.000%   0.000%   0.000%   2.450%   0.000%   0.000%   0.000%   0.000%   0.059%
   94   11.1  0.5 -0.5   0.000%   2.813%   0.000%   0.001%   0.000%   0.459%   0.000%   0.000%   0.023%   0.000%
   95   12.1  0.5 -0.5   0.000%   3.270%   0.000%   0.001%   0.000%   0.000%   0.000%   0.000%   0.000%   0.000%
   96   13.1  0.5 -0.5  45.589%   0.001%   0.013%   0.000%  15.158%   0.000%  33.114%   0.005%   0.000%   0.000%
   97   14.1  0.5 -0.5  45.421%   0.001%   0.019%   0.000%  15.318%   0.000%  33.116%   0.005%   0.000%   0.000%
   98   15.1  0.5 -0.5   0.000%   0.000%   0.000%   0.001%   0.000%  60.612%   0.005%  33.287%   0.000%   0.000%

   Nr   State  S   Sz      91       92       93       94       95       96       97       98

    1    1.1  1.5  1.5   0.000%   0.000%   0.000%   0.000%   0.001%   0.000%   0.000%   0.000%
    2    2.1  1.5  1.5   0.000%   0.000%   0.000%   0.000%   0.001%   0.000%   0.000%   0.000%
    3    3.1  1.5  1.5   0.000%   0.000%   0.000%   0.000%   0.000%   0.000%   0.000%   0.001%
    4    4.1  1.5  1.5   0.000%   0.000%   0.000%   0.000%   0.000%   0.000%   0.000%   0.001%
    5    5.1  1.5  1.5   0.000%   0.000%   0.000%   0.000%   0.000%   0.000%   0.000%   0.001%
    6    6.1  1.5  1.5   0.000%   0.000%   0.000%   0.000%   0.000%   0.000%   0.000%   0.001%
    7    7.1  1.5  1.5   0.000%   0.000%   0.000%   0.000%   0.000%   0.000%   0.000%   0.000%
    8    8.1  1.5  1.5   0.001%   0.000%   0.006%   0.001%   0.000%   0.000%   0.000%   0.000%
    9    9.1  1.5  1.5   0.000%   0.006%   0.000%   0.000%   0.000%   0.000%   0.001%   0.000%
   10   10.1  1.5  1.5   0.000%   0.000%   0.006%   0.001%   0.000%   0.000%   0.000%   0.000%
   11   11.1  1.5  1.5   0.000%   7.863%   0.053%   0.309%  10.811%   0.000%   1.097%   0.000%
   12   12.1  1.5  1.5   1.132%   0.000%   5.356%   0.925%   0.000%   4.809%   0.000%   2.192%
   13   13.1  1.5  1.5  13.770%   0.000%   0.066%   0.011%   0.000%   1.048%   0.000%  26.058%
   14   14.1  1.5  1.5   0.000%   0.465%   0.002%   0.011%  14.097%   0.000%   0.108%   0.000%
   15   15.1  1.5  1.5   0.187%   0.000%   4.378%   0.756%   0.000%   5.857%   0.000%   0.584%
   16   16.1  1.5  1.5   0.001%  16.464%   0.128%   0.743%   3.308%   0.000%   1.825%   0.000%
   17   17.1  1.5  1.5  16.056%   0.001%   0.187%   0.032%   0.000%   0.001%   0.000%  27.701%
   18    1.1  1.5  0.5   0.000%   0.000%   0.000%   0.000%   0.000%   0.000%   0.000%   0.001%
   19    2.1  1.5  0.5   0.000%   0.000%   0.000%   0.000%   0.000%   0.000%   0.000%   0.001%
   20    3.1  1.5  0.5   0.000%   0.000%   0.000%   0.000%   0.001%   0.000%   0.000%   0.000%
   21    4.1  1.5  0.5   0.000%   0.000%   0.000%   0.000%   0.001%   0.000%   0.000%   0.000%
   22    5.1  1.5  0.5   0.000%   0.000%   0.000%   0.000%   0.001%   0.000%   0.000%   0.000%
   23    6.1  1.5  0.5   0.000%   0.000%   0.000%   0.000%   0.001%   0.000%   0.000%   0.000%
   24    7.1  1.5  0.5   0.000%   0.000%   0.000%   0.000%   0.000%   0.002%   0.000%   0.000%
   25    8.1  1.5  0.5   0.000%   0.005%   0.000%   0.000%   0.001%   0.000%   0.000%   0.000%
   26    9.1  1.5  0.5   0.000%   0.000%   0.000%   0.000%   0.000%   0.000%   0.000%   0.000%
   27   10.1  1.5  0.5   0.000%   0.003%   0.000%   0.000%   0.001%   0.000%   0.001%   0.000%
   28   11.1  1.5  0.5   0.278%   0.000%  13.629%   2.353%   0.000%   3.881%   0.000%  12.614%
   29   12.1  1.5  0.5   0.001%  16.517%   0.018%   0.104%  17.592%   0.000%   3.815%   0.000%
   30   13.1  1.5  0.5   0.000%   0.026%   3.842%  22.249%   1.082%   0.000%   0.235%   0.000%
   31   14.1  1.5  0.5   7.558%   0.000%  11.705%   2.021%   0.000%   0.108%   0.000%  14.085%
   32   15.1  1.5  0.5   0.001%  18.432%   0.000%   0.001%  14.744%   0.000%   7.222%   0.000%
   33   16.1  1.5  0.5   0.898%   0.000%   3.866%   0.667%   0.000%  21.607%   0.000%   1.670%
   34   17.1  1.5  0.5   0.000%   0.128%   3.882%  22.484%   0.509%   0.000%   0.249%   0.000%
   35    1.1  1.5 -0.5   0.000%   0.000%   0.000%   0.000%   0.000%   0.000%   0.001%   0.000%
   36    2.1  1.5 -0.5   0.000%   0.000%   0.000%   0.000%   0.000%   0.000%   0.001%   0.000%
   37    3.1  1.5 -0.5   0.000%   0.000%   0.000%   0.000%   0.000%   0.001%   0.000%   0.000%
   38    4.1  1.5 -0.5   0.000%   0.000%   0.000%   0.000%   0.000%   0.001%   0.000%   0.000%
   39    5.1  1.5 -0.5   0.000%   0.000%   0.000%   0.000%   0.000%   0.001%   0.000%   0.000%
   40    6.1  1.5 -0.5   0.000%   0.000%   0.000%   0.000%   0.000%   0.001%   0.000%   0.000%
   41    7.1  1.5 -0.5   0.000%   0.000%   0.000%   0.000%   0.002%   0.000%   0.000%   0.000%
   42    8.1  1.5 -0.5   0.005%   0.000%   0.000%   0.000%   0.000%   0.001%   0.000%   0.000%
   43    9.1  1.5 -0.5   0.000%   0.000%   0.000%   0.000%   0.000%   0.000%   0.000%   0.000%
   44   10.1  1.5 -0.5   0.003%   0.000%   0.000%   0.000%   0.000%   0.001%   0.000%   0.001%
   45   11.1  1.5 -0.5   0.000%   0.278%   2.353%  13.629%   3.881%   0.000%  12.614%   0.000%
   46   12.1  1.5 -0.5  16.517%   0.001%   0.104%   0.018%   0.000%  17.592%   0.000%   3.815%
   47   13.1  1.5 -0.5   0.026%   0.000%  22.249%   3.842%   0.000%   1.082%   0.000%   0.235%
   48   14.1  1.5 -0.5   0.000%   7.558%   2.021%  11.705%   0.108%   0.000%  14.085%   0.000%
   49   15.1  1.5 -0.5  18.432%   0.001%   0.001%   0.000%   0.000%  14.744%   0.000%   7.222%
   50   16.1  1.5 -0.5   0.000%   0.898%   0.667%   3.866%  21.607%   0.000%   1.670%   0.000%
   51   17.1  1.5 -0.5   0.128%   0.000%  22.484%   3.882%   0.000%   0.509%   0.000%   0.249%
   52    1.1  1.5 -1.5   0.000%   0.000%   0.000%   0.000%   0.000%   0.001%   0.000%   0.000%
   53    2.1  1.5 -1.5   0.000%   0.000%   0.000%   0.000%   0.000%   0.001%   0.000%   0.000%
   54    3.1  1.5 -1.5   0.000%   0.000%   0.000%   0.000%   0.000%   0.000%   0.001%   0.000%
   55    4.1  1.5 -1.5   0.000%   0.000%   0.000%   0.000%   0.000%   0.000%   0.001%   0.000%
   56    5.1  1.5 -1.5   0.000%   0.000%   0.000%   0.000%   0.000%   0.000%   0.001%   0.000%
   57    6.1  1.5 -1.5   0.000%   0.000%   0.000%   0.000%   0.000%   0.000%   0.001%   0.000%
   58    7.1  1.5 -1.5   0.000%   0.000%   0.000%   0.000%   0.000%   0.000%   0.000%   0.000%
   59    8.1  1.5 -1.5   0.000%   0.001%   0.001%   0.006%   0.000%   0.000%   0.000%   0.000%
   60    9.1  1.5 -1.5   0.006%   0.000%   0.000%   0.000%   0.000%   0.000%   0.000%   0.001%
   61   10.1  1.5 -1.5   0.000%   0.000%   0.001%   0.006%   0.000%   0.000%   0.000%   0.000%
   62   11.1  1.5 -1.5   7.863%   0.000%   0.309%   0.053%   0.000%  10.811%   0.000%   1.097%
   63   12.1  1.5 -1.5   0.000%   1.132%   0.925%   5.356%   4.809%   0.000%   2.192%   0.000%
   64   13.1  1.5 -1.5   0.000%  13.770%   0.011%   0.066%   1.048%   0.000%  26.058%   0.000%
   65   14.1  1.5 -1.5   0.465%   0.000%   0.011%   0.002%   0.000%  14.097%   0.000%   0.108%
   66   15.1  1.5 -1.5   0.000%   0.187%   0.756%   4.378%   5.857%   0.000%   0.584%   0.000%
   67   16.1  1.5 -1.5  16.464%   0.001%   0.743%   0.128%   0.000%   3.308%   0.000%   1.825%
   68   17.1  1.5 -1.5   0.001%  16.056%   0.032%   0.187%   0.001%   0.000%  27.701%   0.000%
   69    1.1  0.5  0.5   0.000%   0.000%   0.000%   0.000%   0.000%   0.000%   0.000%   0.000%
   70    2.1  0.5  0.5   0.000%   0.000%   0.000%   0.000%   0.000%   0.000%   0.000%   0.000%
   71    3.1  0.5  0.5   0.000%   0.000%   0.000%   0.000%   0.000%   0.000%   0.000%   0.000%
   72    4.1  0.5  0.5   0.000%   0.000%   0.000%   0.000%   0.000%   0.000%   0.000%   0.000%
   73    5.1  0.5  0.5   0.000%   0.000%   0.000%   0.000%   0.000%   0.000%   0.000%   0.000%
   74    6.1  0.5  0.5   0.000%   0.000%   0.000%   0.000%   0.000%   0.000%   0.000%   0.000%
   75    7.1  0.5  0.5   0.000%   0.000%   0.000%   0.000%   0.000%   0.000%   0.000%   0.000%
   76    8.1  0.5  0.5   0.016%   0.000%   0.008%   0.001%   0.000%   0.135%   0.000%   0.035%
   77    9.1  0.5  0.5   0.000%   0.093%   0.001%   0.004%   0.114%   0.000%   0.056%   0.000%
   78   10.1  0.5  0.5   0.000%   0.061%   0.000%   0.003%   0.140%   0.000%   0.030%   0.000%
   79   11.1  0.5  0.5   0.030%   0.000%   0.059%   0.010%   0.000%   0.035%   0.000%   0.135%
   80   12.1  0.5  0.5   0.005%   0.000%   0.100%   0.017%   0.000%   0.001%   0.000%   0.169%
   81   13.1  0.5  0.5   0.000%   0.000%   0.000%   0.000%   0.024%   0.000%   0.049%   0.000%
   82   14.1  0.5  0.5   0.000%   0.000%   0.000%   0.000%   0.013%   0.000%   0.060%   0.000%
   83   15.1  0.5  0.5   0.000%   0.000%   0.000%   0.000%   0.000%   0.073%   0.000%   0.001%
   84    1.1  0.5 -0.5   0.000%   0.000%   0.000%   0.000%   0.000%   0.000%   0.000%   0.000%
   85    2.1  0.5 -0.5   0.000%   0.000%   0.000%   0.000%   0.000%   0.000%   0.000%   0.000%
   86    3.1  0.5 -0.5   0.000%   0.000%   0.000%   0.000%   0.000%   0.000%   0.000%   0.000%
   87    4.1  0.5 -0.5   0.000%   0.000%   0.000%   0.000%   0.000%   0.000%   0.000%   0.000%
   88    5.1  0.5 -0.5   0.000%   0.000%   0.000%   0.000%   0.000%   0.000%   0.000%   0.000%
   89    6.1  0.5 -0.5   0.000%   0.000%   0.000%   0.000%   0.000%   0.000%   0.000%   0.000%
   90    7.1  0.5 -0.5   0.000%   0.000%   0.000%   0.000%   0.000%   0.000%   0.000%   0.000%
   91    8.1  0.5 -0.5   0.000%   0.016%   0.001%   0.008%   0.135%   0.000%   0.035%   0.000%
   92    9.1  0.5 -0.5   0.093%   0.000%   0.004%   0.001%   0.000%   0.114%   0.000%   0.056%
   93   10.1  0.5 -0.5   0.061%   0.000%   0.003%   0.000%   0.000%   0.140%   0.000%   0.030%
   94   11.1  0.5 -0.5   0.000%   0.030%   0.010%   0.059%   0.035%   0.000%   0.135%   0.000%
   95   12.1  0.5 -0.5   0.000%   0.005%   0.017%   0.100%   0.001%   0.000%   0.169%   0.000%
   96   13.1  0.5 -0.5   0.000%   0.000%   0.000%   0.000%   0.000%   0.024%   0.000%   0.049%
   97   14.1  0.5 -0.5   0.000%   0.000%   0.000%   0.000%   0.000%   0.013%   0.000%   0.060%
   98   15.1  0.5 -0.5   0.000%   0.000%   0.000%   0.000%   0.073%   0.000%   0.001%   0.000%


 Property matrices transformed in SO basis (not sym. adapted)
 ============================================================

 No matrix element <i|DMX|i> larger than 5E-7
 No matrix element <i|DMX|1> larger than 5E-7

 No matrix element <i|DMY|i> larger than 5E-7
 No matrix element <i|DMY|1> larger than 5E-7

 No matrix element <i|DMZ|i> larger than 5E-7
 No matrix element <i|DMZ|1> larger than 5E-7


 **********************************************************************************************************************************
 DATASETS  * FILE   NREC   LENGTH (MB)   RECORD NAMES
              1      21       32.08       500      610      700      900      950      970     1000      129      960     1100   
                                          VAR    BASINP    GEOM    SYMINP    ZMAT    AOBASIS   BASIS     P2S    ABASIS      S 
                                         1400     1410     1420     1200     1210     1080     1700     1600     1650     1380   
                                           T        V       ECP      H0       H01     AOSYM    OPER      SMH    MOLCAS    JKOP   
                                         1700(1)
                                         OPER   

              2       6      742.02       700     1000      520     2140     5103     5101   
                                         GEOM     BASIS   MCVARS    MCSCF    MRCI     MRCI   

 PROGRAMS   *        TOTAL        CI        CI        CI     MULTI       INT
 CPU TIMES  *     27452.55  23176.73   2480.57   1791.76      2.77      0.49
 REAL TIME  *     28264.40 SEC
 DISK USED  *       774.19 MB (local),        9.13 GB (total)
 SF USED    *         3.88 GB
 GA USED    *         0.00 MB       (max)       0.00 MB       (current)
 **********************************************************************************************************************************

 CI/cc-pWCVTZ-PP energy=   -109.951490424819

              CI              CI           MULTI
   -109.90293488   -109.89798018   -109.33009136
 **********************************************************************************************************************************
 Molpro calculation terminated with 1 warning(s)
