
 Working directory              : /wrk/irikura/molpro.Is0oQIlCrQ/
 Global scratch directory       : /wrk/irikura/molpro.Is0oQIlCrQ/
 Wavefunction directory         : /home/irikura/wfu/
 Main file repository           : /wrk/irikura/molpro.Is0oQIlCrQ/

 id        : nistki

 Nodes            nprocs
 pn112695.nist.gov   12
 GA implementation: MPI file
 GA implementation (serial work in mppx): MPI file

 Using customized tuning parameters: mindgm=1; mindgv=20; mindgc=4; mindgr=1; noblas=0; minvec=7
 default implementation of scratch files=sf  


 Variables initialized (1040), CPU time= 0.01 sec
 ***,Rh atom, (17/10) active space
                                                                                 ! hybrid SO-CI
                                                                                 ! 4F,4P + 2F,2D
 memory,1000,M;
 
 gprint,orbitals,civector
 
 symmetry,xyz
 geometry={Rh}
 
 basis=cc-pwCVTZ-PP
 
 {multi
     closed,0,0
     wf,nelec=17,sym=1,spin=3; state,10;
     wf,nelec=17,sym=1,spin=1; state,12;
     expec2,lxx,lyy,lzz;
  }
 table, energy, ll
 title, Energies and LL values
 
 {ci;wf,sym=1,spin=3;state,10;save,5103.2}
 hlsdiag = energd4
 {ci;wf,sym=1,spin=1;state,12;save,5101.2}
 hlsdiag(11) = energd4
 
 table, hlsdiag
 
                                                                                 ! replace with opt-MRCI+Q energies
 HLSDIAG(1)=-110.016507
 HLSDIAG(2)=-110.016507
 HLSDIAG(3)=-110.016507
 HLSDIAG(4)=-110.016507
 HLSDIAG(5)=-110.016507
 HLSDIAG(6)=-110.016507
 HLSDIAG(7)=-110.016507
 HLSDIAG(8)=-109.975123
 HLSDIAG(9)=-109.975123
 HLSDIAG(10)=-109.975123
 HLSDIAG(11)=-109.991822
 HLSDIAG(12)=-109.991822
 HLSDIAG(13)=-109.991822
 HLSDIAG(14)=-109.991822
 HLSDIAG(15)=-109.991822
 HLSDIAG(16)=-109.991822
 HLSDIAG(17)=-109.991822
 HLSDIAG(18)=-109.995136
 HLSDIAG(19)=-109.995136
 HLSDIAG(20)=-109.995136
 HLSDIAG(21)=-109.995136
 HLSDIAG(22)=-109.995136
 table, hlsdiag
 
                                                                                 !compute and diagonalize SO matrix
 {ci;hlsmat,ecp,5103.2,5101.2;print,vls=0,hls=0}
 Commands initialized (846), CPU time= 0.01 sec, 717 directives.
 Default parameters read. Elapsed time= 0.19 sec

 Checking input...
 Passed
1


                                         ***  PROGRAM SYSTEM MOLPRO  ***
                                       Copyright, TTI GmbH Stuttgart, 2015
                                    Version 2023.2 linked Fri Sep 22 03:27:09 2023


 **********************************************************************************************************************************
 LABEL *   Rh atom, (17/10) active space                                                                                                                                 
  (32 PROC) 64 bit mpp version                                                           DATE: 16-Feb-24          TIME: 17:11:40  
 **********************************************************************************************************************************

 SHA1:             3c61bfe44d37c8635c785372c339f5cbdd4e4b59
 **********************************************************************************************************************************

 Memory per process:      1000 MW
 Total memory per node:  12000 MW

 GA preallocation disabled
 GA check disabled

 Variable memory set to 1000.0 MW


 ZSYMEL=XYZ

 SETTING BASIS          =    CC-PWCVTZ-PP


 Recomputing integrals since basis changed


 Using spherical harmonics

 Library entry Rh   ECP ECP28MDF                 selected for group  1
 Library entry RH     S cc-pwCVTZ-PP         selected for orbital group  1
 Library entry RH     P cc-pwCVTZ-PP         selected for orbital group  1
 Library entry RH     D cc-pwCVTZ-PP         selected for orbital group  1
 Library entry RH     F cc-pwCVTZ-PP         selected for orbital group  1
 Library entry RH     G cc-pwCVTZ-PP         selected for orbital group  1


 PROGRAM * SEWARD (Integral evaluation for generally contracted gaussian basis sets)     Author: Roland Lindh, 1990

 Geometry written to block  1 of record 700

 Orientation using atomic masses  
 Molecule type: Atom
 User-specified symmetry elements: XYZ
 Symmetry elements: XYZ
 Rotational constants:       0.0000000      0.0000000      0.0000000 GHz  (calculated with average atomic masses)

 Point group  Ci  



 ATOMIC COORDINATES

 NR  ATOM    CHARGE       X              Y              Z

   1  RH     17.00    0.000000000    0.000000000    0.000000000

 NUCLEAR CHARGE:                   17
 NUMBER OF PRIMITIVE AOS:         165
 NUMBER OF SYMMETRY AOS:          134
 NUMBER OF CONTRACTIONS:           97   (   55Ag  +   42Au  )
 NUMBER OF INNER CORE ORBITALS:     0   (    0Ag  +    0Au  )
 NUMBER OF OUTER CORE ORBITALS:     4   (    1Ag  +    3Au  )
 NUMBER OF VALENCE ORBITALS:        6   (    6Ag  +    0Au  )


 LX: Ag           LY: Ag           LZ: Ag 


 NUCLEAR REPULSION ENERGY    0.00000000

 EXTRA SYMMETRY OF AOS IN SYMMETRY 1:   1 1 1 1 1 1 1 2 3 4   5 6 2 3 4 5 6 2 3 4   5 6 2 3 4 5 6 2 3 4   5 6 2 3 4 5 6 7 8 9
                                       101112131415 7 8 910  1112131415
 EXTRA SYMMETRY OF AOS IN SYMMETRY 2:   1 2 3 1 2 3 1 2 3 1   2 3 1 2 3 1 2 3 1 2   3 4 5 6 7 8 910 4 5   6 7 8 910 4 5 6 7 8
                                        910


 Eigenvalues of metric

         1 0.743E-03 0.223E-02 0.223E-02 0.223E-02 0.223E-02 0.223E-02 0.534E-02 0.439E-01
         2 0.905E-03 0.905E-03 0.905E-03 0.520E-02 0.520E-02 0.520E-02 0.207E+00 0.207E+00


 Contracted 2-electron integrals neglected if value below      1.0D-11
 AO integral compression algorithm  1   Integral accuracy      1.0D-11

     13.894 MB (compressed) written to integral file ( 16.1%)

     Node minimum: 0.786 MB, node maximum: 1.573 MB


 NUMBER OF SORTED TWO-ELECTRON INTEGRALS:     479772.     BUFFER LENGTH:  32768
 NUMBER OF SEGMENTS:   1  SEGMENT LENGTH:     479772      RECORD LENGTH: 524288

 Memory used in sort:       1.04 MW

 SORT1 READ    10862098. AND WROTE       89681. INTEGRALS IN      1 RECORDS. CPU TIME:     0.07 SEC, REAL TIME:     0.07 SEC
 SORT2 READ     1120219. AND WROTE     5766586. INTEGRALS IN     60 RECORDS. CPU TIME:     0.02 SEC, REAL TIME:     0.02 SEC

 Node minimum:      478351.  Node maximum:      485007. integrals

 OPERATOR DM      FOR CENTER  0  COORDINATES:    0.000000    0.000000    0.000000


 **********************************************************************************************************************************
 DATASETS  * FILE   NREC   LENGTH (MB)   RECORD NAMES
              1      19       28.86       500      610      700      900      950      970     1000      129      960     1100   
                                          VAR    BASINP    GEOM    SYMINP    ZMAT    AOBASIS   BASIS     P2S    ABASIS      S 
                                         1400     1410     1420     1200     1210     1080     1700     1600     1650   
                                           T        V       ECP      H0       H01     AOSYM    OPER      SMH    MOLCAS    

 PROGRAMS   *        TOTAL       INT
 CPU TIMES  *         0.80      0.51
 REAL TIME  *         1.37 SEC
 DISK USED  *        29.20 MB (local),      405.52 MB (total)
 GA USED    *         0.00 MB       (max)       0.00 MB       (current)
 **********************************************************************************************************************************

 PROGRAM * MULTI (Direct Multiconfiguration SCF)       Authors: P.J. Knowles, H.-J. Werner (1984)
                                                                D.A. Kreplin, P.J. Knowles, H.-J. Werner (2019)

 Number of active  orbitals:       10 (    7    3)
 Number of external orbitals:      87 (   48   39)

 State symmetry 1

 Number of active electrons:  17    Spin symmetry=Quartet   Space symmetry=1
 Number of states:            10
 Number of CSFs:              56   (56 determinants, 120 intermediate states)

 State symmetry 2

 Number of active electrons:  17    Spin symmetry=Doublet   Space symmetry=1
 Number of states:            12
 Number of CSFs:             175   (231 determinants, 450 intermediate states)

 Orbital guess generated from atomic densities. Full valence occupancy:    7   3
 *** IN SYMMETRY 1 ORBITAL  3 SYMMETRY CONTAMINATION OF 0.299D+00 HAS BEEN REMOVED
 *** IN SYMMETRY 1 ORBITAL  4 SYMMETRY CONTAMINATION OF 0.294D+00 HAS BEEN REMOVED
 *** IN SYMMETRY 1 ORBITAL  5 SYMMETRY CONTAMINATION OF 0.190D-01 HAS BEEN REMOVED
 *** IN SYMMETRY 1 ORBITAL  6 SYMMETRY CONTAMINATION OF 0.925D-02 HAS BEEN REMOVED

 EXTRA SYMMETRY OF MOS IN SYMMETRY 1:   1 2 6 4 3 5 1 1 2 4   6 3 5 1 6 4 2 5 3 2   6 4 5 3 1 711 91514  1310 812 2 4 6 5 3 1
                                        715141310 911 812 2   4 6 3 5 1
 *** IN SYMMETRY 2 ORBITAL  1 SYMMETRY CONTAMINATION OF 0.397D-03 HAS BEEN REMOVED
 *** IN SYMMETRY 2 ORBITAL  2 SYMMETRY CONTAMINATION OF 0.398D-03 HAS BEEN REMOVED
 *** IN SYMMETRY 2 ORBITAL  3 SYMMETRY CONTAMINATION OF 0.361D-03 HAS BEEN REMOVED
 EXTRA SYMMETRY OF MOS IN SYMMETRY 2:   1 2 3 2 1 3 1 2 3 3   1 2 9 7 5 4 6 810 3   1 2 6 5 4 7 9 810 1   2 3 810 6 7 9 5 4 1
                                        2 3

 Wavefunction dump at record             2140.2

 Convergence thresholds  0.10E-04 (gradient)  0.10E-05 (energy)

 Weight factors for state symmetry  1:    0.04545   0.04545   0.04545   0.04545   0.04545   0.04545   0.04545   0.04545
                                          0.04545   0.04545
 Weight factors for state symmetry  2:    0.04545   0.04545   0.04545   0.04545   0.04545   0.04545   0.04545   0.04545
                                          0.04545   0.04545   0.04545   0.04545
 
 Number of orbital rotations:  453  ( 0 closed/active, 0 closed/virtual, 0 active/active, 453 active/virtual )
 Total number of variables:    3785
 
 Second-order MCSCF: L-BFGS accelerated
 
 ITER  MIC  NCI  NEG     ENERGY(VAR)    ENERGY(PROJ) ENERGY CHANGE       GRAD(0)  GRAD(ORB)   GRAD(CI)      STEP      TIME
   1    4    8    0   -109.34274051    -109.35405512   -0.01131461    0.16422264 0.00001125 0.00000000  0.11E+00      0.28
   2    3    6    0   -109.35382701    -109.35383690   -0.00000988    0.00515507 0.00000829 0.00000000  0.35E-02      0.49
   3   20   40    0   -109.35383690    -109.35383690   -0.00000000    0.00000502 0.00000033 0.00000000  0.38E-05      1.76

 CONVERGENCE REACHED!  Final gradient:    0.00000011 ( 0.11E-06)
                       Final energy:   -109.35383690
 
 Results for state 1.1 Quartet
 =============================
 !MCSCF STATE 1.1 Quartet Energy              -109.380939435863
 Nuclear energy                                  0.00000000
 Kinetic energy                                 40.97623010
 One electron energy                          -193.47898687
 Two electron energy                            84.09804744
 Virial ratio                                    3.66937537
 
 !MCSCF STATE 1.1 Quartet Dipole moment          0.00000000     0.00000000     0.00000000
 Dipole moment /Debye                            0.00000000     0.00000000     0.00000000
 
 Results for state 2.1 Quartet
 =============================
 !MCSCF STATE 2.1 Quartet Energy              -109.380939435816
 Nuclear energy                                  0.00000000
 Kinetic energy                                 40.97623018
 One electron energy                          -193.47898699
 Two electron energy                            84.09804755
 Virial ratio                                    3.66937537
 
 !MCSCF STATE 2.1 Quartet Dipole moment          0.00000000     0.00000000     0.00000000
 Dipole moment /Debye                            0.00000000     0.00000000     0.00000000
 
 Results for state 3.1 Quartet
 =============================
 !MCSCF STATE 3.1 Quartet Energy              -109.380939435714
 Nuclear energy                                  0.00000000
 Kinetic energy                                 40.97623021
 One electron energy                          -193.47898702
 Two electron energy                            84.09804758
 Virial ratio                                    3.66937536
 
 !MCSCF STATE 3.1 Quartet Dipole moment          0.00000000     0.00000000     0.00000000
 Dipole moment /Debye                            0.00000000     0.00000000     0.00000000
 
 Results for state 4.1 Quartet
 =============================
 !MCSCF STATE 4.1 Quartet Energy              -109.380939435338
 Nuclear energy                                  0.00000000
 Kinetic energy                                 40.97623016
 One electron energy                          -193.47898695
 Two electron energy                            84.09804752
 Virial ratio                                    3.66937537
 
 !MCSCF STATE 4.1 Quartet Dipole moment          0.00000000     0.00000000     0.00000000
 Dipole moment /Debye                            0.00000000     0.00000000     0.00000000
 
 Results for state 5.1 Quartet
 =============================
 !MCSCF STATE 5.1 Quartet Energy              -109.380939434112
 Nuclear energy                                  0.00000000
 Kinetic energy                                 40.97623024
 One electron energy                          -193.47898707
 Two electron energy                            84.09804763
 Virial ratio                                    3.66937536
 
 !MCSCF STATE 5.1 Quartet Dipole moment          0.00000000     0.00000000     0.00000000
 Dipole moment /Debye                            0.00000000     0.00000000     0.00000000
 
 Results for state 6.1 Quartet
 =============================
 !MCSCF STATE 6.1 Quartet Energy              -109.380939434016
 Nuclear energy                                  0.00000000
 Kinetic energy                                 40.97623025
 One electron energy                          -193.47898707
 Two electron energy                            84.09804764
 Virial ratio                                    3.66937536
 
 !MCSCF STATE 6.1 Quartet Dipole moment          0.00000000     0.00000000     0.00000000
 Dipole moment /Debye                            0.00000000     0.00000000     0.00000000
 
 Results for state 7.1 Quartet
 =============================
 !MCSCF STATE 7.1 Quartet Energy              -109.380939433425
 Nuclear energy                                  0.00000000
 Kinetic energy                                 40.97623029
 One electron energy                          -193.47898713
 Two electron energy                            84.09804770
 Virial ratio                                    3.66937536
 
 !MCSCF STATE 7.1 Quartet Dipole moment          0.00000000     0.00000000     0.00000000
 Dipole moment /Debye                            0.00000000     0.00000000     0.00000000
 
 Results for state 8.1 Quartet
 =============================
 !MCSCF STATE 8.1 Quartet Energy              -109.327343966421
 Nuclear energy                                  0.00000000
 Kinetic energy                                 40.97696399
 One electron energy                          -193.46940770
 Two electron energy                            84.14206373
 Virial ratio                                    3.66801962
 
 !MCSCF STATE 8.1 Quartet Dipole moment          0.00000000     0.00000000     0.00000000
 Dipole moment /Debye                            0.00000000     0.00000000     0.00000000
 
 Results for state 9.1 Quartet
 =============================
 !MCSCF STATE 9.1 Quartet Energy              -109.327343963029
 Nuclear energy                                  0.00000000
 Kinetic energy                                 40.97696409
 One electron energy                          -193.46940785
 Two electron energy                            84.14206388
 Virial ratio                                    3.66801962
 
 !MCSCF STATE 9.1 Quartet Dipole moment          0.00000000     0.00000000     0.00000000
 Dipole moment /Debye                            0.00000000     0.00000000     0.00000000
 
 Results for state 10.1 Quartet
 ==============================
 !MCSCF STATE 10.1 Quartet Energy             -109.327343962970
 Nuclear energy                                  0.00000000
 Kinetic energy                                 40.97696414
 One electron energy                          -193.46940790
 Two electron energy                            84.14206394
 Virial ratio                                    3.66801961
 
 !MCSCF STATE 10.1 Quartet Dipole moment         0.00000000     0.00000000     0.00000000
 Dipole moment /Debye                            0.00000000     0.00000000     0.00000000
 
 Results for state 1.1 Doublet
 =============================
 !MCSCF STATE 1.1 Doublet Energy              -109.352673484013
 Nuclear energy                                  0.00000000
 Kinetic energy                                 40.96073031
 One electron energy                          -193.45206895
 Two electron energy                            84.09939546
 Virial ratio                                    3.66969540
 
 !MCSCF STATE 1.1 Doublet Dipole moment          0.00000000     0.00000000     0.00000000
 Dipole moment /Debye                            0.00000000     0.00000000     0.00000000
 
 Results for state 2.1 Doublet
 =============================
 !MCSCF STATE 2.1 Doublet Energy              -109.352673483027
 Nuclear energy                                  0.00000000
 Kinetic energy                                 40.96073038
 One electron energy                          -193.45206904
 Two electron energy                            84.09939556
 Virial ratio                                    3.66969540
 
 !MCSCF STATE 2.1 Doublet Dipole moment          0.00000000     0.00000000     0.00000000
 Dipole moment /Debye                            0.00000000     0.00000000     0.00000000
 
 Results for state 3.1 Doublet
 =============================
 !MCSCF STATE 3.1 Doublet Energy              -109.352673482813
 Nuclear energy                                  0.00000000
 Kinetic energy                                 40.96073037
 One electron energy                          -193.45206903
 Two electron energy                            84.09939555
 Virial ratio                                    3.66969540
 
 !MCSCF STATE 3.1 Doublet Dipole moment          0.00000000     0.00000000     0.00000000
 Dipole moment /Debye                            0.00000000     0.00000000     0.00000000
 
 Results for state 4.1 Doublet
 =============================
 !MCSCF STATE 4.1 Doublet Energy              -109.352673482578
 Nuclear energy                                  0.00000000
 Kinetic energy                                 40.96073041
 One electron energy                          -193.45206909
 Two electron energy                            84.09939561
 Virial ratio                                    3.66969540
 
 !MCSCF STATE 4.1 Doublet Dipole moment          0.00000000     0.00000000     0.00000000
 Dipole moment /Debye                            0.00000000     0.00000000     0.00000000
 
 Results for state 5.1 Doublet
 =============================
 !MCSCF STATE 5.1 Doublet Energy              -109.352673480558
 Nuclear energy                                  0.00000000
 Kinetic energy                                 40.96073046
 One electron energy                          -193.45206916
 Two electron energy                            84.09939568
 Virial ratio                                    3.66969539
 
 !MCSCF STATE 5.1 Doublet Dipole moment          0.00000000     0.00000000     0.00000000
 Dipole moment /Debye                            0.00000000     0.00000000     0.00000000
 
 Results for state 6.1 Doublet
 =============================
 !MCSCF STATE 6.1 Doublet Energy              -109.352673480529
 Nuclear energy                                  0.00000000
 Kinetic energy                                 40.96073046
 One electron energy                          -193.45206915
 Two electron energy                            84.09939566
 Virial ratio                                    3.66969540
 
 !MCSCF STATE 6.1 Doublet Dipole moment          0.00000000     0.00000000     0.00000000
 Dipole moment /Debye                            0.00000000     0.00000000     0.00000000
 
 Results for state 7.1 Doublet
 =============================
 !MCSCF STATE 7.1 Doublet Energy              -109.352673479398
 Nuclear energy                                  0.00000000
 Kinetic energy                                 40.96073050
 One electron energy                          -193.45206921
 Two electron energy                            84.09939573
 Virial ratio                                    3.66969539
 
 !MCSCF STATE 7.1 Doublet Dipole moment          0.00000000     0.00000000     0.00000000
 Dipole moment /Debye                            0.00000000     0.00000000     0.00000000
 
 Results for state 8.1 Doublet
 =============================
 !MCSCF STATE 8.1 Doublet Energy              -109.333417907192
 Nuclear energy                                  0.00000000
 Kinetic energy                                 41.04992088
 One electron energy                          -193.59969842
 Two electron energy                            84.26628051
 Virial ratio                                    3.66342579
 
 !MCSCF STATE 8.1 Doublet Dipole moment          0.00000000     0.00000000     0.00000000
 Dipole moment /Debye                            0.00000000     0.00000000     0.00000000
 
 Results for state 9.1 Doublet
 =============================
 !MCSCF STATE 9.1 Doublet Energy              -109.333417906635
 Nuclear energy                                  0.00000000
 Kinetic energy                                 41.04992094
 One electron energy                          -193.59969851
 Two electron energy                            84.26628061
 Virial ratio                                    3.66342578
 
 !MCSCF STATE 9.1 Doublet Dipole moment          0.00000000     0.00000000     0.00000000
 Dipole moment /Debye                            0.00000000     0.00000000     0.00000000
 
 Results for state 10.1 Doublet
 ==============================
 !MCSCF STATE 10.1 Doublet Energy             -109.333417906394
 Nuclear energy                                  0.00000000
 Kinetic energy                                 41.04992094
 One electron energy                          -193.59969849
 Two electron energy                            84.26628059
 Virial ratio                                    3.66342579
 
 !MCSCF STATE 10.1 Doublet Dipole moment         0.00000000     0.00000000     0.00000000
 Dipole moment /Debye                            0.00000000     0.00000000     0.00000000
 
 Results for state 11.1 Doublet
 ==============================
 !MCSCF STATE 11.1 Doublet Energy             -109.333417905979
 Nuclear energy                                  0.00000000
 Kinetic energy                                 41.04992096
 One electron energy                          -193.59969855
 Two electron energy                            84.26628065
 Virial ratio                                    3.66342578
 
 !MCSCF STATE 11.1 Doublet Dipole moment         0.00000000     0.00000000     0.00000000
 Dipole moment /Debye                            0.00000000     0.00000000     0.00000000
 
 Results for state 12.1 Doublet
 ==============================
 !MCSCF STATE 12.1 Doublet Energy             -109.333417905771
 Nuclear energy                                  0.00000000
 Kinetic energy                                 41.04992099
 One electron energy                          -193.59969859
 Two electron energy                            84.26628068
 Virial ratio                                    3.66342578
 
 !MCSCF STATE 12.1 Doublet Dipole moment         0.00000000     0.00000000     0.00000000
 Dipole moment /Debye                            0.00000000     0.00000000     0.00000000
 
 State-averaged charge density matrix saved on record 2140.2 (density set 1)
 
 No non-zero expectation values
 
 Expectation values for two-electron operators:
 
 ? Warning
 ? Transition properties are only calculated between states of the same symmetry
 ? The problem occurs in mu_properties_expec2

 !MCSCF expec      <1.1 Quartet|LXLX|1.1 Quartet>     4.000000000000
 !MCSCF expec      <2.1 Quartet|LXLX|2.1 Quartet>     1.000199737921
 !MCSCF expec      <3.1 Quartet|LXLX|3.1 Quartet>     1.482100415049
 !MCSCF expec      <4.1 Quartet|LXLX|4.1 Quartet>     3.969593778195
 !MCSCF expec      <5.1 Quartet|LXLX|5.1 Quartet>     8.999800218107
 !MCSCF expec      <6.1 Quartet|LXLX|6.1 Quartet>     2.517754088100
 !MCSCF expec      <7.1 Quartet|LXLX|7.1 Quartet>     6.030384659696
 !MCSCF expec      <8.1 Quartet|LXLX|8.1 Quartet>     0.999999999999
 !MCSCF expec      <9.1 Quartet|LXLX|9.1 Quartet>     0.999999993031
 !MCSCF expec    <10.1 Quartet|LXLX|10.1 Quartet>     0.000000098940
 !MCSCF expec      <1.1 Doublet|LXLX|1.1 Doublet>     3.999999999988
 !MCSCF expec      <2.1 Doublet|LXLX|2.1 Doublet>     1.278703788200
 !MCSCF expec      <3.1 Doublet|LXLX|3.1 Doublet>     3.966486130269
 !MCSCF expec      <4.1 Doublet|LXLX|4.1 Doublet>     1.441702975124
 !MCSCF expec      <5.1 Doublet|LXLX|5.1 Doublet>     8.721256787029
 !MCSCF expec      <6.1 Doublet|LXLX|6.1 Doublet>     2.558345905950
 !MCSCF expec      <7.1 Doublet|LXLX|7.1 Doublet>     6.033343503681
 !MCSCF expec      <8.1 Doublet|LXLX|8.1 Doublet>     2.929457810783
 !MCSCF expec      <9.1 Doublet|LXLX|9.1 Doublet>     1.000000004275
 !MCSCF expec    <10.1 Doublet|LXLX|10.1 Doublet>     3.999999832465
 !MCSCF expec    <11.1 Doublet|LXLX|11.1 Doublet>     1.070493831377
 !MCSCF expec    <12.1 Doublet|LXLX|12.1 Doublet>     1.000000083067
 
 !MCSCF expec      <1.1 Quartet|LYLY|1.1 Quartet>     4.000000000000
 !MCSCF expec      <2.1 Quartet|LYLY|2.1 Quartet>     2.480623448659
 !MCSCF expec      <3.1 Quartet|LYLY|3.1 Quartet>     1.518070912539
 !MCSCF expec      <4.1 Quartet|LYLY|4.1 Quartet>     4.030467983768
 !MCSCF expec      <5.1 Quartet|LYLY|5.1 Quartet>     1.519377369051
 !MCSCF expec      <6.1 Quartet|LYLY|6.1 Quartet>     8.482077394137
 !MCSCF expec      <7.1 Quartet|LYLY|7.1 Quartet>     5.969553665565
 !MCSCF expec      <8.1 Quartet|LYLY|8.1 Quartet>     0.999999999986
 !MCSCF expec      <9.1 Quartet|LYLY|9.1 Quartet>     0.000000006983
 !MCSCF expec    <10.1 Quartet|LYLY|10.1 Quartet>     0.999999901074
 !MCSCF expec      <1.1 Doublet|LYLY|1.1 Doublet>     3.999999999994
 !MCSCF expec      <2.1 Doublet|LYLY|2.1 Doublet>     3.175347214731
 !MCSCF expec      <3.1 Doublet|LYLY|3.1 Doublet>     4.033587364826
 !MCSCF expec      <4.1 Doublet|LYLY|4.1 Doublet>     1.560125523223
 !MCSCF expec      <5.1 Doublet|LYLY|5.1 Doublet>     0.824693763145
 !MCSCF expec      <6.1 Doublet|LYLY|6.1 Doublet>     8.439819347829
 !MCSCF expec      <7.1 Doublet|LYLY|7.1 Doublet>     5.966582206461
 !MCSCF expec      <8.1 Doublet|LYLY|8.1 Doublet>     3.068920706871
 !MCSCF expec      <9.1 Doublet|LYLY|9.1 Doublet>     3.999999932890
 !MCSCF expec    <10.1 Doublet|LYLY|10.1 Doublet>     1.000000001394
 !MCSCF expec    <11.1 Doublet|LYLY|11.1 Doublet>     0.931125452909
 !MCSCF expec    <12.1 Doublet|LYLY|12.1 Doublet>     1.000000069342
 
 !MCSCF expec      <1.1 Quartet|LZLZ|1.1 Quartet>     4.000000000000
 !MCSCF expec      <2.1 Quartet|LZLZ|2.1 Quartet>     8.519176813420
 !MCSCF expec      <3.1 Quartet|LZLZ|3.1 Quartet>     8.999828672412
 !MCSCF expec      <4.1 Quartet|LZLZ|4.1 Quartet>     3.999938238037
 !MCSCF expec      <5.1 Quartet|LZLZ|5.1 Quartet>     1.480822412842
 !MCSCF expec      <6.1 Quartet|LZLZ|6.1 Quartet>     1.000168517763
 !MCSCF expec      <7.1 Quartet|LZLZ|7.1 Quartet>     0.000061674739
 !MCSCF expec      <8.1 Quartet|LZLZ|8.1 Quartet>     0.000000000015
 !MCSCF expec      <9.1 Quartet|LZLZ|9.1 Quartet>     0.999999999986
 !MCSCF expec    <10.1 Quartet|LZLZ|10.1 Quartet>     0.999999999985
 !MCSCF expec      <1.1 Doublet|LZLZ|1.1 Doublet>     4.000000000019
 !MCSCF expec      <2.1 Doublet|LZLZ|2.1 Doublet>     7.545948997069
 !MCSCF expec      <3.1 Doublet|LZLZ|3.1 Doublet>     3.999926504905
 !MCSCF expec      <4.1 Doublet|LZLZ|4.1 Doublet>     8.998171501652
 !MCSCF expec      <5.1 Doublet|LZLZ|5.1 Doublet>     2.454049449826
 !MCSCF expec      <6.1 Doublet|LZLZ|6.1 Doublet>     1.001834746221
 !MCSCF expec      <7.1 Doublet|LZLZ|7.1 Doublet>     0.000074289858
 !MCSCF expec      <8.1 Doublet|LZLZ|8.1 Doublet>     0.001621482346
 !MCSCF expec      <9.1 Doublet|LZLZ|9.1 Doublet>     1.000000062835
 !MCSCF expec    <10.1 Doublet|LZLZ|10.1 Doublet>     1.000000166141
 !MCSCF expec    <11.1 Doublet|LZLZ|11.1 Doublet>     3.998380715714
 !MCSCF expec    <12.1 Doublet|LZLZ|12.1 Doublet>     3.999999847591
 
 !MCSCF expec      <1.1 Quartet|L**2|1.1 Quartet>    12.000000000000
 !MCSCF expec      <2.1 Quartet|L**2|2.1 Quartet>    12.000000000000
 !MCSCF expec      <3.1 Quartet|L**2|3.1 Quartet>    12.000000000000
 !MCSCF expec      <4.1 Quartet|L**2|4.1 Quartet>    12.000000000000
 !MCSCF expec      <5.1 Quartet|L**2|5.1 Quartet>    12.000000000000
 !MCSCF expec      <6.1 Quartet|L**2|6.1 Quartet>    12.000000000000
 !MCSCF expec      <7.1 Quartet|L**2|7.1 Quartet>    12.000000000000
 !MCSCF expec      <8.1 Quartet|L**2|8.1 Quartet>     2.000000000000
 !MCSCF expec      <9.1 Quartet|L**2|9.1 Quartet>     2.000000000000
 !MCSCF expec    <10.1 Quartet|L**2|10.1 Quartet>     2.000000000000
 !MCSCF expec      <1.1 Doublet|L**2|1.1 Doublet>    12.000000000000
 !MCSCF expec      <2.1 Doublet|L**2|2.1 Doublet>    12.000000000000
 !MCSCF expec      <3.1 Doublet|L**2|3.1 Doublet>    12.000000000000
 !MCSCF expec      <4.1 Doublet|L**2|4.1 Doublet>    12.000000000000
 !MCSCF expec      <5.1 Doublet|L**2|5.1 Doublet>    12.000000000000
 !MCSCF expec      <6.1 Doublet|L**2|6.1 Doublet>    12.000000000000
 !MCSCF expec      <7.1 Doublet|L**2|7.1 Doublet>    12.000000000000
 !MCSCF expec      <8.1 Doublet|L**2|8.1 Doublet>     6.000000000000
 !MCSCF expec      <9.1 Doublet|L**2|9.1 Doublet>     6.000000000000
 !MCSCF expec    <10.1 Doublet|L**2|10.1 Doublet>     6.000000000000
 !MCSCF expec    <11.1 Doublet|L**2|11.1 Doublet>     6.000000000000
 !MCSCF expec    <12.1 Doublet|L**2|12.1 Doublet>     6.000000000000
 
 EXTRA SYMMETRY OF MOS IN SYMMETRY 1:   1 5 6 2 4 3 1 1 5 2   6 4 3 1 5 2 6 4 3 5   4 2 6 3 1 9 8 71415  13101211 4 3 2 5 6 1
                                        9 8 7141513101211 4   3 2 5 6 1
 EXTRA SYMMETRY OF MOS IN SYMMETRY 2:   2 3 1 1 3 2 1 3 2 1   3 210 5 6 9 7 4 8 1   3 2 410 6 7 9 8 5 1   3 2 4 8 6 9 710 5 1
                                        3 2
 
  NATURAL ORBITALS (STATE AVERAGED)
  =================================

  Orbital  Occupation    Energy    Cen Mu Typ  Coefficients
    1.1     1.99986    -3.72344     1  1  s    1.00205
    2.1     1.60115    -0.30713     1  1  d2+  1.00384
    3.1     1.60115    -0.30713     1  1  d1-  1.00384
    4.1     1.60115    -0.30713     1  1  d0   1.00384
    5.1     1.60115    -0.30713     1  1  d1+  1.00384
    6.1     1.60115    -0.30713     1  1  d2-  1.00384
    7.1     0.99539    -0.10114     1  2  s    0.90613
    1.2     1.99967    -2.35370     1  1  py   1.00013
    2.2     1.99967    -2.35370     1  1  pz   1.00013
    3.2     1.99967    -2.35370     1  1  px   1.00013
 
 Natural orbital dump (state averaged) at molpro section 2140.2 (Orbital set 2)
 
 Transform the CI vectors
 
 CI Coefficients of symmetry 1 (Quartet)
 =======================================

 State:                1               2               3               4               5               6               7
 2a2a22a 222      0.99999998     -0.00000000     -0.00000000      0.00000000      0.00000000      0.00000000      0.00000000
 222a2aa 222     -0.00000000     -0.00000975      0.00008612      0.99999226     -0.00000004     -0.00000002      0.00392944
 22a2a2a 222     -0.00000000     -0.00000167     -0.00000002     -0.00351460      0.00000467     -0.00000115      0.89442025
 2a222aa 222      0.00000000     -0.00000084     -0.00000001     -0.00175730      0.00000233     -0.00000058      0.44721018
 2a22a2a 222     -0.00000000      0.81980699     -0.00010440      0.00000798     -0.35765412      0.00002662      0.00000343
 22aa22a 222     -0.00000000      0.00000024      0.00292652     -0.00000025      0.00004678      0.63244872      0.00000081
 222aa2a 222     -0.00000000      0.15505211     -0.00001791      0.00000148     -0.61315479      0.00004538      0.00000350
 2222aaa 222     -0.00000000      0.00009129      0.70963363     -0.00006111      0.00004265      0.54444475      0.00000048
 2aa222a 222     -0.00000000     -0.00009088     -0.70456475      0.00006068      0.00003837      0.55098865      0.00000093
 22a22aa 222     -0.00000000      0.55124884     -0.00007338      0.00000542      0.70436119     -0.00005197     -0.00000263
 
 Energy:       -109.38093944   -109.38093944   -109.38093944   -109.38093944   -109.38093943   -109.38093943   -109.38093943

 State:                8               9              10
 2a2a22a 222      0.00000000      0.00000000     -0.00000000
 222a2aa 222      0.00000000      0.00000000      0.00000000
 22a2a2a 222     -0.44688819      0.00000167     -0.00000036
 2a222aa 222      0.89377628     -0.00000335      0.00000072
 2a22a2a 222     -0.00000167     -0.44688813     -0.00003731
 22aa22a 222     -0.00000062     -0.00006462      0.77403300
 222aa2a 222      0.00000290      0.77403300      0.00006462
 2222aaa 222      0.00000036      0.00003731     -0.44688813
 2aa222a 222      0.00000036      0.00003731     -0.44688813
 22a22aa 222      0.00000167      0.44688813      0.00003731
 
 Energy:       -109.32734397   -109.32734396   -109.32734396
 
 
 CI Coefficients of symmetry 1 (Doublet)
 =======================================

 State:                1               2               3               4               5               6               7
 2a2a22b 222      0.81437444      0.00000155     -0.00000047     -0.00000084      0.00000004      0.00000015      0.00000003
 222a2ab 222      0.00000047     -0.00044590      0.81436660     -0.00034779     -0.00002137      0.00001492      0.00352737
 22a2a2b 222     -0.00000003     -0.00000357     -0.00315498      0.00000343      0.00003462      0.00005824      0.72839178
 2a22a2b 222     -0.00000135      0.71105970      0.00038527      0.00030379     -0.15798205     -0.00037068      0.00001269
 22a22ab 222     -0.00000066      0.33073075      0.00019826      0.00011989      0.64898319      0.00159036     -0.00002849
 2222aab 222      0.00000052     -0.00025426      0.00024076      0.58252501     -0.00104973      0.43729622     -0.00003662
 2aa222b 222     -0.00000067      0.00023005     -0.00025110     -0.56904262     -0.00112631      0.45470177     -0.00003470
 222b2aa 222     -0.00000023      0.00022295     -0.40718329      0.00017390      0.00001068     -0.00000746     -0.00176369
 222a2ba 222     -0.00000023      0.00022295     -0.40718331      0.00017390      0.00001068     -0.00000746     -0.00176368
 2a2b22a 222     -0.40718720     -0.00000078      0.00000023      0.00000042     -0.00000002     -0.00000007     -0.00000001
 222220a 222      0.00000000      0.00000000     -0.00000000      0.00000000     -0.00000000     -0.00000000      0.00000000
 202222a 222      0.00000000     -0.00000000     -0.00000000     -0.00000000     -0.00000000      0.00000000      0.00000000
 2b2a22a 222     -0.40718724     -0.00000078      0.00000023      0.00000042     -0.00000002     -0.00000007     -0.00000001
 222022a 222     -0.00000000     -0.00000000     -0.00000000      0.00000000      0.00000000     -0.00000000     -0.00000000
 22aa22b 222     -0.00000009     -0.00001398     -0.00000597      0.00778405     -0.00125633      0.51499523     -0.00004118
 222aa2b 222     -0.00000040      0.21958299      0.00010797      0.00010617     -0.46590157     -0.00113221      0.00002377
 222202a 222      0.00000001     -0.00000000     -0.00000000      0.00000000      0.00000000     -0.00000000      0.00000000
 2a22b2a 222      0.00000067     -0.35552983     -0.00019264     -0.00015189      0.07899101      0.00018534     -0.00000634
 22b22aa 222      0.00000033     -0.16536538     -0.00009913     -0.00005995     -0.32449157     -0.00079518      0.00001425
 2ab222a 222      0.00000034     -0.00011502      0.00012555      0.28452130      0.00056315     -0.22735087      0.00001735
 2222baa 222     -0.00000026      0.00012713     -0.00012038     -0.29126250      0.00052486     -0.21864810      0.00001831
 22a22ba 222      0.00000033     -0.16536537     -0.00009913     -0.00005995     -0.32449161     -0.00079518      0.00001425
 2b22a2a 222      0.00000067     -0.35552986     -0.00019264     -0.00015189      0.07899104      0.00018534     -0.00000634
 2222aba 222     -0.00000026      0.00012713     -0.00012038     -0.29126251      0.00052486     -0.21864812      0.00001831
 2ba222a 222      0.00000034     -0.00011502      0.00012555      0.28452133      0.00056315     -0.22735090      0.00001735
 22b2a2a 222      0.00000001      0.00000178      0.00157749     -0.00000172     -0.00001731     -0.00002912     -0.36419588
 22a2b2a 222      0.00000001      0.00000178      0.00157749     -0.00000172     -0.00001731     -0.00002912     -0.36419590
 220222a 222     -0.00000001      0.00000000     -0.00000000     -0.00000000     -0.00000000     -0.00000000     -0.00000000
 2a222ab 222     -0.00000001     -0.00000178     -0.00157749      0.00000172      0.00001731      0.00002912      0.36419596
 222ab2a 222      0.00000020     -0.10979149     -0.00005398     -0.00005309      0.23295078      0.00056610     -0.00001189
 22ba22a 222      0.00000004      0.00000699      0.00000299     -0.00389203      0.00062817     -0.25749760      0.00002059
 22ab22a 222      0.00000004      0.00000699      0.00000299     -0.00389203      0.00062817     -0.25749763      0.00002059
 222ba2a 222      0.00000020     -0.10979150     -0.00005398     -0.00005309      0.23295079      0.00056610     -0.00001189
 22222a0 222      0.00000000      0.00000000     -0.00000000     -0.00000000      0.00000000     -0.00000000     -0.00000000
 2222a20 222      0.00000000     -0.00000001     -0.00000000     -0.00000000      0.00000000      0.00000000     -0.00000000
 22a2220 222      0.00000000     -0.00000000      0.00000000      0.00000001      0.00000000     -0.00000000      0.00000000
 2a22220 222      0.00000000      0.00000000     -0.00000000     -0.00000000      0.00000000     -0.00000000     -0.00000000
 222a220 222     -0.00000001     -0.00000000      0.00000000     -0.00000000      0.00000000      0.00000000      0.00000000
 2b222aa 222      0.00000001      0.00000089      0.00078875     -0.00000086     -0.00000865     -0.00001456     -0.18209798
 2a222ba 222      0.00000001      0.00000089      0.00078875     -0.00000086     -0.00000865     -0.00001456     -0.18209798
 22202a2 222     -0.00000000     -0.00000000     -0.00000000      0.00000000      0.00000000      0.00000000      0.00000000
 2a20222 222      0.00000000     -0.00000000      0.00000000      0.00000000     -0.00000000     -0.00000000      0.00000000
 222a202 222      0.00000000     -0.00000000     -0.00000000      0.00000000      0.00000000     -0.00000000     -0.00000000
 202a222 222     -0.00000000     -0.00000000      0.00000000     -0.00000000      0.00000000     -0.00000000      0.00000000
 
 Energy:       -109.35267348   -109.35267348   -109.35267348   -109.35267348   -109.35267348   -109.35267348   -109.35267348

 State:                8               9              10              11              12
 2a2a22b 222     -0.00000000      0.00000000      0.00000000     -0.00000002     -0.00000000
 222a2ab 222     -0.00000000      0.00000000      0.00000000     -0.00000000      0.00000001
 22a2a2b 222     -0.00000000     -0.00000000      0.00000000     -0.00000000     -0.00000000
 2a22a2b 222     -0.00000000     -0.00000001     -0.00000000     -0.00000000      0.00000000
 22a22ab 222     -0.00000000      0.00000001     -0.00000000     -0.00000000     -0.00000000
 2222aab 222     -0.00000000      0.00000000      0.00000001      0.00000000      0.00000000
 2aa222b 222     -0.00000000     -0.00000000      0.00000002      0.00000000     -0.00000000
 222b2aa 222      0.00000109     -0.00007487     -0.00012197      0.00000444     -0.51830141
 222a2ba 222     -0.00000109      0.00007487      0.00012197     -0.00000444      0.51830140
 2a2b22a 222      0.01043539     -0.00000462     -0.00000034      0.51819637      0.00000446
 222220a 222      0.51819637     -0.00000268      0.00000360     -0.01043539      0.00000100
 202222a 222      0.51819637     -0.00000268      0.00000360     -0.01043538      0.00000100
 2b2a22a 222     -0.01043538      0.00000462      0.00000034     -0.51819635     -0.00000446
 222022a 222     -0.51819633      0.00000268     -0.00000360      0.01043539     -0.00000100
 22aa22b 222     -0.00000000     -0.00000000      0.00000002      0.00000000     -0.00000000
 222aa2b 222     -0.00000000     -0.00000003      0.00000000     -0.00000000      0.00000000
 222202a 222     -0.25006088     -0.00000267     -0.00000209      0.45398889      0.00000336
 2a22b2a 222      0.00000240      0.44886220     -0.00001706      0.00000396     -0.00006484
 22b22aa 222     -0.00000240     -0.44886220      0.00001706     -0.00000396      0.00006484
 2ab222a 222      0.00000311     -0.00001705     -0.44886220     -0.00000035      0.00010563
 2222baa 222      0.00000311     -0.00001705     -0.44886219     -0.00000035      0.00010563
 22a22ba 222      0.00000240      0.44886219     -0.00001706      0.00000396     -0.00006484
 2b22a2a 222     -0.00000240     -0.44886219      0.00001706     -0.00000396      0.00006484
 2222aba 222     -0.00000311      0.00001705      0.44886219      0.00000035     -0.00010563
 2ba222a 222     -0.00000311      0.00001705      0.44886218      0.00000035     -0.00010563
 22b2a2a 222     -0.00000095      0.00006484      0.00010563     -0.00000384      0.44886217
 22a2b2a 222      0.00000095     -0.00006484     -0.00010563      0.00000384     -0.44886216
 220222a 222     -0.26813549      0.00000534     -0.00000151     -0.44355350     -0.00000437
 2a222ab 222      0.00000000     -0.00000000     -0.00000000      0.00000000     -0.00000001
 222ab2a 222      0.00000138      0.25915070     -0.00000985      0.00000228     -0.00003743
 22ba22a 222      0.00000180     -0.00000984     -0.25915070     -0.00000020      0.00006098
 22ab22a 222     -0.00000180      0.00000984      0.25915067      0.00000020     -0.00006098
 222ba2a 222     -0.00000138     -0.25915067      0.00000985     -0.00000228      0.00003743
 22222a0 222     -0.00000044      0.00002987      0.00004865     -0.00000177      0.20674988
 2222a20 222     -0.00000110     -0.20674986      0.00000786     -0.00000182      0.00002986
 22a2220 222      0.00000143     -0.00000785     -0.20674984     -0.00000016      0.00004865
 2a22220 222      0.00416267     -0.00000184     -0.00000013      0.20670798      0.00000178
 222a220 222     -0.20670795      0.00000107     -0.00000144      0.00416266     -0.00000040
 2b222aa 222     -0.00000000      0.00000000      0.00000000     -0.00000000      0.00000001
 2a222ba 222     -0.00000000      0.00000000      0.00000000     -0.00000000      0.00000000
 22202a2 222      0.00000014     -0.00000984     -0.00001603      0.00000058     -0.06811676
 2a20222 222     -0.00137145      0.00000061      0.00000004     -0.06810296     -0.00000059
 222a202 222      0.06810295     -0.00000035      0.00000047     -0.00137145      0.00000013
 202a222 222      0.06810295     -0.00000035      0.00000047     -0.00137145      0.00000013
 
 Energy:       -109.33341791   -109.33341791   -109.33341791   -109.33341791   -109.33341791
 


 **********************************************************************************************************************************
 DATASETS  * FILE   NREC   LENGTH (MB)   RECORD NAMES
              1      21       32.08       500      610      700      900      950      970     1000      129      960     1100   
                                          VAR    BASINP    GEOM    SYMINP    ZMAT    AOBASIS   BASIS     P2S    ABASIS      S 
                                         1400     1410     1420     1200     1210     1080     1700     1600     1650     1380   
                                           T        V       ECP      H0       H01     AOSYM    OPER      SMH    MOLCAS    JKOP   
                                         1700(1)
                                         OPER   

              2       4        0.52       700     1000      520     2140   
                                         GEOM     BASIS   MCVARS    MCSCF   

 PROGRAMS   *        TOTAL     MULTI       INT
 CPU TIMES  *         2.68      1.88      0.51
 REAL TIME  *         3.41 SEC
 DISK USED  *        32.69 MB (local),      447.41 MB (total)
 SF USED    *        12.05 MB
 GA USED    *         0.00 MB       (max)       0.00 MB       (current)
 **********************************************************************************************************************************

 Energies and LL values

         ENERGY      LL
    -109.3809394   12.0
    -109.3809394   12.0
    -109.3809394   12.0
    -109.3809394   12.0
    -109.3809394   12.0
    -109.3809394   12.0
    -109.3809394   12.0
    -109.3273440    2.0
    -109.3273440    2.0
    -109.3273440    2.0
    -109.3526735   12.0
    -109.3526735   12.0
    -109.3526735   12.0
    -109.3526735   12.0
    -109.3526735   12.0
    -109.3526735   12.0
    -109.3526735   12.0
    -109.3334179    6.0
    -109.3334179    6.0
    -109.3334179    6.0
    -109.3334179    6.0
    -109.3334179    6.0
                                                  


 PROGRAM * CI (Multireference internally contracted CI)     Authors: H.-J. Werner, P.J. Knowles, 1987


 Convergence thresholds:  THRVAR = 1.00D-08  THRDEN = 1.00D-06

 Number of optimized states: 10  Roots:   1   2   3   4   5   6   7   8   9  10
 Number of reference states: 10  Roots:   1   2   3   4   5   6   7   8   9  10

 Reference symmetry:                   1   Quartet 
 Number of electrons:                 17
 Maximum number of shells:             3
 Maximum number of spin couplings:    14

 Reference space:       56 conf       56 CSFs
 N elec internal:      120 conf      120 CSFs
 N-1 el internal:      570 conf     1200 CSFs
 N-2 el internal:     1260 conf     7056 CSFs

 Number of electrons in valence space:                     17
 Maximum number of open shell orbitals in reference space:  3
 Maximum number of open shell orbitals in internal spaces:  7


 Number of active  orbitals:       10 (   7   3 )
 Number of external orbitals:      87 (  48  39 )

 Molecular orbitals read from record     2140.2  Type=MCSCF/NATURAL (state averaged)

 Valence orbitals related to previous ones by unitary transformation. Operators transformed.


 Number of p-space configurations:  20

 Reference wavefunction optimized for reference space (refopt=1)

 State     Reference Energy 
     1      -109.38093944
     2      -109.38093944
     3      -109.38093944
     4      -109.38093944
     5      -109.38093943
     6      -109.38093943
     7      -109.38093943
     8      -109.32734397
     9      -109.32734396
    10      -109.32734396

 Number of blocks in overlap matrix:    76   Smallest eigenvalue:  0.25D-03
 Number of N-2 electron functions:     908
 Number of N-1 electron functions:    1200

 Number of internal configurations:                   56
 Number of singly external configurations:         52056
 Number of doubly external configurations:       1719888
 Total number of contracted configurations:      1772000
 Total number of uncontracted configurations:   13328522

 Diagonal Coupling coefficients finished.               Storage:    519141 words, CPU-Time:      0.07 seconds.
 Energy denominators for pairs finished in 1 passes.    Storage:    460543 words, CPU-time:      0.04 seconds.

  ITER. STATE  ROOT     SQ.NORM     CORR.ENERGY   TOTAL ENERGY   ENERGY CHANGE       DEN1      VAR(S)    VAR(P)      TIME
    1     1     1     1.00000000     0.00000000  -109.38093944    -0.00000000    -0.67379778  0.25D-01  0.10D+00     0.47
    1     2     2     1.00000000     0.00000000  -109.38093944     0.00000000    -0.67186722  0.25D-01  0.10D+00     0.47
    1     3     3     1.00000000     0.00000000  -109.38093944     0.00000000    -0.67119890  0.25D-01  0.99D-01     0.47
    1     4     4     1.00000000     0.00000000  -109.38093944    -0.00000000    -0.67328603  0.25D-01  0.10D+00     0.47
    1     5     5     1.00000000     0.00000000  -109.38093943    -0.00000000    -0.67070561  0.25D-01  0.99D-01     0.47
    1     6     6     1.00000000     0.00000000  -109.38093943    -0.00000000    -0.67097195  0.25D-01  0.99D-01     0.47
    1     7     7     1.00000000     0.00000000  -109.38093943    -0.00000000    -0.66994598  0.25D-01  0.99D-01     0.47
    1     8     8     1.00000000     0.00000000  -109.32734397     0.00000000    -0.68209648  0.29D-01  0.10D+00     0.47
    1     9     9     1.00000000     0.00000000  -109.32734396     0.00000000    -0.68192436  0.29D-01  0.10D+00     0.47
    1    10    10     1.00000000     0.00000000  -109.32734396     0.00000000    -0.68207725  0.29D-01  0.10D+00     0.47
    2     1     1     1.08708680    -0.56260576  -109.94354519    -0.56260576    -0.01781561  0.11D-02  0.25D-02    32.33
    2     2     2     1.08703781    -0.56244766  -109.94338710    -0.56244766    -0.01787281  0.11D-02  0.25D-02    32.33
    2     3     3     1.08690675    -0.56206589  -109.94300533    -0.56206589    -0.01795456  0.11D-02  0.25D-02    32.33
    2     4     4     1.08685927    -0.56195642  -109.94289585    -0.56195642    -0.01797872  0.11D-02  0.25D-02    32.33
    2     5     5     1.08675722    -0.56174641  -109.94268585    -0.56174641    -0.01804192  0.11D-02  0.25D-02    32.33
    2     6     6     1.08673897    -0.56165439  -109.94259382    -0.56165439    -0.01808094  0.11D-02  0.25D-02    32.33
    2     7     7     1.08668266    -0.56150173  -109.94244116    -0.56150173    -0.01811525  0.11D-02  0.25D-02    32.33
    2     8     8     1.09203883    -0.57211618  -109.89946015    -0.57211618    -0.01749539  0.11D-02  0.26D-02    32.33
    2     9     9     1.09206021    -0.57210410  -109.89944806    -0.57210410    -0.01750604  0.11D-02  0.26D-02    32.33
    2    10    10     1.09205436    -0.57203977  -109.89938373    -0.57203977    -0.01755243  0.11D-02  0.26D-02    32.33
    3     1     1     1.08512210    -0.58141362  -109.96235305    -0.01880786    -0.00117041  0.32D-04  0.20D-03    63.86
    3     2     2     1.08506847    -0.58135739  -109.96229683    -0.01890973    -0.00119452  0.32D-04  0.20D-03    63.86
    3     3     3     1.08491233    -0.58122347  -109.96216291    -0.01915758    -0.00125327  0.34D-04  0.20D-03    63.86
    3     4     4     1.08487532    -0.58119843  -109.96213786    -0.01924201    -0.00126510  0.35D-04  0.20D-03    63.86
    3     5     5     1.08477821    -0.58110694  -109.96204637    -0.01936052    -0.00129803  0.36D-04  0.21D-03    63.86
    3     6     6     1.08475837    -0.58108507  -109.96202450    -0.01943068    -0.00131067  0.36D-04  0.21D-03    63.86
    3     7     7     1.08470717    -0.58103645  -109.96197588    -0.01953472    -0.00133510  0.37D-04  0.21D-03    63.86
    3     8     8     1.08907855    -0.59098811  -109.91833208    -0.01887193    -0.00122099  0.44D-04  0.20D-03    63.86
    3     9     9     1.08909091    -0.59098314  -109.91832710    -0.01887904    -0.00123016  0.44D-04  0.20D-03    63.86
    3    10    10     1.08908984    -0.59098282  -109.91832678    -0.01894305    -0.00122420  0.44D-04  0.20D-03    63.86
    4     1     1     1.08822378    -0.58308495  -109.96402439    -0.00167133    -0.00020270  0.81D-05  0.33D-04    96.41
    4     2     2     1.08819880    -0.58306998  -109.96400942    -0.00171259    -0.00020978  0.83D-05  0.34D-04    96.41
    4     3     3     1.08818416    -0.58304887  -109.96398830    -0.00182539    -0.00021560  0.90D-05  0.33D-04    96.41
    4     4     4     1.08818004    -0.58304862  -109.96398805    -0.00185019    -0.00021704  0.86D-05  0.34D-04    96.41
    4     5     5     1.08813822    -0.58302109  -109.96396052    -0.00191415    -0.00022621  0.92D-05  0.35D-04    96.41
    4     6     6     1.08814089    -0.58302047  -109.96395990    -0.00193540    -0.00022729  0.92D-05  0.35D-04    96.41
    4     7     7     1.08812388    -0.58301346  -109.96395289    -0.00197701    -0.00023046  0.95D-05  0.35D-04    96.41
    4     8     8     1.09227114    -0.59280927  -109.92015323    -0.00182116    -0.00020716  0.11D-04  0.32D-04    96.41
    4     9     9     1.09227300    -0.59280678  -109.92015074    -0.00182364    -0.00020750  0.11D-04  0.32D-04    96.41
    4    10    10     1.09225595    -0.59280061  -109.92014457    -0.00181779    -0.00021160  0.11D-04  0.33D-04    96.41
    5     1     1     1.08940179    -0.58334438  -109.96428382    -0.00025943    -0.00004312  0.78D-06  0.80D-05   128.19
    5     2     2     1.08938908    -0.58333892  -109.96427836    -0.00026894    -0.00004543  0.81D-06  0.84D-05   128.19
    5     3     3     1.08937754    -0.58333291  -109.96427235    -0.00028405    -0.00004639  0.91D-06  0.82D-05   128.19
    5     4     4     1.08937561    -0.58333238  -109.96427182    -0.00028376    -0.00004699  0.89D-06  0.84D-05   128.19
    5     5     5     1.08935716    -0.58332210  -109.96426153    -0.00030101    -0.00005064  0.98D-06  0.88D-05   128.19
    5     6     6     1.08935011    -0.58332160  -109.96426104    -0.00030114    -0.00005141  0.96D-06  0.90D-05   128.19
    5     7     7     1.08934046    -0.58331940  -109.96425883    -0.00030594    -0.00005235  0.10D-05  0.91D-05   128.19
    5     8     8     1.09346435    -0.59308803  -109.92043200    -0.00027876    -0.00004712  0.18D-05  0.85D-05   128.19
    5     9     9     1.09345755    -0.59308593  -109.92042989    -0.00027915    -0.00004857  0.17D-05  0.89D-05   128.19
    5    10    10     1.09344933    -0.59308251  -109.92042648    -0.00028190    -0.00005074  0.17D-05  0.94D-05   128.19
    6     1     1     1.08942104    -0.58340256  -109.96434200    -0.00005818    -0.00001292  0.56D-06  0.22D-05   159.87
    6     2     2     1.08940676    -0.58340054  -109.96433998    -0.00006162    -0.00001384  0.61D-06  0.23D-05   159.87
    6     3     3     1.08937605    -0.58340039  -109.96433983    -0.00006748    -0.00001265  0.61D-06  0.19D-05   159.87
    6     4     4     1.08937781    -0.58339978  -109.96433921    -0.00006740    -0.00001322  0.63D-06  0.20D-05   159.87
    6     5     5     1.08934789    -0.58339640  -109.96433584    -0.00007431    -0.00001443  0.68D-06  0.21D-05   159.87
    6     6     6     1.08934982    -0.58339539  -109.96433482    -0.00007379    -0.00001547  0.68D-06  0.24D-05   159.87
    6     7     7     1.08933897    -0.58339491  -109.96433434    -0.00007551    -0.00001562  0.68D-06  0.24D-05   159.87
    6     8     8     1.09343326    -0.59315520  -109.92049917    -0.00006717    -0.00001447  0.64D-06  0.24D-05   159.87
    6     9     9     1.09343195    -0.59315361  -109.92049757    -0.00006768    -0.00001555  0.68D-06  0.26D-05   159.87
    6    10    10     1.09342945    -0.59315155  -109.92049551    -0.00006903    -0.00001699  0.75D-06  0.28D-05   159.87
    7     1     1     1.08951896    -0.58341714  -109.96435658    -0.00001458    -0.00000403  0.99D-07  0.76D-06   191.43
    7     2     2     1.08953322    -0.58341692  -109.96435635    -0.00001637    -0.00000389  0.21D-06  0.60D-06   191.43
    7     3     3     1.08952359    -0.58341652  -109.96435595    -0.00001612    -0.00000419  0.18D-06  0.69D-06   191.43
    7     4     4     1.08951053    -0.58341637  -109.96435580    -0.00001659    -0.00000440  0.12D-06  0.81D-06   191.43
    7     5     5     1.08951534    -0.58341533  -109.96435477    -0.00001893    -0.00000465  0.24D-06  0.71D-06   191.43
    7     6     6     1.08949791    -0.58341452  -109.96435396    -0.00001913    -0.00000519  0.20D-06  0.87D-06   191.43
    7     7     7     1.08949799    -0.58341443  -109.96435387    -0.00001952    -0.00000523  0.22D-06  0.87D-06   191.43
    7     8     8     1.09359751    -0.59317217  -109.92051614    -0.00001697    -0.00000475  0.23D-06  0.86D-06   191.43
    7     9     9     1.09358552    -0.59317163  -109.92051560    -0.00001802    -0.00000491  0.25D-06  0.86D-06   191.43
    7    10    10     1.09356672    -0.59317065  -109.92051462    -0.00001911    -0.00000538  0.25D-06  0.98D-06   191.43
    8     1     1     1.08963363    -0.58342186  -109.96436129    -0.00000472    -0.00000123  0.36D-07  0.23D-06   223.06
    8     2     2     1.08964056    -0.58342178  -109.96436121    -0.00000486    -0.00000127  0.24D-07  0.23D-06   223.06
    8     3     3     1.08963551    -0.58342158  -109.96436101    -0.00000506    -0.00000138  0.27D-07  0.25D-06   223.06
    8     4     4     1.08962991    -0.58342155  -109.96436099    -0.00000518    -0.00000138  0.38D-07  0.25D-06   223.06
    8     5     5     1.08963257    -0.58342113  -109.96436057    -0.00000580    -0.00000158  0.29D-07  0.28D-06   223.06
    8     6     6     1.08962570    -0.58342077  -109.96436021    -0.00000625    -0.00000174  0.36D-07  0.31D-06   223.06
    8     7     7     1.08962451    -0.58342071  -109.96436015    -0.00000628    -0.00000180  0.35D-07  0.32D-06   223.06
    8     8     8     1.09373498    -0.59317786  -109.92052183    -0.00000569    -0.00000153  0.54D-07  0.28D-06   223.06
    8     9     9     1.09373114    -0.59317773  -109.92052169    -0.00000609    -0.00000160  0.57D-07  0.29D-06   223.06
    8    10    10     1.09372602    -0.59317736  -109.92052133    -0.00000671    -0.00000177  0.66D-07  0.33D-06   223.06
    9     1     1     1.08965868    -0.58342339  -109.96436283    -0.00000154    -0.00000044  0.17D-07  0.79D-07   254.92
    9     2     2     1.08965368    -0.58342336  -109.96436279    -0.00000158    -0.00000042  0.20D-07  0.70D-07   254.92
    9     3     3     1.08965255    -0.58342328  -109.96436271    -0.00000170    -0.00000046  0.23D-07  0.78D-07   254.92
    9     4     4     1.08965524    -0.58342327  -109.96436271    -0.00000172    -0.00000050  0.19D-07  0.89D-07   254.92
    9     5     5     1.08964621    -0.58342310  -109.96436253    -0.00000196    -0.00000054  0.26D-07  0.89D-07   254.92
    9     6     6     1.08964383    -0.58342296  -109.96436240    -0.00000219    -0.00000062  0.28D-07  0.10D-06   254.92
    9     7     7     1.08964189    -0.58342293  -109.96436236    -0.00000221    -0.00000064  0.29D-07  0.11D-06   254.92
    9     8     8     1.09373508    -0.59317984  -109.92052381    -0.00000198    -0.00000056  0.32D-07  0.95D-07   254.92
    9     9     9     1.09373392    -0.59317977  -109.92052373    -0.00000204    -0.00000062  0.26D-07  0.11D-06   254.92
    9    10    10     1.09373172    -0.59317962  -109.92052358    -0.00000225    -0.00000072  0.26D-07  0.13D-06   254.92
   10     1     1     1.08966898    -0.58342389  -109.96436332    -0.00000049    -0.00000015  0.62D-08  0.24D-07   286.84
   10     2     2     1.08966923    -0.58342388  -109.96436332    -0.00000052    -0.00000017  0.17D-08  0.35D-07   286.84
   10     3     3     1.08966711    -0.58342385  -109.96436329    -0.00000058    -0.00000017  0.53D-08  0.29D-07   286.84
   10     4     4     1.08966636    -0.58342383  -109.96436326    -0.00000056    -0.00000019  0.23D-08  0.39D-07   286.84
   10     5     5     1.08966329    -0.58342378  -109.96436322    -0.00000068    -0.00000020  0.78D-08  0.32D-07   286.84
   10     6     6     1.08965964    -0.58342372  -109.96436315    -0.00000075    -0.00000024  0.54D-08  0.43D-07   286.84
   10     7     7     1.08965869    -0.58342371  -109.96436314    -0.00000078    -0.00000024  0.73D-08  0.42D-07   286.84
   10     8     8     1.09375462    -0.59318049  -109.92052445    -0.00000065    -0.00000022  0.45D-08  0.44D-07   286.84
   10     9     9     1.09375128    -0.59318046  -109.92052442    -0.00000069    -0.00000024  0.54D-08  0.46D-07   286.84
   10    10    10     1.09374630    -0.59318038  -109.92052434    -0.00000076    -0.00000028  0.46D-08  0.57D-07   286.84
   11     1     1     1.08968590    -0.58342407  -109.96436350    -0.00000018    -0.00000005  0.12D-08  0.97D-08   318.64
   11     2     2     1.08968312    -0.58342406  -109.96436349    -0.00000018    -0.00000006  0.17D-08  0.12D-07   318.64
   11     3     3     1.08968395    -0.58342405  -109.96436349    -0.00000020    -0.00000006  0.12D-08  0.12D-07   318.64
   11     4     4     1.08968160    -0.58342403  -109.96436347    -0.00000021    -0.00000007  0.19D-08  0.14D-07   318.64
   11     5     5     1.08968270    -0.58342403  -109.96436346    -0.00000024    -0.00000008  0.16D-08  0.14D-07   318.64
   11     6     6     1.08967924    -0.58342399  -109.96436342    -0.00000027    -0.00000010  0.21D-08  0.18D-07   318.64
   11     7     7     1.08967885    -0.58342399  -109.96436342    -0.00000028    -0.00000010  0.20D-08  0.19D-07   318.64
   11     8     8     1.09377606    -0.59318073  -109.92052469    -0.00000024    -0.00000009  0.37D-08  0.16D-07   318.64
   11     9     9     1.09377483    -0.59318072  -109.92052468    -0.00000026    -0.00000009  0.39D-08  0.18D-07   318.64
   11    10    10     1.09377236    -0.59318069  -109.92052465    -0.00000031    -0.00000011  0.50D-08  0.20D-07   318.64
   12     1     1     1.08969157    -0.58342413  -109.96436357    -0.00000006    -0.00000002  0.62D-09  0.36D-08   350.81
   12     2     2     1.08969139    -0.58342412  -109.96436356    -0.00000007    -0.00000002  0.44D-09  0.49D-08   350.81
   12     3     3     1.08969075    -0.58342412  -109.96436356    -0.00000007    -0.00000002  0.74D-09  0.45D-08   350.81
   12     4     4     1.08969031    -0.58342412  -109.96436355    -0.00000008    -0.00000003  0.50D-09  0.58D-08   350.81
   12     5     5     1.08968942    -0.58342411  -109.96436355    -0.00000009    -0.00000003  0.91D-09  0.53D-08   350.81
   12     6     6     1.08968776    -0.58342410  -109.96436353    -0.00000011    -0.00000004  0.10D-08  0.72D-08   350.81
   12     7     7     1.08968727    -0.58342409  -109.96436353    -0.00000011    -0.00000004  0.98D-09  0.75D-08   350.81
   12     8     8     1.09378125    -0.59318083  -109.92052479    -0.00000010    -0.00000003  0.13D-08  0.67D-08   350.81
   12     9     9     1.09378073    -0.59318083  -109.92052479    -0.00000010    -0.00000004  0.95D-09  0.76D-08   350.81
   12    10    10     1.09377948    -0.59318081  -109.92052477    -0.00000012    -0.00000005  0.79D-09  0.95D-08   350.81
   13     1     1     1.08969158    -0.58342413  -109.96436357    -0.00000000    -0.00000002  0.63D-09  0.36D-08   355.61
   13     2     2     1.08969139    -0.58342412  -109.96436356     0.00000000    -0.00000002  0.44D-09  0.49D-08   355.61
   13     3     3     1.08969075    -0.58342412  -109.96436356     0.00000000    -0.00000002  0.74D-09  0.45D-08   355.61
   13     4     4     1.08969031    -0.58342412  -109.96436355    -0.00000000    -0.00000003  0.50D-09  0.58D-08   355.61
   13     5     5     1.08968945    -0.58342411  -109.96436355    -0.00000000    -0.00000003  0.90D-09  0.54D-08   355.61
   13     6     6     1.08968776    -0.58342410  -109.96436353     0.00000000    -0.00000004  0.10D-08  0.72D-08   355.61
   13     7     7     1.08968727    -0.58342409  -109.96436353     0.00000000    -0.00000004  0.98D-09  0.75D-08   355.61
   13     8     8     1.09379314    -0.59318088  -109.92052485    -0.00000006    -0.00000001  0.67D-09  0.20D-08   355.61
   13     9     9     1.09378125    -0.59318083  -109.92052479    -0.00000000    -0.00000003  0.13D-08  0.67D-08   355.61
   13    10    10     1.09378073    -0.59318083  -109.92052479    -0.00000002    -0.00000004  0.95D-09  0.76D-08   355.61


 =====================================
 Analysis of CPU times by interactions
 =====================================

       I      S      P

 I   0.0%
 S   0.0%   0.2%
 P   0.2%   6.0%  73.4%

 Initialization:   0.1%
 Other:           20.0%

 Total CPU:      355.6 seconds
 =====================================



 Wavefunction saved on  5103.2

 Reference coefficients greater than 0.0500000
 =============================================
 2/2/22/222           0.0000000   0.9579618   0.0000000  -0.0000000  -0.0000000  -0.0000000   0.0000000  -0.0000000   0.0000000
                     -0.0000000
 222/2//222           0.0000000  -0.0000000  -0.0000000   0.9533137   0.0000000   0.0000000  -0.0942590  -0.0000000   0.0000000
                      0.0000003
 22/22//222          -0.0000000   0.0000000   0.0330383  -0.0000000  -0.0000000   0.8561916   0.0000000   0.0000000   0.4274386
                     -0.0000000
 2/222//222           0.0000000   0.0000000  -0.0000000   0.0421539  -0.0000000  -0.0000000   0.4263353  -0.0000000  -0.0000000
                      0.8548748
 2//222/222           0.8533209   0.0000000   0.0000000   0.0000000  -0.0774341   0.0000000   0.0000000  -0.4274350   0.0000000
                      0.0000000
 22/2/2/222          -0.0000000  -0.0000000   0.0000000   0.0843077  -0.0000000   0.0000000   0.8526710   0.0000000   0.0000000
                     -0.4274375
 2222///222          -0.1383546   0.0000000  -0.0000000   0.0000000   0.8455838   0.0000000   0.0000000  -0.4274353   0.0000000
                      0.0000000
 2/22/2/222          -0.0000000  -0.0000000   0.8372622  -0.0000000   0.0000000   0.1820580  -0.0000000   0.0000000  -0.4274372
                     -0.0000000
 222//2/222          -0.0000000   0.0000000   0.4643187   0.0000000   0.0000000  -0.3892105  -0.0000000   0.0000000   0.7403426
                     -0.0000000
 22//22/222           0.4127859  -0.0000000  -0.0000000  -0.0000000   0.4434913   0.0000000  -0.0000000   0.7403391  -0.0000000
                     -0.0000000

 Coefficients of fixed reference functions:
 ==========================================

 State      Coefficients
 1           0.000000   -0.000000   -0.698227    0.000000   -0.000000    0.655873   -0.000000    0.000000   -0.000000    0.000000
 2           0.957962   -0.000000    0.000000   -0.000000   -0.000000    0.000000   -0.000000    0.000000    0.000000   -0.000000
 3           0.000000    0.776692   -0.000000   -0.000000   -0.560750   -0.000000    0.000000   -0.000000   -0.000000   -0.000000
 4          -0.000000   -0.000000   -0.000000    0.952937   -0.000000   -0.000000    0.097991    0.000000    0.000000   -0.000000
 5          -0.000000   -0.000000    0.655874    0.000000   -0.000000    0.698228   -0.000000    0.000000    0.000000   -0.000000
 6          -0.000000    0.560751    0.000000    0.000000    0.776693    0.000000   -0.000000   -0.000000    0.000001    0.000000
 7           0.000000    0.000000   -0.000000   -0.097991    0.000000    0.000000    0.952939   -0.000000   -0.000000   -0.000000
 8          -0.000000    0.000000   -0.000000   -0.000000   -0.000000   -0.000000   -0.000000   -0.000000    0.000000    0.956120
 9           0.000000    0.000001   -0.000000    0.000000    0.000001    0.000000   -0.000000   -0.000000    0.956125   -0.000000
 10         -0.000000   -0.000000   -0.000000    0.000000    0.000000    0.000000   -0.000000    0.956125   -0.000000   -0.000000

 Coefficients of rotated reference functions:
 ============================================

 State      Coefficients
 1           0.957962    0.000000    0.000000    0.000000    0.000000    0.000000   -0.000000    0.000000   -0.000000    0.000000
 2           0.000000    0.957962    0.000000   -0.000000    0.000000   -0.000000   -0.000000   -0.000000    0.000000   -0.000000
 3           0.000000    0.000000    0.957962   -0.000000    0.000000   -0.000000   -0.000000    0.000000   -0.000000   -0.000000
 4           0.000000   -0.000000   -0.000000    0.957962    0.000000    0.000000    0.000000   -0.000000    0.000000    0.000000
 5           0.000000    0.000000    0.000000    0.000000    0.957963    0.000000   -0.000000   -0.000000    0.000000    0.000000
 6           0.000000   -0.000000   -0.000000    0.000000    0.000000    0.957963   -0.000000    0.000000    0.000001   -0.000000
 7          -0.000000   -0.000000   -0.000000    0.000000   -0.000000   -0.000000    0.957964   -0.000000   -0.000000   -0.000000
 8           0.000000   -0.000000    0.000000   -0.000000   -0.000000    0.000000   -0.000000    0.956120   -0.000000   -0.000000
 9          -0.000000    0.000000   -0.000000    0.000000    0.000000    0.000001   -0.000000   -0.000000    0.956125   -0.000000
 10          0.000000   -0.000000   -0.000000    0.000000    0.000000   -0.000000   -0.000000   -0.000000   -0.000000    0.956125


 RESULTS FOR STATE 1.1
 =====================

 Maximum overlap with reference state  3

 Coefficient of reference function:   C(0) = 0.69822685 (fixed)   0.95796182 (relaxed)   0.95796169 (rotated)

 Energy contributions of configuration classes

 CLASS          SQ.NORM        ECORR1        ECORR2
 +++++++++++++++++++++++++++++++++++++++++++++++++++
 Internals    0.00000028   -0.00000000   -0.46744891
 Singles      0.01457361   -0.07404894   -0.07575963
 Pairs        0.07511800   -0.00000007   -0.04021559
 Total        1.08969189   -0.07404901   -0.58342413
 +++++++++++++++++++++++++++++++++++++++++++++++++++


 Reference energy                    -109.38093943
 Nuclear energy                         0.00000000
 Kinetic energy                        41.44158760
 One electron energy                 -193.12066800
 Two electron energy                   83.15630444
 Virial quotient                       -2.65347855
 Correlation energy                    -0.58342413
 !MRCI STATE 1.1 Energy              -109.964363565942

 Properties without orbital relaxation:

 !MRCI STATE 1.1 Dipole moment          0.00000000     0.00000000     0.00000000
 Dipole moment /Debye                   0.00000000     0.00000000     0.00000000

 Cluster corrected energies          -110.01669198 (Davidson, fixed reference)
 Cluster corrected energies          -110.01669180 (Davidson, relaxed reference)
 Cluster corrected energies          -110.01669198 (Davidson, rotated reference)

 Cluster corrected energies          -110.01223295 (Pople, fixed reference)
 Cluster corrected energies          -110.01223277 (Pople, relaxed reference)
 Cluster corrected energies          -110.01223295 (Pople, rotated reference)



 RESULTS FOR STATE 2.1
 =====================

 Maximum overlap with reference state  1

 Coefficient of reference function:   C(0) = 0.95796177 (fixed)   0.95796191 (relaxed)   0.95796177 (rotated)

 Energy contributions of configuration classes

 CLASS          SQ.NORM        ECORR1        ECORR2
 +++++++++++++++++++++++++++++++++++++++++++++++++++
 Internals    0.00000028   -0.00000000   -0.46744852
 Singles      0.01457361   -0.07404952   -0.07576008
 Pairs        0.07511780    0.00000000   -0.04021552
 Total        1.08969170   -0.07404952   -0.58342412
 +++++++++++++++++++++++++++++++++++++++++++++++++++


 Reference energy                    -109.38093944
 Nuclear energy                         0.00000000
 Kinetic energy                        41.44156900
 One electron energy                 -193.12065146
 Two electron energy                   83.15628790
 Virial quotient                       -2.65347974
 Correlation energy                    -0.58342412
 !MRCI STATE 2.1 Energy              -109.964363560667

 Properties without orbital relaxation:

 !MRCI STATE 2.1 Dipole moment          0.00000000     0.00000000     0.00000000
 Dipole moment /Debye                   0.00000000     0.00000000     0.00000000

 Cluster corrected energies          -110.01669186 (Davidson, fixed reference)
 Cluster corrected energies          -110.01669168 (Davidson, relaxed reference)
 Cluster corrected energies          -110.01669186 (Davidson, rotated reference)

 Cluster corrected energies          -110.01223283 (Pople, fixed reference)
 Cluster corrected energies          -110.01223266 (Pople, relaxed reference)
 Cluster corrected energies          -110.01223283 (Pople, rotated reference)



 RESULTS FOR STATE 3.1
 =====================

 Maximum overlap with reference state  2

 Coefficient of reference function:   C(0) = 0.77669184 (fixed)   0.95796219 (relaxed)   0.95796205 (rotated)

 Energy contributions of configuration classes

 CLASS          SQ.NORM        ECORR1        ECORR2
 +++++++++++++++++++++++++++++++++++++++++++++++++++
 Internals    0.00000028    0.00000000   -0.46745011
 Singles      0.01457323   -0.07404808   -0.07575967
 Pairs        0.07511755    0.00000000   -0.04021434
 Total        1.08969106   -0.07404808   -0.58342412
 +++++++++++++++++++++++++++++++++++++++++++++++++++


 Reference energy                    -109.38093944
 Nuclear energy                         0.00000000
 Kinetic energy                        41.44157010
 One electron energy                 -193.12065888
 Two electron energy                   83.15629532
 Virial quotient                       -2.65347967
 Correlation energy                    -0.58342412
 !MRCI STATE 3.1 Energy              -109.964363557890

 Properties without orbital relaxation:

 !MRCI STATE 3.1 Dipole moment          0.00000000     0.00000000     0.00000000
 Dipole moment /Debye                   0.00000000     0.00000000     0.00000000

 Cluster corrected energies          -110.01669149 (Davidson, fixed reference)
 Cluster corrected energies          -110.01669131 (Davidson, relaxed reference)
 Cluster corrected energies          -110.01669149 (Davidson, rotated reference)

 Cluster corrected energies          -110.01223247 (Pople, fixed reference)
 Cluster corrected energies          -110.01223229 (Pople, relaxed reference)
 Cluster corrected energies          -110.01223247 (Pople, rotated reference)



 RESULTS FOR STATE 4.1
 =====================

 Coefficient of reference function:   C(0) = 0.95293731 (fixed)   0.95796238 (relaxed)   0.95796225 (rotated)

 Energy contributions of configuration classes

 CLASS          SQ.NORM        ECORR1        ECORR2
 +++++++++++++++++++++++++++++++++++++++++++++++++++
 Internals    0.00000028   -0.00000000   -0.46744915
 Singles      0.01457353   -0.07404933   -0.07576013
 Pairs        0.07511680    0.00000000   -0.04021483
 Total        1.08969062   -0.07404933   -0.58342412
 +++++++++++++++++++++++++++++++++++++++++++++++++++


 Reference energy                    -109.38093944
 Nuclear energy                         0.00000000
 Kinetic energy                        41.44156826
 One electron energy                 -193.12065394
 Two electron energy                   83.15629039
 Virial quotient                       -2.65347978
 Correlation energy                    -0.58342412
 !MRCI STATE 4.1 Energy              -109.964363551421

 Properties without orbital relaxation:

 !MRCI STATE 4.1 Dipole moment          0.00000000     0.00000000     0.00000000
 Dipole moment /Debye                   0.00000000     0.00000000     0.00000000

 Cluster corrected energies          -110.01669122 (Davidson, fixed reference)
 Cluster corrected energies          -110.01669104 (Davidson, relaxed reference)
 Cluster corrected energies          -110.01669122 (Davidson, rotated reference)

 Cluster corrected energies          -110.01223221 (Pople, fixed reference)
 Cluster corrected energies          -110.01223203 (Pople, relaxed reference)
 Cluster corrected energies          -110.01223221 (Pople, rotated reference)



 RESULTS FOR STATE 5.1
 =====================

 Maximum overlap with reference state  6

 Coefficient of reference function:   C(0) = 0.69822780 (fixed)   0.95796276 (relaxed)   0.95796263 (rotated)

 Energy contributions of configuration classes

 CLASS          SQ.NORM        ECORR1        ECORR2
 +++++++++++++++++++++++++++++++++++++++++++++++++++
 Internals    0.00000028   -0.00000000   -0.46745105
 Singles      0.01457325   -0.07404796   -0.07575959
 Pairs        0.07511622    0.00000030   -0.04021347
 Total        1.08968976   -0.07404766   -0.58342411
 +++++++++++++++++++++++++++++++++++++++++++++++++++


 Reference energy                    -109.38093943
 Nuclear energy                         0.00000000
 Kinetic energy                        41.44158925
 One electron energy                 -193.12068172
 Two electron energy                   83.15631817
 Virial quotient                       -2.65347844
 Correlation energy                    -0.58342411
 !MRCI STATE 5.1 Energy              -109.964363546894

 Properties without orbital relaxation:

 !MRCI STATE 5.1 Dipole moment          0.00000000     0.00000000     0.00000000
 Dipole moment /Debye                   0.00000000     0.00000000     0.00000000

 Cluster corrected energies          -110.01669071 (Davidson, fixed reference)
 Cluster corrected energies          -110.01669053 (Davidson, relaxed reference)
 Cluster corrected energies          -110.01669071 (Davidson, rotated reference)

 Cluster corrected energies          -110.01223171 (Pople, fixed reference)
 Cluster corrected energies          -110.01223154 (Pople, relaxed reference)
 Cluster corrected energies          -110.01223171 (Pople, rotated reference)



 RESULTS FOR STATE 6.1
 =====================

 Maximum overlap with reference state  5

 Coefficient of reference function:   C(0) = 0.77669308 (fixed)   0.95796351 (relaxed)   0.95796337 (rotated)

 Energy contributions of configuration classes

 CLASS          SQ.NORM        ECORR1        ECORR2
 +++++++++++++++++++++++++++++++++++++++++++++++++++
 Internals    0.00000028    0.00000000   -0.46745202
 Singles      0.01457294   -0.07404738   -0.07575976
 Pairs        0.07511484    0.00000000   -0.04021232
 Total        1.08968806   -0.07404738   -0.58342410
 +++++++++++++++++++++++++++++++++++++++++++++++++++


 Reference energy                    -109.38093943
 Nuclear energy                         0.00000000
 Kinetic energy                        41.44157381
 One electron energy                 -193.12067488
 Two electron energy                   83.15631135
 Virial quotient                       -2.65347943
 Correlation energy                    -0.58342410
 !MRCI STATE 6.1 Energy              -109.964363530320

 Properties without orbital relaxation:

 !MRCI STATE 6.1 Dipole moment          0.00000000     0.00000000     0.00000000
 Dipole moment /Debye                   0.00000000     0.00000000     0.00000000

 Cluster corrected energies          -110.01668971 (Davidson, fixed reference)
 Cluster corrected energies          -110.01668953 (Davidson, relaxed reference)
 Cluster corrected energies          -110.01668971 (Davidson, rotated reference)

 Cluster corrected energies          -110.01223073 (Pople, fixed reference)
 Cluster corrected energies          -110.01223056 (Pople, relaxed reference)
 Cluster corrected energies          -110.01223073 (Pople, rotated reference)



 RESULTS FOR STATE 7.1
 =====================

 Coefficient of reference function:   C(0) = 0.95293864 (fixed)   0.95796372 (relaxed)   0.95796359 (rotated)

 Energy contributions of configuration classes

 CLASS          SQ.NORM        ECORR1        ECORR2
 +++++++++++++++++++++++++++++++++++++++++++++++++++
 Internals    0.00000028    0.00000000   -0.46745198
 Singles      0.01457303   -0.07404764   -0.07575985
 Pairs        0.07511426    0.00000000   -0.04021226
 Total        1.08968757   -0.07404764   -0.58342409
 +++++++++++++++++++++++++++++++++++++++++++++++++++


 Reference energy                    -109.38093943
 Nuclear energy                         0.00000000
[...]
    7    7.1  1.5  1.5   0.113%   0.000%   0.005%   0.482%   0.000%   0.005%   0.000%   0.610%   0.000%   0.026%
    8    8.1  1.5  1.5   0.000%   0.000%   0.005%   0.000%   0.348%   0.000%   0.177%   0.000%   3.819%   0.000%
    9    9.1  1.5  1.5   0.000%   0.000%   0.005%   0.000%   0.348%   0.000%   0.163%   0.000%   4.808%   0.000%
   10   10.1  1.5  1.5   0.000%   0.000%   0.010%   1.035%   0.000%   0.014%   0.000%   3.545%   0.000%   0.129%
   11    1.1  1.5  0.5   1.013%   0.004%   0.006%   0.618%   0.000%   1.133%   0.000%   0.310%   0.000%   0.227%
   12    2.1  1.5  0.5   0.000%   0.001%   2.312%   0.023%   0.031%   0.000%   0.176%   0.000%   0.345%   0.000%
   13    3.1  1.5  0.5   0.475%   0.002%   0.003%   0.347%   0.000%   1.873%   0.000%   0.354%   0.000%   0.185%
   14    4.1  1.5  0.5   0.000%   0.066%   2.220%   0.022%   0.143%   0.000%   0.027%   0.000%   0.500%   0.000%
   15    5.1  1.5  0.5   0.106%   0.000%   0.007%   0.714%   0.000%   1.308%   0.000%   0.135%   0.000%   0.415%
   16    6.1  1.5  0.5   0.016%   0.000%   0.002%   0.244%   0.000%   1.316%   0.000%   0.087%   0.000%   0.446%
   17    7.1  1.5  0.5   0.001%   0.154%   0.148%   0.001%   4.091%   0.000%   0.000%   0.000%   0.002%   0.000%
   18    8.1  1.5  0.5   0.000%   0.000%   0.003%   0.259%   0.000%   0.562%   0.000%   2.705%   0.000%   0.268%
   19    9.1  1.5  0.5   0.000%   0.000%   0.004%   0.443%   0.000%   0.376%   0.000%   2.613%   0.000%   0.011%
   20   10.1  1.5  0.5   0.000%   0.000%   0.002%   0.000%   0.116%   0.000%   0.001%   0.000%   0.171%   0.000%
   21    1.1  1.5 -0.5   0.004%   1.013%   0.618%   0.006%   1.133%   0.000%   0.310%   0.000%   0.227%   0.000%
   22    2.1  1.5 -0.5   0.001%   0.000%   0.023%   2.312%   0.000%   0.031%   0.000%   0.176%   0.000%   0.345%
   23    3.1  1.5 -0.5   0.002%   0.475%   0.347%   0.003%   1.873%   0.000%   0.354%   0.000%   0.185%   0.000%
   24    4.1  1.5 -0.5   0.066%   0.000%   0.022%   2.220%   0.000%   0.143%   0.000%   0.027%   0.000%   0.500%
   25    5.1  1.5 -0.5   0.000%   0.106%   0.714%   0.007%   1.308%   0.000%   0.135%   0.000%   0.415%   0.000%
   26    6.1  1.5 -0.5   0.000%   0.016%   0.244%   0.002%   1.316%   0.000%   0.087%   0.000%   0.446%   0.000%
   27    7.1  1.5 -0.5   0.154%   0.001%   0.001%   0.148%   0.000%   4.091%   0.000%   0.000%   0.000%   0.002%
   28    8.1  1.5 -0.5   0.000%   0.000%   0.259%   0.003%   0.562%   0.000%   2.705%   0.000%   0.268%   0.000%
   29    9.1  1.5 -0.5   0.000%   0.000%   0.443%   0.004%   0.376%   0.000%   2.613%   0.000%   0.011%   0.000%
   30   10.1  1.5 -0.5   0.000%   0.000%   0.000%   0.002%   0.000%   0.116%   0.000%   0.001%   0.000%   0.171%
   31    1.1  1.5 -1.5   0.018%   0.000%   0.022%   2.245%   0.000%   0.708%   0.000%   0.160%   0.000%   0.059%
   32    2.1  1.5 -1.5   0.000%   0.015%   0.031%   0.000%   2.335%   0.000%   0.000%   0.000%   0.016%   0.000%
   33    3.1  1.5 -1.5   0.392%   0.002%   0.021%   2.151%   0.000%   0.337%   0.000%   0.123%   0.000%   0.193%
   34    4.1  1.5 -1.5   0.003%   0.827%   0.012%   0.000%   2.336%   0.000%   0.005%   0.000%   0.013%   0.000%
   35    5.1  1.5 -1.5   0.067%   0.000%   0.024%   2.391%   0.000%   0.289%   0.000%   0.230%   0.000%   0.008%
   36    6.1  1.5 -1.5   0.179%   0.001%   0.025%   2.485%   0.000%   0.660%   0.000%   0.265%   0.000%   0.046%
   37    7.1  1.5 -1.5   0.000%   0.113%   0.482%   0.005%   0.005%   0.000%   0.610%   0.000%   0.026%   0.000%
   38    8.1  1.5 -1.5   0.000%   0.000%   0.000%   0.005%   0.000%   0.348%   0.000%   0.177%   0.000%   3.819%
   39    9.1  1.5 -1.5   0.000%   0.000%   0.000%   0.005%   0.000%   0.348%   0.000%   0.163%   0.000%   4.808%
   40   10.1  1.5 -1.5   0.000%   0.000%   1.035%   0.010%   0.014%   0.000%   3.545%   0.000%   0.129%   0.000%
   41    1.1  0.5  0.5   0.022%   5.646%   0.000%   0.000%   0.000%   0.000%  23.066%   0.000%  11.039%   0.000%
   42    2.1  0.5  0.5   1.389%   0.006%   0.000%   0.000%   0.000%   0.000%   0.000%   5.116%   0.000%  18.324%
   43    3.1  0.5  0.5  12.206%   0.049%   0.000%   0.000%   0.000%   0.000%   0.000%  11.977%   0.000%   4.271%
   44    4.1  0.5  0.5   0.089%  22.413%   0.000%   0.000%   0.000%   0.000%   0.003%   0.000%   1.074%   0.000%
   45    5.1  0.5  0.5  21.474%   0.086%   0.000%   0.000%   0.000%   0.000%   0.000%   0.000%   0.000%  28.026%
   46    6.1  0.5  0.5   0.004%   0.889%   0.000%   0.000%   0.000%   0.000%  32.777%   0.000%   1.721%   0.000%
   47    7.1  0.5  0.5  32.143%   0.128%   0.000%   0.000%   0.000%   0.000%   0.000%   7.631%   0.000%  16.115%
   48    8.1  0.5  0.5   0.000%   0.000%   0.114%  11.497%   0.000%  21.059%   0.000%   3.034%   0.000%   0.300%
   49    9.1  0.5  0.5   0.000%   0.000%   0.051%   5.104%   0.000%  27.515%   0.000%   2.931%   0.000%   0.012%
   50   10.1  0.5  0.5   0.000%   0.000%  32.087%   0.319%   0.264%   0.000%   1.542%   0.000%   2.982%   0.000%
   51   11.1  0.5  0.5   0.000%   0.000%   0.261%   0.003%  32.404%   0.000%   0.000%   0.000%   0.179%   0.000%
   52   12.1  0.5  0.5   0.000%   0.000%  31.920%   0.317%   0.431%   0.000%   0.235%   0.000%   4.270%   0.000%
   53    1.1  0.5 -0.5   5.646%   0.022%   0.000%   0.000%   0.000%   0.000%   0.000%  23.066%   0.000%  11.039%
   54    2.1  0.5 -0.5   0.006%   1.389%   0.000%   0.000%   0.000%   0.000%   5.116%   0.000%  18.324%   0.000%
   55    3.1  0.5 -0.5   0.049%  12.206%   0.000%   0.000%   0.000%   0.000%  11.977%   0.000%   4.271%   0.000%
   56    4.1  0.5 -0.5  22.413%   0.089%   0.000%   0.000%   0.000%   0.000%   0.000%   0.003%   0.000%   1.074%
   57    5.1  0.5 -0.5   0.086%  21.474%   0.000%   0.000%   0.000%   0.000%   0.000%   0.000%  28.026%   0.000%
   58    6.1  0.5 -0.5   0.889%   0.004%   0.000%   0.000%   0.000%   0.000%   0.000%  32.777%   0.000%   1.721%
   59    7.1  0.5 -0.5   0.128%  32.143%   0.000%   0.000%   0.000%   0.000%   7.631%   0.000%  16.115%   0.000%
   60    8.1  0.5 -0.5   0.000%   0.000%  11.497%   0.114%  21.059%   0.000%   3.034%   0.000%   0.300%   0.000%
   61    9.1  0.5 -0.5   0.000%   0.000%   5.104%   0.051%  27.515%   0.000%   2.931%   0.000%   0.012%   0.000%
   62   10.1  0.5 -0.5   0.000%   0.000%   0.319%  32.087%   0.000%   0.264%   0.000%   1.542%   0.000%   2.982%
   63   11.1  0.5 -0.5   0.000%   0.000%   0.003%   0.261%   0.000%  32.404%   0.000%   0.000%   0.000%   0.179%
   64   12.1  0.5 -0.5   0.000%   0.000%   0.317%  31.920%   0.000%   0.431%   0.000%   0.235%   0.000%   4.270%

   Nr   State  S   Sz      51       52       53       54       55       56       57       58       59       60

    1    1.1  1.5  1.5   0.278%   0.000%   0.000%   0.020%   0.000%   0.032%   0.028%   0.000%   0.009%   0.000%
    2    2.1  1.5  1.5   0.000%   0.515%   0.000%   0.000%   0.001%   0.000%   0.000%   0.084%   0.000%   0.007%
    3    3.1  1.5  1.5   0.208%   0.000%   0.000%   0.013%   0.000%   0.017%   0.053%   0.000%   0.000%   0.000%
    4    4.1  1.5  1.5   0.000%   0.515%   0.001%   0.000%   0.002%   0.000%   0.000%   0.082%   0.000%   0.008%
    5    5.1  1.5  1.5   0.275%   0.000%   0.000%   0.039%   0.000%   0.005%   0.038%   0.000%   0.000%   0.000%
    6    6.1  1.5  1.5   0.176%   0.000%   0.000%   0.046%   0.000%   0.000%   0.032%   0.000%   0.009%   0.000%
    7    7.1  1.5  1.5   0.000%   0.001%   0.090%   0.000%   0.010%   0.000%   0.000%   0.002%   0.000%   0.000%
    8    8.1  1.5  1.5   1.067%   0.000%   0.000%   4.716%   0.102%  39.569%   1.617%   0.001%  13.360%   0.078%
    9    9.1  1.5  1.5   0.092%   0.000%   0.000%   4.769%   0.086%  33.389%   7.756%   0.003%  13.358%   0.078%
   10   10.1  1.5  1.5   0.000%   0.008%  29.665%   0.000%   3.718%   0.010%   0.000%   0.068%   0.107%  18.472%
   11    1.1  1.5  0.5   0.000%   0.029%   0.062%   0.000%   0.028%   0.000%   0.000%   0.000%   0.000%   0.001%
   12    2.1  1.5  0.5   0.010%   0.000%   0.000%   0.041%   0.000%   0.044%   0.001%   0.000%   0.003%   0.000%
   13    3.1  1.5  0.5   0.000%   0.001%   0.068%   0.000%   0.015%   0.000%   0.000%   0.003%   0.000%   0.010%
   14    4.1  1.5  0.5   0.004%   0.000%   0.000%   0.000%   0.000%   0.080%   0.004%   0.000%   0.005%   0.000%
   15    5.1  1.5  0.5   0.000%   0.000%   0.011%   0.000%   0.071%   0.000%   0.000%   0.005%   0.000%   0.002%
   16    6.1  1.5  0.5   0.000%   0.044%   0.006%   0.000%   0.086%   0.000%   0.000%   0.000%   0.000%   0.007%
   17    7.1  1.5  0.5   0.424%   0.000%   0.000%   0.000%   0.000%   0.004%   0.064%   0.000%   0.012%   0.000%
   18    8.1  1.5  0.5   0.000%   1.169%  22.148%   0.000%   1.503%   0.004%   0.006%  13.980%   0.261%  44.913%
   19    9.1  1.5  0.5   0.000%   1.518%  22.349%   0.000%   4.464%   0.012%   0.005%  10.812%   0.018%   3.024%
   20   10.1  1.5  0.5   5.352%   0.000%   0.000%   0.000%   0.002%   0.786%  49.375%   0.022%   4.454%   0.026%
   21    1.1  1.5 -0.5   0.029%   0.000%   0.000%   0.062%   0.000%   0.028%   0.000%   0.000%   0.001%   0.000%
   22    2.1  1.5 -0.5   0.000%   0.010%   0.041%   0.000%   0.044%   0.000%   0.000%   0.001%   0.000%   0.003%
   23    3.1  1.5 -0.5   0.001%   0.000%   0.000%   0.068%   0.000%   0.015%   0.003%   0.000%   0.010%   0.000%
   24    4.1  1.5 -0.5   0.000%   0.004%   0.000%   0.000%   0.080%   0.000%   0.000%   0.004%   0.000%   0.005%
   25    5.1  1.5 -0.5   0.000%   0.000%   0.000%   0.011%   0.000%   0.071%   0.005%   0.000%   0.002%   0.000%
   26    6.1  1.5 -0.5   0.044%   0.000%   0.000%   0.006%   0.000%   0.086%   0.000%   0.000%   0.007%   0.000%
   27    7.1  1.5 -0.5   0.000%   0.424%   0.000%   0.000%   0.004%   0.000%   0.000%   0.064%   0.000%   0.012%
   28    8.1  1.5 -0.5   1.169%   0.000%   0.000%  22.148%   0.004%   1.503%  13.980%   0.006%  44.913%   0.261%
   29    9.1  1.5 -0.5   1.518%   0.000%   0.000%  22.349%   0.012%   4.464%  10.812%   0.005%   3.024%   0.018%
   30   10.1  1.5 -0.5   0.000%   5.352%   0.000%   0.000%   0.786%   0.002%   0.022%  49.375%   0.026%   4.454%
   31    1.1  1.5 -1.5   0.000%   0.278%   0.020%   0.000%   0.032%   0.000%   0.000%   0.028%   0.000%   0.009%
   32    2.1  1.5 -1.5   0.515%   0.000%   0.000%   0.000%   0.000%   0.001%   0.084%   0.000%   0.007%   0.000%
   33    3.1  1.5 -1.5   0.000%   0.208%   0.013%   0.000%   0.017%   0.000%   0.000%   0.053%   0.000%   0.000%
   34    4.1  1.5 -1.5   0.515%   0.000%   0.000%   0.001%   0.000%   0.002%   0.082%   0.000%   0.008%   0.000%
   35    5.1  1.5 -1.5   0.000%   0.275%   0.039%   0.000%   0.005%   0.000%   0.000%   0.038%   0.000%   0.000%
   36    6.1  1.5 -1.5   0.000%   0.176%   0.046%   0.000%   0.000%   0.000%   0.000%   0.032%   0.000%   0.009%
   37    7.1  1.5 -1.5   0.001%   0.000%   0.000%   0.090%   0.000%   0.010%   0.002%   0.000%   0.000%   0.000%
   38    8.1  1.5 -1.5   0.000%   1.067%   4.716%   0.000%  39.569%   0.102%   0.001%   1.617%   0.078%  13.360%
   39    9.1  1.5 -1.5   0.000%   0.092%   4.769%   0.000%  33.389%   0.086%   0.003%   7.756%   0.078%  13.358%
   40   10.1  1.5 -1.5   0.008%   0.000%   0.000%  29.665%   0.010%   3.718%   0.068%   0.000%  18.472%   0.107%
   41    1.1  0.5  0.5   0.425%   0.000%   0.000%   0.798%   0.002%   0.719%   0.012%   0.000%   0.000%   0.000%
   42    2.1  0.5  0.5   0.000%  11.089%   0.118%   0.000%   0.505%   0.001%   0.000%   0.906%   0.000%   0.000%
   43    3.1  0.5  0.5   0.000%  18.282%   0.601%   0.000%   0.001%   0.000%   0.000%   0.928%   0.000%   0.000%
   44    4.1  0.5  0.5  33.452%   0.001%   0.000%   0.000%   0.000%   0.024%   1.506%   0.001%   0.000%   0.000%
   45    5.1  0.5  0.5   0.000%   6.504%   0.029%   0.000%   1.464%   0.004%   0.000%   0.033%   0.000%   0.000%
   46    6.1  0.5  0.5   0.032%   0.000%   0.000%   1.521%   0.000%   0.009%   0.000%   0.000%   0.000%   0.000%
   47    7.1  0.5  0.5   0.000%  10.784%   0.503%   0.000%   0.840%   0.002%   0.000%   0.184%   0.000%   0.000%
   48    8.1  0.5  0.5   0.000%   1.311%   4.373%   0.000%   0.297%   0.001%   0.001%   2.760%   0.001%   0.134%
   49    9.1  0.5  0.5   0.000%   1.703%   4.412%   0.000%   0.882%   0.002%   0.001%   2.135%   0.004%   0.703%
   50   10.1  0.5  0.5   0.121%   0.000%   0.000%   3.554%   0.010%   3.838%   0.030%   0.000%   0.207%   0.001%
   51   11.1  0.5  0.5   4.467%   0.000%   0.000%   0.003%   0.000%   0.085%   7.341%   0.003%   0.500%   0.003%
   52   12.1  0.5  0.5   0.141%   0.000%   0.000%   0.044%   0.019%   7.253%   0.116%   0.000%   0.223%   0.001%
   53    1.1  0.5 -0.5   0.000%   0.425%   0.798%   0.000%   0.719%   0.002%   0.000%   0.012%   0.000%   0.000%
   54    2.1  0.5 -0.5  11.089%   0.000%   0.000%   0.118%   0.001%   0.505%   0.906%   0.000%   0.000%   0.000%
   55    3.1  0.5 -0.5  18.282%   0.000%   0.000%   0.601%   0.000%   0.001%   0.928%   0.000%   0.000%   0.000%
   56    4.1  0.5 -0.5   0.001%  33.452%   0.000%   0.000%   0.024%   0.000%   0.001%   1.506%   0.000%   0.000%
   57    5.1  0.5 -0.5   6.504%   0.000%   0.000%   0.029%   0.004%   1.464%   0.033%   0.000%   0.000%   0.000%
   58    6.1  0.5 -0.5   0.000%   0.032%   1.521%   0.000%   0.009%   0.000%   0.000%   0.000%   0.000%   0.000%
   59    7.1  0.5 -0.5  10.784%   0.000%   0.000%   0.503%   0.002%   0.840%   0.184%   0.000%   0.000%   0.000%
   60    8.1  0.5 -0.5   1.311%   0.000%   0.000%   4.373%   0.001%   0.297%   2.760%   0.001%   0.134%   0.001%
   61    9.1  0.5 -0.5   1.703%   0.000%   0.000%   4.412%   0.002%   0.882%   2.135%   0.001%   0.703%   0.004%
   62   10.1  0.5 -0.5   0.000%   0.121%   3.554%   0.000%   3.838%   0.010%   0.000%   0.030%   0.001%   0.207%
   63   11.1  0.5 -0.5   0.000%   4.467%   0.003%   0.000%   0.085%   0.000%   0.003%   7.341%   0.003%   0.500%
   64   12.1  0.5 -0.5   0.000%   0.141%   0.044%   0.000%   7.253%   0.019%   0.000%   0.116%   0.001%   0.223%

   Nr   State  S   Sz      61       62       63       64

    1    1.1  1.5  1.5   0.000%   0.004%   0.000%   0.000%
    2    2.1  1.5  1.5   0.003%   0.000%   0.000%   0.000%
    3    3.1  1.5  1.5   0.000%   0.011%   0.000%   0.000%
    4    4.1  1.5  1.5   0.003%   0.000%   0.000%   0.000%
    5    5.1  1.5  1.5   0.000%   0.012%   0.000%   0.000%
    6    6.1  1.5  1.5   0.000%   0.005%   0.000%   0.000%
    7    7.1  1.5  1.5   0.002%   0.000%   0.000%   0.000%
    8    8.1  1.5  1.5   0.006%   6.187%   0.000%  25.000%
    9    9.1  1.5  1.5   0.006%   6.188%   0.000%  25.000%
   10   10.1  1.5  1.5  40.269%   0.039%   0.000%   0.000%
   11    1.1  1.5  0.5   0.006%   0.000%   0.000%   0.000%
   12    2.1  1.5  0.5   0.000%   0.007%   0.000%   0.000%
   13    3.1  1.5  0.5   0.000%   0.000%   0.000%   0.000%
   14    4.1  1.5  0.5   0.000%   0.006%   0.000%   0.000%
   15    5.1  1.5  0.5   0.007%   0.000%   0.000%   0.000%
   16    6.1  1.5  0.5   0.000%   0.000%   0.000%   0.000%
   17    7.1  1.5  0.5   0.000%   0.007%   0.000%   0.000%
   18    8.1  1.5  0.5   0.627%   0.001%   8.333%   0.000%
   19    9.1  1.5  0.5  42.719%   0.042%   8.333%   0.000%
   20   10.1  1.5  0.5   0.002%   2.063%   0.000%  33.333%
   21    1.1  1.5 -0.5   0.000%   0.006%   0.000%   0.000%
   22    2.1  1.5 -0.5   0.007%   0.000%   0.000%   0.000%
   23    3.1  1.5 -0.5   0.000%   0.000%   0.000%   0.000%
   24    4.1  1.5 -0.5   0.006%   0.000%   0.000%   0.000%
   25    5.1  1.5 -0.5   0.000%   0.007%   0.000%   0.000%
   26    6.1  1.5 -0.5   0.000%   0.000%   0.000%   0.000%
   27    7.1  1.5 -0.5   0.007%   0.000%   0.000%   0.000%
   28    8.1  1.5 -0.5   0.001%   0.627%   0.000%   8.333%
   29    9.1  1.5 -0.5   0.042%  42.719%   0.000%   8.333%
   30   10.1  1.5 -0.5   2.063%   0.002%  33.333%   0.000%
   31    1.1  1.5 -1.5   0.004%   0.000%   0.000%   0.000%
   32    2.1  1.5 -1.5   0.000%   0.003%   0.000%   0.000%
   33    3.1  1.5 -1.5   0.011%   0.000%   0.000%   0.000%
   34    4.1  1.5 -1.5   0.000%   0.003%   0.000%   0.000%
   35    5.1  1.5 -1.5   0.012%   0.000%   0.000%   0.000%
   36    6.1  1.5 -1.5   0.005%   0.000%   0.000%   0.000%
   37    7.1  1.5 -1.5   0.000%   0.002%   0.000%   0.000%
   38    8.1  1.5 -1.5   6.187%   0.006%  25.000%   0.000%
   39    9.1  1.5 -1.5   6.188%   0.006%  25.000%   0.000%
   40   10.1  1.5 -1.5   0.039%  40.269%   0.000%   0.000%
   41    1.1  0.5  0.5   0.000%   0.000%   0.000%   0.000%
   42    2.1  0.5  0.5   0.000%   0.000%   0.000%   0.000%
   43    3.1  0.5  0.5   0.000%   0.000%   0.000%   0.000%
   44    4.1  0.5  0.5   0.000%   0.000%   0.000%   0.000%
   45    5.1  0.5  0.5   0.000%   0.000%   0.000%   0.000%
   46    6.1  0.5  0.5   0.000%   0.000%   0.000%   0.000%
   47    7.1  0.5  0.5   0.000%   0.000%   0.000%   0.000%
   48    8.1  0.5  0.5   0.576%   0.001%   0.000%   0.000%
   49    9.1  0.5  0.5   0.004%   0.000%   0.000%   0.000%
   50   10.1  0.5  0.5   0.000%   0.503%   0.000%   0.000%
   51   11.1  0.5  0.5   0.000%   0.208%   0.000%   0.000%
   52   12.1  0.5  0.5   0.000%   0.486%   0.000%   0.000%
   53    1.1  0.5 -0.5   0.000%   0.000%   0.000%   0.000%
   54    2.1  0.5 -0.5   0.000%   0.000%   0.000%   0.000%
   55    3.1  0.5 -0.5   0.000%   0.000%   0.000%   0.000%
   56    4.1  0.5 -0.5   0.000%   0.000%   0.000%   0.000%
   57    5.1  0.5 -0.5   0.000%   0.000%   0.000%   0.000%
   58    6.1  0.5 -0.5   0.000%   0.000%   0.000%   0.000%
   59    7.1  0.5 -0.5   0.000%   0.000%   0.000%   0.000%
   60    8.1  0.5 -0.5   0.001%   0.576%   0.000%   0.000%
   61    9.1  0.5 -0.5   0.000%   0.004%   0.000%   0.000%
   62   10.1  0.5 -0.5   0.503%   0.000%   0.000%   0.000%
   63   11.1  0.5 -0.5   0.208%   0.000%   0.000%   0.000%
   64   12.1  0.5 -0.5   0.486%   0.000%   0.000%   0.000%


 Property matrices transformed in SO basis (not sym. adapted)
 ============================================================

 No matrix element <i|DMX|i> larger than 5E-7
 No matrix element <i|DMX|1> larger than 5E-7

 No matrix element <i|DMY|i> larger than 5E-7
 No matrix element <i|DMY|1> larger than 5E-7

 No matrix element <i|DMZ|i> larger than 5E-7
 No matrix element <i|DMZ|1> larger than 5E-7


 **********************************************************************************************************************************
 DATASETS  * FILE   NREC   LENGTH (MB)   RECORD NAMES
              1      21       32.08       500      610      700      900      950      970     1000      129      960     1100   
                                          VAR    BASINP    GEOM    SYMINP    ZMAT    AOBASIS   BASIS     P2S    ABASIS      S 
                                         1400     1410     1420     1200     1210     1080     1700     1600     1650     1380   
                                           T        V       ECP      H0       H01     AOSYM    OPER      SMH    MOLCAS    JKOP   
                                         1700(1)
                                         OPER   

              2       6      357.52       700     1000      520     2140     5103     5101   
                                         GEOM     BASIS   MCVARS    MCSCF    MRCI     MRCI   

 PROGRAMS   *        TOTAL        CI        CI        CI     MULTI       INT
 CPU TIMES  *      7580.21   6013.51   1198.68    365.31      1.88      0.51
 REAL TIME  *      7845.75 SEC
 DISK USED  *       389.69 MB (local),        4.62 GB (total)
 SF USED    *         2.13 GB
 GA USED    *         0.00 MB       (max)       0.00 MB       (current)
 **********************************************************************************************************************************

 CI/cc-pWCVTZ-PP energy=   -109.971138485378

              CI              CI           MULTI
   -109.92233437   -109.92052479   -109.33341791
 **********************************************************************************************************************************
 Molpro calculation terminated with 1 warning(s)
