
 Working directory              : /wrk/irikura/molpro.iz2KQAZ9xG/
 Global scratch directory       : /wrk/irikura/molpro.iz2KQAZ9xG/
 Wavefunction directory         : /home/irikura/wfu/
 Main file repository           : /wrk/irikura/molpro.iz2KQAZ9xG/

 id        : nistki

 Nodes            nprocs
 pn125343.nist.gov   30
 GA implementation: MPI file
 GA implementation (serial work in mppx): MPI file

 Using customized tuning parameters: mindgm=1; mindgv=20; mindgc=4; mindgr=1; noblas=0; minvec=7
 default implementation of scratch files=sf  


 Variables initialized (1025), CPU time= 0.02 sec
 ***,Rh atom, (17/10) active space/core
                                                                                 ! Heavy weight on 4F
                                                                                 ! 4F,4P,4F + 2F,2D,2P,2G
 memory,1500,M;
 
 gprint,orbitals,civector
 
 symmetry,xyz
 geometry={Rh}
 
 basis=cc-pwCVTZ-PP
 
 {multi
     closed,0,0
     wf,nelec=17,sym=1,spin=3; state,17;
         weight,7[99],10[1]
     wf,nelec=17,sym=1,spin=1; state,24;
         weight,all,1
     expec2,lxx,lyy,lzz;
  }
 table, energy, ll
 title, Energies and LL values
 
 {ci;wf,sym=1,spin=3;state,17;save,5103.2}
 hlsdiag = energd4
 {ci;wf,sym=1,spin=1;state,24;save,5101.2}
 hlsdiag(18) = energd4
 
 table, hlsdiag
 
                                                                                 !compute and diagonalize SO matrix
 {ci;hlsmat,ecp,5103.2,5101.2;print,vls=0,hls=0}
 
 Commands initialized (840), CPU time= 0.02 sec, 684 directives.
 Default parameters read. Elapsed time= 0.18 sec

 Checking input...
 Passed
1


                                         ***  PROGRAM SYSTEM MOLPRO  ***
                                       Copyright, TTI GmbH Stuttgart, 2015
                                    Version 2022.3 linked Wed Nov 30 06:40:34 2022


 **********************************************************************************************************************************
 LABEL *   Rh ato0) activcore                                                            
  64 bit mpp version                                                                     DATE: 16-Feb-24          TIME: 10:12:19  
 **********************************************************************************************************************************

 SHA1:             e31ec9a5ea85254ab76f59d122cbdd51c71cf98b
 **********************************************************************************************************************************

 Memory per process:      1500 MW
 Total memory per node:  45000 MW

 GA preallocation disabled
 GA check disabled

 Variable memory set to 1500.0 MW


 ZSYMEL=XYZ

 SETTING BASIS          =    CC-PWCVTZ-PP


 Recomputing integrals since basis changed


 Using spherical harmonics

 Library entry Rh   ECP ECP28MDF                 selected for group  1
 Library entry RH     S cc-pwCVTZ-PP         selected for orbital group  1
 Library entry RH     P cc-pwCVTZ-PP         selected for orbital group  1
 Library entry RH     D cc-pwCVTZ-PP         selected for orbital group  1
 Library entry RH     F cc-pwCVTZ-PP         selected for orbital group  1
 Library entry RH     G cc-pwCVTZ-PP         selected for orbital group  1


 PROGRAM * SEWARD (Integral evaluation for generally contracted gaussian basis sets)     Author: Roland Lindh, 1990

 Geometry written to block  1 of record 700

 Orientation using atomic masses  
 Molecule type: Atom
 User-specified symmetry elements: XYZ
 Symmetry elements: XYZ
 Rotational constants:       0.0000000      0.0000000      0.0000000 GHz  (calculated with average atomic masses)

 Point group  Ci  



 ATOMIC COORDINATES

 NR  ATOM    CHARGE       X              Y              Z

   1  RH     17.00    0.000000000    0.000000000    0.000000000

 NUCLEAR CHARGE:                   17
 NUMBER OF PRIMITIVE AOS:         165
 NUMBER OF SYMMETRY AOS:          134
 NUMBER OF CONTRACTIONS:           97   (   55Ag  +   42Au  )
 NUMBER OF INNER CORE ORBITALS:     0   (    0Ag  +    0Au  )
 NUMBER OF OUTER CORE ORBITALS:     4   (    1Ag  +    3Au  )
 NUMBER OF VALENCE ORBITALS:        6   (    6Ag  +    0Au  )


 LX: Ag           LY: Ag           LZ: Ag 


 NUCLEAR REPULSION ENERGY    0.00000000

 EXTRA SYMMETRY OF AOS IN SYMMETRY 1:   1 1 1 1 1 1 1 2 3 4   5 6 2 3 4 5 6 2 3 4   5 6 2 3 4 5 6 2 3 4   5 6 2 3 4 5 6 7 8 9
                                       101112131415 7 8 910  1112131415
 EXTRA SYMMETRY OF AOS IN SYMMETRY 2:   1 2 3 1 2 3 1 2 3 1   2 3 1 2 3 1 2 3 1 2   3 4 5 6 7 8 910 4 5   6 7 8 910 4 5 6 7 8
                                        910


 Eigenvalues of metric

         1 0.743E-03 0.223E-02 0.223E-02 0.223E-02 0.223E-02 0.223E-02 0.534E-02 0.439E-01
         2 0.905E-03 0.905E-03 0.905E-03 0.520E-02 0.520E-02 0.520E-02 0.207E+00 0.207E+00


 Contracted 2-electron integrals neglected if value below      1.0D-11
 AO integral compression algorithm  1   Integral accuracy      1.0D-11

     16.253 MB (compressed) written to integral file ( 18.8%)

     Node minimum: 0.262 MB, node maximum: 1.311 MB


 NUMBER OF SORTED TWO-ELECTRON INTEGRALS:     192330.     BUFFER LENGTH:  32768
 NUMBER OF SEGMENTS:   1  SEGMENT LENGTH:     192330      RECORD LENGTH: 524288

 Memory used in sort:       0.75 MW

 SORT1 READ    10862098. AND WROTE       37800. INTEGRALS IN      1 RECORDS. CPU TIME:     0.09 SEC, REAL TIME:     0.11 SEC
 SORT2 READ     1120219. AND WROTE     5766586. INTEGRALS IN     60 RECORDS. CPU TIME:     0.01 SEC, REAL TIME:     0.02 SEC

 Node minimum:      190791.  Node maximum:      197199. integrals

 OPERATOR DM      FOR CENTER  0  COORDINATES:    0.000000    0.000000    0.000000


 **********************************************************************************************************************************
 DATASETS  * FILE   NREC   LENGTH (MB)   RECORD NAMES
              1      19       28.83       500      610      700      900      950      970     1000      129      960     1100   
                                          VAR    BASINP    GEOM    SYMINP    ZMAT    AOBASIS   BASIS     P2S    ABASIS      S 
                                         1400     1410     1420     1200     1210     1080     1700     1600     1650   
                                           T        V       ECP      H0       H01     AOSYM    OPER      SMH    MOLCAS    

 PROGRAMS   *        TOTAL       INT
 CPU TIMES  *         1.79      1.44
 REAL TIME  *         3.42 SEC
 DISK USED  *        29.10 MB (local),     1002.23 MB (total)
 GA USED    *         0.00 MB       (max)       0.00 MB       (current)
 **********************************************************************************************************************************

 PROGRAM * MULTI (Direct Multiconfiguration SCF)       Authors: P.J. Knowles, H.-J. Werner (1984)
                                                                D.A. Kreplin, P.J. Knowles, H.-J. Werner (2019)

 Number of active  orbitals:       10 (    7    3)
 Number of external orbitals:      87 (   48   39)

 State symmetry 1

 Number of active electrons:  17    Spin symmetry=Quartet   Space symmetry=1
 Number of states:            17
 Number of CSFs:              56   (56 determinants, 120 intermediate states)

 State symmetry 2

 Number of active electrons:  17    Spin symmetry=Doublet   Space symmetry=1
 Number of states:            24
 Number of CSFs:             175   (231 determinants, 450 intermediate states)

 Orbital guess generated from atomic densities. Full valence occupancy:    7   3
 *** IN SYMMETRY 1 ORBITAL  3 SYMMETRY CONTAMINATION OF 0.281D-01 HAS BEEN REMOVED
 *** IN SYMMETRY 1 ORBITAL  4 SYMMETRY CONTAMINATION OF 0.414D-01 HAS BEEN REMOVED
 *** IN SYMMETRY 1 ORBITAL  5 SYMMETRY CONTAMINATION OF 0.259D+00 HAS BEEN REMOVED
 *** IN SYMMETRY 1 ORBITAL  6 SYMMETRY CONTAMINATION OF 0.266D+00 HAS BEEN REMOVED

 EXTRA SYMMETRY OF MOS IN SYMMETRY 1:   1 2 4 6 3 5 1 1 2 6   4 5 3 1 6 4 2 5 3 2   6 4 3 5 1 711 91415  1310 812 2 6 4 5 3 1
                                        71514131011 9 812 2   6 4 5 3 1
 *** IN SYMMETRY 2 ORBITAL  2 SYMMETRY CONTAMINATION OF 0.104D-03 HAS BEEN REMOVED
 *** IN SYMMETRY 2 ORBITAL  3 SYMMETRY CONTAMINATION OF 0.104D-03 HAS BEEN REMOVED
 EXTRA SYMMETRY OF MOS IN SYMMETRY 2:   1 2 3 1 2 3 1 2 3 3   2 1 9 7 5 4 6 810 3   2 1 6 4 5 9 7 810 2   1 3 810 6 7 9 4 5 2
                                        1 3

 Wavefunction dump at record             2140.2

 Convergence thresholds  0.10E-04 (gradient)  0.10E-05 (energy)

 Weight factors for state symmetry  1:    0.13618   0.13618   0.13618   0.13618   0.13618   0.13618   0.13618   0.00138
                                          0.00138   0.00138   0.00138   0.00138   0.00138   0.00138   0.00138   0.00138
                                          0.00138
 Weight factors for state symmetry  2:    0.00138   0.00138   0.00138   0.00138   0.00138   0.00138   0.00138   0.00138
                                          0.00138   0.00138   0.00138   0.00138   0.00138   0.00138   0.00138   0.00138
                                          0.00138   0.00138   0.00138   0.00138   0.00138   0.00138   0.00138   0.00138
 
 Number of orbital rotations:  453  ( 0 closed/active, 0 closed/virtual, 0 active/active, 453 active/virtual )
 Total number of variables:    6949
 
 Second-order MCSCF: L-BFGS accelerated
 
 ITER  MIC  NCI  NEG     ENERGY(VAR)    ENERGY(PROJ) ENERGY CHANGE       GRAD(0)  GRAD(ORB)   GRAD(CI)      STEP      TIME
   1    3    6    0   -109.36427000    -109.37834026   -0.01407026    0.19873419 0.00018948 0.00000000  0.13E+00      0.36
   2    2    4    0   -109.37802843    -109.37804332   -0.00001489    0.00611738 0.00002625 0.00000000  0.44E-02      0.59
   3   20   40    0   -109.37804333    -109.37804333   -0.00000000    0.00000744 0.00000026 0.00000000  0.56E-05      2.19
   4   20   40    0   -109.37804333    -109.37804333    0.00000000    0.00000011 0.00000021 0.00000000  0.98E-07      3.83

 CONVERGENCE REACHED!  Final gradient:    0.00000010 ( 0.96E-07)
                       Final energy:   -109.37804333
 
 Results for state 1.1 Quartet
 =============================
 !MCSCF STATE 1.1 Quartet Energy              -109.381195864376
 Nuclear energy                                  0.00000000
 Kinetic energy                                 40.99850657
 One electron energy                          -193.58433517
 Two electron energy                            84.20313931
 Virial ratio                                    3.66793123
 
 !MCSCF STATE 1.1 Quartet Dipole moment          0.00000000     0.00000000     0.00000000
 Dipole moment /Debye                            0.00000000     0.00000000     0.00000000
 
 Results for state 2.1 Quartet
 =============================
 !MCSCF STATE 2.1 Quartet Energy              -109.381195864183
 Nuclear energy                                  0.00000000
 Kinetic energy                                 40.99850659
 One electron energy                          -193.58433520
 Two electron energy                            84.20313933
 Virial ratio                                    3.66793122
 
 !MCSCF STATE 2.1 Quartet Dipole moment          0.00000000     0.00000000     0.00000000
 Dipole moment /Debye                            0.00000000     0.00000000     0.00000000
 
 Results for state 3.1 Quartet
 =============================
 !MCSCF STATE 3.1 Quartet Energy              -109.381195863847
 Nuclear energy                                  0.00000000
 Kinetic energy                                 40.99850660
 One electron energy                          -193.58433521
 Two electron energy                            84.20313935
 Virial ratio                                    3.66793122
 
 !MCSCF STATE 3.1 Quartet Dipole moment          0.00000000     0.00000000     0.00000000
 Dipole moment /Debye                            0.00000000     0.00000000     0.00000000
 
 Results for state 4.1 Quartet
 =============================
 !MCSCF STATE 4.1 Quartet Energy              -109.381195863607
 Nuclear energy                                  0.00000000
 Kinetic energy                                 40.99850664
 One electron energy                          -193.58433527
 Two electron energy                            84.20313941
 Virial ratio                                    3.66793122
 
 !MCSCF STATE 4.1 Quartet Dipole moment          0.00000000     0.00000000     0.00000000
 Dipole moment /Debye                            0.00000000     0.00000000     0.00000000
 
 Results for state 5.1 Quartet
 =============================
 !MCSCF STATE 5.1 Quartet Energy              -109.381195862610
 Nuclear energy                                  0.00000000
 Kinetic energy                                 40.99850672
 One electron energy                          -193.58433539
 Two electron energy                            84.20313952
 Virial ratio                                    3.66793122
 
 !MCSCF STATE 5.1 Quartet Dipole moment          0.00000000     0.00000000     0.00000000
 Dipole moment /Debye                            0.00000000     0.00000000     0.00000000
 
 Results for state 6.1 Quartet
 =============================
 !MCSCF STATE 6.1 Quartet Energy              -109.381195862132
 Nuclear energy                                  0.00000000
 Kinetic energy                                 40.99850677
 One electron energy                          -193.58433545
 Two electron energy                            84.20313959
 Virial ratio                                    3.66793121
 
 !MCSCF STATE 6.1 Quartet Dipole moment          0.00000000     0.00000000     0.00000000
 Dipole moment /Debye                            0.00000000     0.00000000     0.00000000
 
 Results for state 7.1 Quartet
 =============================
 !MCSCF STATE 7.1 Quartet Energy              -109.381195861955
 Nuclear energy                                  0.00000000
 Kinetic energy                                 40.99850679
 One electron energy                          -193.58433549
 Two electron energy                            84.20313962
 Virial ratio                                    3.66793121
 
 !MCSCF STATE 7.1 Quartet Dipole moment          0.00000000     0.00000000     0.00000000
 Dipole moment /Debye                            0.00000000     0.00000000     0.00000000
 
 Results for state 8.1 Quartet
 =============================
 !MCSCF STATE 8.1 Quartet Energy              -109.327627875967
 Nuclear energy                                  0.00000000
 Kinetic energy                                 40.99923774
 One electron energy                          -193.57474987
 Two electron energy                            84.24712199
 Virial ratio                                    3.66657709
 
 !MCSCF STATE 8.1 Quartet Dipole moment          0.00000000     0.00000000     0.00000000
 Dipole moment /Debye                            0.00000000     0.00000000     0.00000000
 
 Results for state 9.1 Quartet
 =============================
 !MCSCF STATE 9.1 Quartet Energy              -109.327627875131
 Nuclear energy                                  0.00000000
 Kinetic energy                                 40.99923777
 One electron energy                          -193.57474991
 Two electron energy                            84.24712203
 Virial ratio                                    3.66657708
 
 !MCSCF STATE 9.1 Quartet Dipole moment          0.00000000     0.00000000     0.00000000
 Dipole moment /Debye                            0.00000000     0.00000000     0.00000000
 
 Results for state 10.1 Quartet
 ==============================
 !MCSCF STATE 10.1 Quartet Energy             -109.327627874648
 Nuclear energy                                  0.00000000
 Kinetic energy                                 40.99923779
 One electron energy                          -193.57474993
 Two electron energy                            84.24712206
 Virial ratio                                    3.66657708
 
 !MCSCF STATE 10.1 Quartet Dipole moment         0.00000000     0.00000000     0.00000000
 Dipole moment /Debye                            0.00000000     0.00000000     0.00000000
 
 Results for state 11.1 Quartet
 ==============================
 !MCSCF STATE 11.1 Quartet Energy             -109.283794804366
 Nuclear energy                                  0.00000000
 Kinetic energy                                 38.57477729
 One electron energy                          -189.07819420
 Two electron energy                            79.79439940
 Virial ratio                                    3.83303761
 
 !MCSCF STATE 11.1 Quartet Dipole moment         0.00000000     0.00000000     0.00000000
 Dipole moment /Debye                            0.00000000     0.00000000     0.00000000
 
 Results for state 12.1 Quartet
 ==============================
 !MCSCF STATE 12.1 Quartet Energy             -109.283794803841
 Nuclear energy                                  0.00000000
 Kinetic energy                                 38.57477728
 One electron energy                          -189.07819418
 Two electron energy                            79.79439938
 Virial ratio                                    3.83303761
 
 !MCSCF STATE 12.1 Quartet Dipole moment         0.00000000     0.00000000     0.00000000
 Dipole moment /Debye                            0.00000000     0.00000000     0.00000000
 
 Results for state 13.1 Quartet
 ==============================
 !MCSCF STATE 13.1 Quartet Energy             -109.283794803288
 Nuclear energy                                  0.00000000
 Kinetic energy                                 38.57477726
 One electron energy                          -189.07819416
 Two electron energy                            79.79439936
 Virial ratio                                    3.83303761
 
 !MCSCF STATE 13.1 Quartet Dipole moment         0.00000000     0.00000000     0.00000000
 Dipole moment /Debye                            0.00000000     0.00000000     0.00000000
 
 Results for state 14.1 Quartet
 ==============================
 !MCSCF STATE 14.1 Quartet Energy             -109.283794801032
 Nuclear energy                                  0.00000000
 Kinetic energy                                 38.57477721
 One electron energy                          -189.07819409
 Two electron energy                            79.79439929
 Virial ratio                                    3.83303761
 
 !MCSCF STATE 14.1 Quartet Dipole moment         0.00000000     0.00000000     0.00000000
 Dipole moment /Debye                            0.00000000     0.00000000     0.00000000
 
 Results for state 15.1 Quartet
 ==============================
 !MCSCF STATE 15.1 Quartet Energy             -109.283794797867
 Nuclear energy                                  0.00000000
 Kinetic energy                                 38.57477714
 One electron energy                          -189.07819398
 Two electron energy                            79.79439919
 Virial ratio                                    3.83303762
 
 !MCSCF STATE 15.1 Quartet Dipole moment         0.00000000     0.00000000     0.00000000
 Dipole moment /Debye                            0.00000000     0.00000000     0.00000000
 
 Results for state 16.1 Quartet
 ==============================
 !MCSCF STATE 16.1 Quartet Energy             -109.283794795795
 Nuclear energy                                  0.00000000
 Kinetic energy                                 38.57477709
 One electron energy                          -189.07819392
 Two electron energy                            79.79439912
 Virial ratio                                    3.83303762
 
 !MCSCF STATE 16.1 Quartet Dipole moment         0.00000000     0.00000000     0.00000000
 Dipole moment /Debye                            0.00000000     0.00000000     0.00000000
 
 Results for state 17.1 Quartet
 ==============================
 !MCSCF STATE 17.1 Quartet Energy             -109.283794794846
 Nuclear energy                                  0.00000000
 Kinetic energy                                 38.57477707
 One electron energy                          -189.07819389
 Two electron energy                            79.79439909
 Virial ratio                                    3.83303762
 
 !MCSCF STATE 17.1 Quartet Dipole moment         0.00000000     0.00000000     0.00000000
 Dipole moment /Debye                            0.00000000     0.00000000     0.00000000
 
 Results for state 1.1 Doublet
 =============================
 !MCSCF STATE 1.1 Doublet Energy              -109.351293844014
 Nuclear energy                                  0.00000000
 Kinetic energy                                 40.98111831
 One electron energy                          -193.55438993
 Two electron energy                            84.20309609
 Virial ratio                                    3.66833357
 
 !MCSCF STATE 1.1 Doublet Dipole moment          0.00000000     0.00000000     0.00000000
 Dipole moment /Debye                            0.00000000     0.00000000     0.00000000
 
 Results for state 2.1 Doublet
 =============================
 !MCSCF STATE 2.1 Doublet Energy              -109.351293843650
 Nuclear energy                                  0.00000000
 Kinetic energy                                 40.98111833
 One electron energy                          -193.55438995
 Two electron energy                            84.20309611
 Virial ratio                                    3.66833357
 
 !MCSCF STATE 2.1 Doublet Dipole moment          0.00000000     0.00000000     0.00000000
 Dipole moment /Debye                            0.00000000     0.00000000     0.00000000
 
 Results for state 3.1 Doublet
 =============================
 !MCSCF STATE 3.1 Doublet Energy              -109.351293843193
 Nuclear energy                                  0.00000000
 Kinetic energy                                 40.98111834
 One electron energy                          -193.55438997
 Two electron energy                            84.20309612
 Virial ratio                                    3.66833357
 
 !MCSCF STATE 3.1 Doublet Dipole moment          0.00000000     0.00000000     0.00000000
 Dipole moment /Debye                            0.00000000     0.00000000     0.00000000
 
 Results for state 4.1 Doublet
 =============================
 !MCSCF STATE 4.1 Doublet Energy              -109.351293842338
 Nuclear energy                                  0.00000000
 Kinetic energy                                 40.98111839
 One electron energy                          -193.55439004
 Two electron energy                            84.20309619
 Virial ratio                                    3.66833357
 
 !MCSCF STATE 4.1 Doublet Dipole moment          0.00000000     0.00000000     0.00000000
 Dipole moment /Debye                            0.00000000     0.00000000     0.00000000
 
 Results for state 5.1 Doublet
 =============================
 !MCSCF STATE 5.1 Doublet Energy              -109.351293840383
 Nuclear energy                                  0.00000000
 Kinetic energy                                 40.98111846
 One electron energy                          -193.55439014
 Two electron energy                            84.20309630
 Virial ratio                                    3.66833356
 
 !MCSCF STATE 5.1 Doublet Dipole moment          0.00000000     0.00000000     0.00000000
 Dipole moment /Debye                            0.00000000     0.00000000     0.00000000
 
 Results for state 6.1 Doublet
 =============================
 !MCSCF STATE 6.1 Doublet Energy              -109.351293839361
 Nuclear energy                                  0.00000000
 Kinetic energy                                 40.98111851
 One electron energy                          -193.55439021
 Two electron energy                            84.20309637
 Virial ratio                                    3.66833356
 
 !MCSCF STATE 6.1 Doublet Dipole moment          0.00000000     0.00000000     0.00000000
 Dipole moment /Debye                            0.00000000     0.00000000     0.00000000
 
 Results for state 7.1 Doublet
 =============================
 !MCSCF STATE 7.1 Doublet Energy              -109.351293838867
 Nuclear energy                                  0.00000000
 Kinetic energy                                 40.98111853
 One electron energy                          -193.55439024
 Two electron energy                            84.20309640
 Virial ratio                                    3.66833356
 
 !MCSCF STATE 7.1 Doublet Dipole moment          0.00000000     0.00000000     0.00000000
 Dipole moment /Debye                            0.00000000     0.00000000     0.00000000
 
 Results for state 8.1 Doublet
 =============================
 !MCSCF STATE 8.1 Doublet Energy              -109.333592561966
 Nuclear energy                                  0.00000000
 Kinetic energy                                 41.07546079
 One electron energy                          -193.70885012
 Two electron energy                            84.37525756
 Virial ratio                                    3.66177398
 
 !MCSCF STATE 8.1 Doublet Dipole moment          0.00000000     0.00000000     0.00000000
 Dipole moment /Debye                            0.00000000     0.00000000     0.00000000
 
 Results for state 9.1 Doublet
 =============================
 !MCSCF STATE 9.1 Doublet Energy              -109.333592561428
 Nuclear energy                                  0.00000000
 Kinetic energy                                 41.07546085
 One electron energy                          -193.70885019
 Two electron energy                            84.37525763
 Virial ratio                                    3.66177397
 
 !MCSCF STATE 9.1 Doublet Dipole moment          0.00000000     0.00000000     0.00000000
 Dipole moment /Debye                            0.00000000     0.00000000     0.00000000
 
 Results for state 10.1 Doublet
 ==============================
 !MCSCF STATE 10.1 Doublet Energy             -109.333592561345
 Nuclear energy                                  0.00000000
 Kinetic energy                                 41.07546085
 One electron energy                          -193.70885020
 Two electron energy                            84.37525764
 Virial ratio                                    3.66177397
 
 !MCSCF STATE 10.1 Doublet Dipole moment         0.00000000     0.00000000     0.00000000
 Dipole moment /Debye                            0.00000000     0.00000000     0.00000000
 
 Results for state 11.1 Doublet
 ==============================
 !MCSCF STATE 11.1 Doublet Energy             -109.333592561306
 Nuclear energy                                  0.00000000
 Kinetic energy                                 41.07546086
 One electron energy                          -193.70885021
 Two electron energy                            84.37525765
 Virial ratio                                    3.66177397
 
 !MCSCF STATE 11.1 Doublet Dipole moment         0.00000000     0.00000000     0.00000000
 Dipole moment /Debye                            0.00000000     0.00000000     0.00000000
 
 Results for state 12.1 Doublet
 ==============================
 !MCSCF STATE 12.1 Doublet Energy             -109.333592560951
 Nuclear energy                                  0.00000000
 Kinetic energy                                 41.07546089
 One electron energy                          -193.70885025
 Two electron energy                            84.37525769
 Virial ratio                                    3.66177397
 
 !MCSCF STATE 12.1 Doublet Dipole moment         0.00000000     0.00000000     0.00000000
 Dipole moment /Debye                            0.00000000     0.00000000     0.00000000
 
 Results for state 13.1 Doublet
 ==============================
 !MCSCF STATE 13.1 Doublet Energy             -109.305952244608
 Nuclear energy                                  0.00000000
 Kinetic energy                                 40.77945582
 One electron energy                          -193.15727727
 Two electron energy                            83.85132503
 Virial ratio                                    3.68041714
 
 !MCSCF STATE 13.1 Doublet Dipole moment         0.00000000     0.00000000     0.00000000
 Dipole moment /Debye                            0.00000000     0.00000000     0.00000000
 
 Results for state 14.1 Doublet
 ==============================
 !MCSCF STATE 14.1 Doublet Energy             -109.305952243556
 Nuclear energy                                  0.00000000
 Kinetic energy                                 40.77945584
 One electron energy                          -193.15727730
 Two electron energy                            83.85132505
 Virial ratio                                    3.68041714
 
 !MCSCF STATE 14.1 Doublet Dipole moment         0.00000000     0.00000000     0.00000000
 Dipole moment /Debye                            0.00000000     0.00000000     0.00000000
 
 Results for state 15.1 Doublet
 ==============================
 !MCSCF STATE 15.1 Doublet Energy             -109.305952242908
 Nuclear energy                                  0.00000000
 Kinetic energy                                 40.77945586
 One electron energy                          -193.15727732
 Two electron energy                            83.85132507
 Virial ratio                                    3.68041714
 
 !MCSCF STATE 15.1 Doublet Dipole moment         0.00000000     0.00000000     0.00000000
 Dipole moment /Debye                            0.00000000     0.00000000     0.00000000
 
 Results for state 16.1 Doublet
 ==============================
 !MCSCF STATE 16.1 Doublet Energy             -109.294938507477
 Nuclear energy                                  0.00000000
 Kinetic energy                                 40.93559853
 One electron energy                          -193.46606219
 Two electron energy                            84.17112368
 Virial ratio                                    3.66992404
 
 !MCSCF STATE 16.1 Doublet Dipole moment         0.00000000     0.00000000     0.00000000
 Dipole moment /Debye                            0.00000000     0.00000000     0.00000000
 
 Results for state 17.1 Doublet
 ==============================
 !MCSCF STATE 17.1 Doublet Energy             -109.294938507454
 Nuclear energy                                  0.00000000
 Kinetic energy                                 40.93559853
 One electron energy                          -193.46606219
 Two electron energy                            84.17112368
 Virial ratio                                    3.66992404
 
 !MCSCF STATE 17.1 Doublet Dipole moment         0.00000000     0.00000000     0.00000000
 Dipole moment /Debye                            0.00000000     0.00000000     0.00000000
 
 Results for state 18.1 Doublet
 ==============================
 !MCSCF STATE 18.1 Doublet Energy             -109.294938506744
 Nuclear energy                                  0.00000000
 Kinetic energy                                 40.93559851
 One electron energy                          -193.46606215
 Two electron energy                            84.17112365
 Virial ratio                                    3.66992404
 
 !MCSCF STATE 18.1 Doublet Dipole moment         0.00000000     0.00000000     0.00000000
 Dipole moment /Debye                            0.00000000     0.00000000     0.00000000
 
 Results for state 19.1 Doublet
 ==============================
 !MCSCF STATE 19.1 Doublet Energy             -109.294938506720
 Nuclear energy                                  0.00000000
 Kinetic energy                                 40.93559849
 One electron energy                          -193.46606213
 Two electron energy                            84.17112362
 Virial ratio                                    3.66992404
 
 !MCSCF STATE 19.1 Doublet Dipole moment         0.00000000     0.00000000     0.00000000
 Dipole moment /Debye                            0.00000000     0.00000000     0.00000000
 
 Results for state 20.1 Doublet
 ==============================
 !MCSCF STATE 20.1 Doublet Energy             -109.294938506409
 Nuclear energy                                  0.00000000
 Kinetic energy                                 40.93559857
 One electron energy                          -193.46606225
 Two electron energy                            84.17112374
 Virial ratio                                    3.66992403
 
 !MCSCF STATE 20.1 Doublet Dipole moment         0.00000000     0.00000000     0.00000000
 Dipole moment /Debye                            0.00000000     0.00000000     0.00000000
 
 Results for state 21.1 Doublet
 ==============================
 !MCSCF STATE 21.1 Doublet Energy             -109.294938506180
 Nuclear energy                                  0.00000000
 Kinetic energy                                 40.93559852
 One electron energy                          -193.46606217
 Two electron energy                            84.17112367
 Virial ratio                                    3.66992404
 
 !MCSCF STATE 21.1 Doublet Dipole moment         0.00000000     0.00000000     0.00000000
 Dipole moment /Debye                            0.00000000     0.00000000     0.00000000
 
 Results for state 22.1 Doublet
 ==============================
 !MCSCF STATE 22.1 Doublet Energy             -109.294938506154
 Nuclear energy                                  0.00000000
 Kinetic energy                                 40.93559859
 One electron energy                          -193.46606227
 Two electron energy                            84.17112376
 Virial ratio                                    3.66992403
 
 !MCSCF STATE 22.1 Doublet Dipole moment         0.00000000     0.00000000     0.00000000
 Dipole moment /Debye                            0.00000000     0.00000000     0.00000000
 
 Results for state 23.1 Doublet
 ==============================
 !MCSCF STATE 23.1 Doublet Energy             -109.294938505704
 Nuclear energy                                  0.00000000
 Kinetic energy                                 40.93559858
 One electron energy                          -193.46606225
 Two electron energy                            84.17112374
 Virial ratio                                    3.66992403
 
 !MCSCF STATE 23.1 Doublet Dipole moment         0.00000000     0.00000000     0.00000000
 Dipole moment /Debye                            0.00000000     0.00000000     0.00000000
 
 Results for state 24.1 Doublet
 ==============================
 !MCSCF STATE 24.1 Doublet Energy             -109.294938505685
 Nuclear energy                                  0.00000000
 Kinetic energy                                 40.93559858
 One electron energy                          -193.46606226
 Two electron energy                            84.17112375
 Virial ratio                                    3.66992403
 
 !MCSCF STATE 24.1 Doublet Dipole moment         0.00000000     0.00000000     0.00000000
 Dipole moment /Debye                            0.00000000     0.00000000     0.00000000
 
 State-averaged charge density matrix saved on record 2140.2 (density set 1)
 
 No non-zero expectation values
 
 Expectation values for two-electron operators:
 
 !MCSCF expec      <1.1 Quartet|LXLX|1.1 Quartet>     0.178213622917
 !MCSCF expec      <2.1 Quartet|LXLX|2.1 Quartet>     2.109213255402
 !MCSCF expec      <3.1 Quartet|LXLX|3.1 Quartet>     7.812766412767
 !MCSCF expec      <4.1 Quartet|LXLX|4.1 Quartet>     7.890767906967
 !MCSCF expec      <5.1 Quartet|LXLX|5.1 Quartet>     2.187243395875
 !MCSCF expec      <6.1 Quartet|LXLX|6.1 Quartet>     3.821807934354
 !MCSCF expec      <7.1 Quartet|LXLX|7.1 Quartet>     3.999999992061
 !MCSCF expec      <8.1 Quartet|LXLX|8.1 Quartet>     0.999999990067
 !MCSCF expec      <9.1 Quartet|LXLX|9.1 Quartet>     0.000000010659
 !MCSCF expec    <10.1 Quartet|LXLX|10.1 Quartet>     1.000000000000
 !MCSCF expec    <11.1 Quartet|LXLX|11.1 Quartet>     0.042613083025
 !MCSCF expec    <12.1 Quartet|LXLX|12.1 Quartet>     4.234154376639
 !MCSCF expec    <13.1 Quartet|LXLX|13.1 Quartet>     7.311972134817
 !MCSCF expec    <14.1 Quartet|LXLX|14.1 Quartet>     5.766087081161
 !MCSCF expec    <15.1 Quartet|LXLX|15.1 Quartet>     2.688045079448
 !MCSCF expec    <16.1 Quartet|LXLX|16.1 Quartet>     3.957386292024
 !MCSCF expec    <17.1 Quartet|LXLX|17.1 Quartet>     4.000000000038
 !MCSCF expec      <1.1 Doublet|LXLX|1.1 Doublet>     0.101346586176
 !MCSCF expec      <2.1 Doublet|LXLX|2.1 Doublet>     3.211385717050
 !MCSCF expec      <3.1 Doublet|LXLX|3.1 Doublet>     7.543179828703
 !MCSCF expec      <4.1 Doublet|LXLX|4.1 Doublet>     6.788807337703
 !MCSCF expec      <5.1 Doublet|LXLX|5.1 Doublet>     2.456709488324
 !MCSCF expec      <6.1 Doublet|LXLX|6.1 Doublet>     3.898659047460
 !MCSCF expec      <7.1 Doublet|LXLX|7.1 Doublet>     3.999999949734
 !MCSCF expec      <8.1 Doublet|LXLX|8.1 Doublet>     1.000000000020
 !MCSCF expec      <9.1 Doublet|LXLX|9.1 Doublet>     3.999999849333
 !MCSCF expec    <10.1 Doublet|LXLX|10.1 Doublet>     1.000003576689
 !MCSCF expec    <11.1 Doublet|LXLX|11.1 Doublet>     3.994522446770
 !MCSCF expec    <12.1 Doublet|LXLX|12.1 Doublet>     0.005498027855
 !MCSCF expec    <13.1 Doublet|LXLX|13.1 Doublet>     0.999999954432
 !MCSCF expec    <14.1 Doublet|LXLX|14.1 Doublet>     0.000000040025
 !MCSCF expec    <15.1 Doublet|LXLX|15.1 Doublet>     0.999999997816
 !MCSCF expec    <16.1 Doublet|LXLX|16.1 Doublet>     2.323003043276
 !MCSCF expec    <17.1 Doublet|LXLX|17.1 Doublet>     2.299646333635
 !MCSCF expec    <18.1 Doublet|LXLX|18.1 Doublet>     8.920929895957
 !MCSCF expec    <19.1 Doublet|LXLX|19.1 Doublet>     6.590323982465
 !MCSCF expec    <20.1 Doublet|LXLX|20.1 Doublet>    14.174566757377
 !MCSCF expec    <21.1 Doublet|LXLX|21.1 Doublet>     7.676885131078
 !MCSCF expec    <22.1 Doublet|LXLX|22.1 Doublet>    11.079781280883
 !MCSCF expec    <23.1 Doublet|LXLX|23.1 Doublet>     3.410400681878
 !MCSCF expec    <24.1 Doublet|LXLX|24.1 Doublet>     3.526664654982
 
 !MCSCF expec      <1.1 Quartet|LYLY|1.1 Quartet>     7.509049606279
 !MCSCF expec      <2.1 Quartet|LYLY|2.1 Quartet>     6.191002520048
 !MCSCF expec      <3.1 Quartet|LYLY|3.1 Quartet>     0.271557857727
 !MCSCF expec      <4.1 Quartet|LYLY|4.1 Quartet>     3.809023504201
 !MCSCF expec      <5.1 Quartet|LYLY|5.1 Quartet>     3.728445565860
 !MCSCF expec      <6.1 Quartet|LYLY|6.1 Quartet>     2.491031774586
 !MCSCF expec      <7.1 Quartet|LYLY|7.1 Quartet>     3.999999951179
 !MCSCF expec      <8.1 Quartet|LYLY|8.1 Quartet>     0.000000009965
 !MCSCF expec      <9.1 Quartet|LYLY|9.1 Quartet>     0.999999989464
 !MCSCF expec    <10.1 Quartet|LYLY|10.1 Quartet>     1.000000000000
 !MCSCF expec    <11.1 Quartet|LYLY|11.1 Quartet>     6.773920901743
 !MCSCF expec    <12.1 Quartet|LYLY|12.1 Quartet>     3.769448066976
 !MCSCF expec    <13.1 Quartet|LYLY|13.1 Quartet>     0.130745549961
 !MCSCF expec    <14.1 Quartet|LYLY|14.1 Quartet>     6.230317850917
 !MCSCF expec    <15.1 Quartet|LYLY|15.1 Quartet>     3.869258221562
 !MCSCF expec    <16.1 Quartet|LYLY|16.1 Quartet>     3.226073616852
 !MCSCF expec    <17.1 Quartet|LYLY|17.1 Quartet>     3.999999999975
 !MCSCF expec      <1.1 Doublet|LYLY|1.1 Doublet>     7.166570093120
 !MCSCF expec      <2.1 Doublet|LYLY|2.1 Doublet>     4.832928576171
 !MCSCF expec      <3.1 Doublet|LYLY|3.1 Doublet>     0.187406012176
 !MCSCF expec      <4.1 Doublet|LYLY|4.1 Doublet>     5.166855768082
 !MCSCF expec      <5.1 Doublet|LYLY|5.1 Doublet>     3.812563762234
 !MCSCF expec      <6.1 Doublet|LYLY|6.1 Doublet>     2.833459990907
 !MCSCF expec      <7.1 Doublet|LYLY|7.1 Doublet>     3.999999566008
 !MCSCF expec      <8.1 Doublet|LYLY|8.1 Doublet>     1.000000000008
 !MCSCF expec      <9.1 Doublet|LYLY|9.1 Doublet>     1.000000158689
 !MCSCF expec    <10.1 Doublet|LYLY|10.1 Doublet>     3.999995991171
 !MCSCF expec    <11.1 Doublet|LYLY|11.1 Doublet>     0.874638631732
 !MCSCF expec    <12.1 Doublet|LYLY|12.1 Doublet>     3.125589537986
 !MCSCF expec    <13.1 Doublet|LYLY|13.1 Doublet>     0.000000045574
 !MCSCF expec    <14.1 Doublet|LYLY|14.1 Doublet>     0.999999960016
 !MCSCF expec    <15.1 Doublet|LYLY|15.1 Doublet>     0.999999999178
 !MCSCF expec    <16.1 Doublet|LYLY|16.1 Doublet>    15.960462105168
 !MCSCF expec    <17.1 Doublet|LYLY|17.1 Doublet>    15.965391056837
 !MCSCF expec    <18.1 Doublet|LYLY|18.1 Doublet>     8.142146420071
 !MCSCF expec    <19.1 Doublet|LYLY|19.1 Doublet>     8.840271967335
 !MCSCF expec    <20.1 Doublet|LYLY|20.1 Doublet>     2.979956857354
 !MCSCF expec    <21.1 Doublet|LYLY|21.1 Doublet>     4.039561982644
 !MCSCF expec    <22.1 Doublet|LYLY|22.1 Doublet>     1.857560728403
 !MCSCF expec    <23.1 Doublet|LYLY|23.1 Doublet>     1.159507186473
 !MCSCF expec    <24.1 Doublet|LYLY|24.1 Doublet>     1.054360693670
 
 !MCSCF expec      <1.1 Quartet|LZLZ|1.1 Quartet>     4.312736770804
 !MCSCF expec      <2.1 Quartet|LZLZ|2.1 Quartet>     3.699784224551
 !MCSCF expec      <3.1 Quartet|LZLZ|3.1 Quartet>     3.915675729507
 !MCSCF expec      <4.1 Quartet|LZLZ|4.1 Quartet>     0.300208588832
 !MCSCF expec      <5.1 Quartet|LZLZ|5.1 Quartet>     6.084311038266
 !MCSCF expec      <6.1 Quartet|LZLZ|6.1 Quartet>     5.687160291061
 !MCSCF expec      <7.1 Quartet|LZLZ|7.1 Quartet>     4.000000056760
 !MCSCF expec      <8.1 Quartet|LZLZ|8.1 Quartet>     0.999999999969
 !MCSCF expec      <9.1 Quartet|LZLZ|9.1 Quartet>     0.999999999877
 !MCSCF expec    <10.1 Quartet|LZLZ|10.1 Quartet>     0.000000000000
 !MCSCF expec    <11.1 Quartet|LZLZ|11.1 Quartet>     5.183466015232
 !MCSCF expec    <12.1 Quartet|LZLZ|12.1 Quartet>     3.996397556386
 !MCSCF expec    <13.1 Quartet|LZLZ|13.1 Quartet>     4.557282315223
 !MCSCF expec    <14.1 Quartet|LZLZ|14.1 Quartet>     0.003595067922
 !MCSCF expec    <15.1 Quartet|LZLZ|15.1 Quartet>     5.442696698990
 !MCSCF expec    <16.1 Quartet|LZLZ|16.1 Quartet>     4.816540091124
 !MCSCF expec    <17.1 Quartet|LZLZ|17.1 Quartet>     3.999999999987
 !MCSCF expec      <1.1 Doublet|LZLZ|1.1 Doublet>     4.732083320704
 !MCSCF expec      <2.1 Doublet|LZLZ|2.1 Doublet>     3.955685706780
 !MCSCF expec      <3.1 Doublet|LZLZ|3.1 Doublet>     4.269414159121
 !MCSCF expec      <4.1 Doublet|LZLZ|4.1 Doublet>     0.044336894214
 !MCSCF expec      <5.1 Doublet|LZLZ|5.1 Doublet>     5.730726749443
 !MCSCF expec      <6.1 Doublet|LZLZ|6.1 Doublet>     5.267880961633
 !MCSCF expec      <7.1 Doublet|LZLZ|7.1 Doublet>     4.000000484257
 !MCSCF expec      <8.1 Doublet|LZLZ|8.1 Doublet>     3.999999999971
 !MCSCF expec      <9.1 Doublet|LZLZ|9.1 Doublet>     0.999999991978
 !MCSCF expec    <10.1 Doublet|LZLZ|10.1 Doublet>     1.000000432140
 !MCSCF expec    <11.1 Doublet|LZLZ|11.1 Doublet>     1.130838921498
 !MCSCF expec    <12.1 Doublet|LZLZ|12.1 Doublet>     2.868912434160
 !MCSCF expec    <13.1 Doublet|LZLZ|13.1 Doublet>     0.999999999995
 !MCSCF expec    <14.1 Doublet|LZLZ|14.1 Doublet>     0.999999999959
 !MCSCF expec    <15.1 Doublet|LZLZ|15.1 Doublet>     0.000000003006
 !MCSCF expec    <16.1 Doublet|LZLZ|16.1 Doublet>     1.716534851555
 !MCSCF expec    <17.1 Doublet|LZLZ|17.1 Doublet>     1.734962609529
 !MCSCF expec    <18.1 Doublet|LZLZ|18.1 Doublet>     2.936923683972
 !MCSCF expec    <19.1 Doublet|LZLZ|19.1 Doublet>     4.569404050200
 !MCSCF expec    <20.1 Doublet|LZLZ|20.1 Doublet>     2.845476385270
 !MCSCF expec    <21.1 Doublet|LZLZ|21.1 Doublet>     8.283552886278
 !MCSCF expec    <22.1 Doublet|LZLZ|22.1 Doublet>     7.062657990713
 !MCSCF expec    <23.1 Doublet|LZLZ|23.1 Doublet>    15.430092131649
 !MCSCF expec    <24.1 Doublet|LZLZ|24.1 Doublet>    15.418974651348
 
 !MCSCF expec      <1.1 Quartet|L**2|1.1 Quartet>    12.000000000000
 !MCSCF expec      <2.1 Quartet|L**2|2.1 Quartet>    12.000000000000
 !MCSCF expec      <3.1 Quartet|L**2|3.1 Quartet>    12.000000000000
 !MCSCF expec      <4.1 Quartet|L**2|4.1 Quartet>    12.000000000000
 !MCSCF expec      <5.1 Quartet|L**2|5.1 Quartet>    12.000000000000
 !MCSCF expec      <6.1 Quartet|L**2|6.1 Quartet>    12.000000000000
 !MCSCF expec      <7.1 Quartet|L**2|7.1 Quartet>    12.000000000000
 !MCSCF expec      <8.1 Quartet|L**2|8.1 Quartet>     2.000000000000
 !MCSCF expec      <9.1 Quartet|L**2|9.1 Quartet>     2.000000000000
 !MCSCF expec    <10.1 Quartet|L**2|10.1 Quartet>     2.000000000000
 !MCSCF expec    <11.1 Quartet|L**2|11.1 Quartet>    12.000000000000
 !MCSCF expec    <12.1 Quartet|L**2|12.1 Quartet>    12.000000000000
 !MCSCF expec    <13.1 Quartet|L**2|13.1 Quartet>    12.000000000000
 !MCSCF expec    <14.1 Quartet|L**2|14.1 Quartet>    12.000000000000
 !MCSCF expec    <15.1 Quartet|L**2|15.1 Quartet>    12.000000000000
 !MCSCF expec    <16.1 Quartet|L**2|16.1 Quartet>    12.000000000000
 !MCSCF expec    <17.1 Quartet|L**2|17.1 Quartet>    12.000000000000
 !MCSCF expec      <1.1 Doublet|L**2|1.1 Doublet>    12.000000000000
 !MCSCF expec      <2.1 Doublet|L**2|2.1 Doublet>    12.000000000000
 !MCSCF expec      <3.1 Doublet|L**2|3.1 Doublet>    12.000000000000
 !MCSCF expec      <4.1 Doublet|L**2|4.1 Doublet>    12.000000000000
 !MCSCF expec      <5.1 Doublet|L**2|5.1 Doublet>    12.000000000000
 !MCSCF expec      <6.1 Doublet|L**2|6.1 Doublet>    12.000000000000
 !MCSCF expec      <7.1 Doublet|L**2|7.1 Doublet>    12.000000000000
 !MCSCF expec      <8.1 Doublet|L**2|8.1 Doublet>     6.000000000000
 !MCSCF expec      <9.1 Doublet|L**2|9.1 Doublet>     6.000000000000
 !MCSCF expec    <10.1 Doublet|L**2|10.1 Doublet>     6.000000000000
 !MCSCF expec    <11.1 Doublet|L**2|11.1 Doublet>     6.000000000000
 !MCSCF expec    <12.1 Doublet|L**2|12.1 Doublet>     6.000000000000
 !MCSCF expec    <13.1 Doublet|L**2|13.1 Doublet>     2.000000000000
 !MCSCF expec    <14.1 Doublet|L**2|14.1 Doublet>     2.000000000000
 !MCSCF expec    <15.1 Doublet|L**2|15.1 Doublet>     2.000000000000
 !MCSCF expec    <16.1 Doublet|L**2|16.1 Doublet>    20.000000000000
 !MCSCF expec    <17.1 Doublet|L**2|17.1 Doublet>    20.000000000000
 !MCSCF expec    <18.1 Doublet|L**2|18.1 Doublet>    20.000000000000
 !MCSCF expec    <19.1 Doublet|L**2|19.1 Doublet>    20.000000000000
 !MCSCF expec    <20.1 Doublet|L**2|20.1 Doublet>    20.000000000000
 !MCSCF expec    <21.1 Doublet|L**2|21.1 Doublet>    20.000000000000
 !MCSCF expec    <22.1 Doublet|L**2|22.1 Doublet>    20.000000000000
 !MCSCF expec    <23.1 Doublet|L**2|23.1 Doublet>    20.000000000000
 !MCSCF expec    <24.1 Doublet|L**2|24.1 Doublet>    20.000000000000
 
 EXTRA SYMMETRY OF MOS IN SYMMETRY 1:   1 3 4 5 2 6 1 1 4 2   3 6 5 1 4 2 3 6 5 2   4 6 3 5 1 7 91112 8  14151310 2 6 4 5 3 1
                                        711 912 814151310 2   6 4 5 3 1
 EXTRA SYMMETRY OF MOS IN SYMMETRY 2:   2 1 3 3 1 2 3 1 2 3   1 2 4 6 8 510 7 9 3   1 2 6 4 5 810 7 9 3   1 2 6 5 410 8 7 9 3
                                        1 2
 
  NATURAL ORBITALS (STATE AVERAGED)
  =================================

  Orbital  Occupation    Energy    Cen Mu Typ  Coefficients
    1.1     2.00000    -3.72151     1  1  s    1.00194
    2.1     1.59797    -0.30375     1  1  d2-  1.00367
    3.1     1.59797    -0.30375     1  1  d1+  1.00367
    4.1     1.59797    -0.30375     1  1  d2+  1.00367
    5.1     1.59797    -0.30375     1  1  d0   1.00367
    6.1     1.59797    -0.30375     1  1  d1-  1.00367
    7.1     1.01021    -0.10050     1  2  s    0.95322
    1.2     1.99998    -2.35130     1  1  py   1.00015
    2.2     1.99998    -2.35130     1  1  px   1.00015
    3.2     1.99998    -2.35130     1  1  pz   1.00015
 
 Natural orbital dump (state averaged) at molpro section 2140.2 (Orbital set 2)
 
 Transform the CI vectors
 
 CI Coefficients of symmetry 1 (Quartet)
 =======================================

 State:                1               2               3               4               5               6               7
 222aa2a 222     -0.00000118     -0.00000001     -0.00000128      0.00000002      0.00000053     -0.00004999      1.00000000
 2aa22a2 222     -0.00000000      0.00000000      0.00000000     -0.00000000      0.00000000     -0.00000000      0.00000000
 22aa2a2 222      0.00000000      0.00000000      0.00000000     -0.00000000     -0.00000000      0.00000000      0.00000000
 2a22a2a 222     -0.00000367      0.96174116     -0.00003966      0.27395975      0.00000734     -0.00000006      0.00000000
 22aa22a 222     -0.00001240     -0.00000681     -0.00976503     -0.00000149      0.89437387     -0.00014581     -0.00000050
 2a2a22a 222      0.00000421     -0.12251853      0.00000285      0.43010371     -0.00000018     -0.00000002     -0.00000001
 222a2aa 222      0.03577097      0.00000026      0.00000890     -0.00000024      0.00014629      0.89371159      0.00004472
 2a2aa22 222      0.00000000     -0.00000000      0.00000000     -0.00000000      0.00000000     -0.00000000      0.00000000
 2a22aa2 222      0.00000000      0.00000000     -0.00000000      0.00000000     -0.00000000      0.00000000      0.00000000
 222aaa2 222      0.00000000      0.00000000      0.00000000     -0.00000000      0.00000000      0.00000000      0.00000000
 2aa2a22 222      0.00000000      0.00000000      0.00000000     -0.00000000     -0.00000000      0.00000000      0.00000000
 22aaa22 222     -0.00000000      0.00000000     -0.00000000      0.00000000     -0.00000000      0.00000000     -0.00000000
 2aa222a 222      0.87427529      0.00000535     -0.00001142     -0.00000704      0.00004278      0.18879281      0.00001047
 2a222aa 222      0.00001006      0.00003277      0.86353252      0.00000371      0.23304843     -0.00004715      0.00000098
 22a22aa 222      0.00000843     -0.24503705      0.00000570      0.86020745     -0.00000037     -0.00000004     -0.00000002
 2222aaa 222      0.48411069      0.00000294     -0.00001173     -0.00000392     -0.00005976     -0.40698507     -0.00001978
 22a2a2a 222     -0.00001297     -0.00002285     -0.50419859     -0.00000300      0.38181643     -0.00005696     -0.00000085
 2a2a2a2 222      0.00000000      0.00000000     -0.00000000      0.00000000     -0.00000000      0.00000000     -0.00000000
 2aaa222 222     -0.00000000     -0.00000000     -0.00000000      0.00000000      0.00000000     -0.00000000      0.00000000
 22a2aa2 222     -0.00000000     -0.00000000      0.00000000      0.00000000     -0.00000000     -0.00000000     -0.00000000
 
 Energy:       -109.38119586   -109.38119586   -109.38119586   -109.38119586   -109.38119586   -109.38119586   -109.38119586

 State:                8               9              10              11              12              13              14
 222aa2a 222      0.00000000     -0.00000000      0.00000000     -0.00000000     -0.00000000      0.00000000     -0.00000000
 2aa22a2 222     -0.00000000      0.00000000      0.00000000      0.00000111     -0.00000231      0.00000033      0.00000007
 22aa2a2 222     -0.00000000     -0.00000000     -0.00000000      0.00000610      0.99912757      0.00000501     -0.02999751
 2a22a2a 222     -0.00000000     -0.00000000      0.00000001     -0.00000000      0.00000000     -0.00000000      0.00000000
 22aa22a 222     -0.44688812      0.00004454      0.00000251      0.00000000      0.00000000      0.00000000      0.00000000
 2a2a22a 222      0.00000502     -0.00000992      0.89377623      0.00000000      0.00000000      0.00000000      0.00000000
 222a2aa 222      0.00004454      0.44688813      0.00000496     -0.00000000      0.00000000      0.00000000      0.00000000
 2a2aa22 222      0.00000000     -0.00000000      0.00007088     -0.00000007      0.02683059     -0.00000086      0.89364687
 2a22aa2 222      0.00007088     -0.00000001     -0.00000000     -0.00000458      0.00000030     -0.06332324     -0.00000007
 222aaa2 222      0.00000001      0.00007089      0.00000000      0.88927454     -0.00000542     -0.00001517      0.00000024
 2aa2a22 222      0.00000001      0.00007088      0.00000000     -0.13296982      0.00000078      0.00000510     -0.00000003
 22aaa22 222      0.00007089     -0.00000001     -0.00000000      0.00001534     -0.00000438      0.87931654      0.00000098
 2aa222a 222     -0.00004454     -0.44688810     -0.00000496      0.00000000     -0.00000000     -0.00000000     -0.00000000
 2a222aa 222      0.44688812     -0.00004454     -0.00000251     -0.00000000     -0.00000000     -0.00000000     -0.00000000
 22a22aa 222     -0.00000251      0.00000496     -0.44688810     -0.00000000     -0.00000000     -0.00000000     -0.00000000
 2222aaa 222      0.00007714      0.77403291      0.00000859     -0.00000001      0.00000000      0.00000000      0.00000000
 22a2a2a 222      0.77403291     -0.00007714     -0.00000434     -0.00000000      0.00000000     -0.00000001     -0.00000000
 2a2a2a2 222      0.00012277     -0.00000001     -0.00000000     -0.00000621      0.00000236     -0.47111393     -0.00000053
 2aaa222 222     -0.00000001     -0.00012277     -0.00000000      0.43665268     -0.00000268     -0.00000581      0.00000012
 22a2aa2 222      0.00000000     -0.00000000      0.00014176      0.00000004     -0.01341530      0.00000043     -0.44682342
 
 Energy:       -109.32762788   -109.32762788   -109.32762787   -109.28379480   -109.28379480   -109.28379480   -109.28379480

 State:               15              16              17
 222aa2a 222     -0.00000000     -0.00000000     -0.00000000
 2aa22a2 222     -0.00000024      0.00000131      0.99957779
 22aa2a2 222      0.00000002      0.00000003      0.00000232
 2a22a2a 222     -0.00000000      0.00000000     -0.00000000
 22aa22a 222     -0.00000000      0.00000000     -0.00000000
 2a2a22a 222      0.00000000      0.00000000      0.00000000
 222a2aa 222     -0.00000000      0.00000000      0.00000000
 2a2aa22 222      0.00000000     -0.00000000      0.00000000
 2a22aa2 222      0.89180420     -0.00002048      0.00000023
 222aaa2 222      0.00000137     -0.09227905     -0.00000087
 2aa2a22 222      0.00001998      0.88410610     -0.00000101
 22aaa22 222     -0.16163860      0.00000089     -0.00000033
 2aa222a 222      0.00000000     -0.00000000      0.00000000
 2a222aa 222      0.00000000     -0.00000000     -0.00000000
 22a22aa 222     -0.00000000      0.00000000     -0.00000000
 2222aaa 222     -0.00000000      0.00000000     -0.00000000
 22a2a2a 222      0.00000000     -0.00000000      0.00000000
 2a2a2a2 222     -0.42156136      0.00001131      0.00000006
 2aaa222 222      0.00001233      0.45716160     -0.00000109
 22a2aa2 222     -0.00000000      0.00000000     -0.00000000
 
 Energy:       -109.28379480   -109.28379480   -109.28379479
 
 
 CI Coefficients of symmetry 1 (Doublet)
 =======================================

 State:                1               2               3               4               5               6               7
 222aa2b 222     -0.00002718      0.00000100      0.00003315     -0.00000686     -0.00003270     -0.00043566      0.81405961
 2a22a2b 222     -0.00001234      0.80953786     -0.00000163      0.08568370     -0.00000019     -0.00000053     -0.00000027
 22aa22b 222     -0.00000100      0.00000024      0.02511605     -0.00000015      0.72768384      0.00003466      0.00002822
 222a2ab 222      0.06749078      0.00000180     -0.00003936     -0.00000280     -0.00003310      0.72498236      0.00039025
 22a22ab 222      0.00000872     -0.07663783     -0.00000820      0.72407268      0.00000046      0.00000217      0.00000620
 2aa222b 222      0.71883396      0.00001186     -0.00005341     -0.00000775     -0.00000269      0.11589793      0.00008603
 2a222ab 222      0.00004672      0.00000062      0.71085586      0.00000802      0.15760246      0.00004145     -0.00002259
 220222a 222     -0.00000000      0.00000000     -0.00000000      0.00000000     -0.00000000      0.00000000     -0.00000001
 2a2a22b 222      0.00000436     -0.03831892     -0.00000410      0.36203632      0.00000023      0.00000109      0.00000310
 222220a 222      0.00000000     -0.00000000     -0.00000000     -0.00000000      0.00000000     -0.00000000      0.00000001
 222022a 222     -0.00000000      0.00000000      0.00000000      0.00000000     -0.00000000      0.00000000     -0.00000000
 2a2b22a 222     -0.00000218      0.01915946      0.00000205     -0.18101815     -0.00000011     -0.00000054     -0.00000155
 2b2a22a 222     -0.00000218      0.01915946      0.00000205     -0.18101817     -0.00000011     -0.00000054     -0.00000155
 202222a 222     -0.00000000      0.00000000      0.00000000      0.00000000     -0.00000000      0.00000000     -0.00000000
 22a2b2a 222      0.00001378      0.00000011      0.19795604      0.00000236     -0.16456832      0.00000196     -0.00001467
 22b2a2a 222      0.00001378      0.00000011      0.19795603      0.00000236     -0.16456834      0.00000196     -0.00001467
 2222aab 222      0.37605315      0.00000581     -0.00000811     -0.00000286      0.00001756     -0.35165509     -0.00017564
 22a2a2b 222     -0.00002756     -0.00000022     -0.39591207     -0.00000472      0.32913666     -0.00000392      0.00002934
 2222aba 222     -0.18802657     -0.00000290      0.00000406      0.00000143     -0.00000878      0.17582755      0.00008782
 2222baa 222     -0.18802657     -0.00000290      0.00000406      0.00000143     -0.00000878      0.17582754      0.00008782
 222202a 222      0.00000000     -0.00000000     -0.00000000     -0.00000000      0.00000000     -0.00000000      0.00000000
 2a222ba 222     -0.00002336     -0.00000031     -0.35542792     -0.00000401     -0.07880121     -0.00002072      0.00001130
 2b222aa 222     -0.00002336     -0.00000031     -0.35542794     -0.00000401     -0.07880124     -0.00002072      0.00001130
 222b2aa 222     -0.03374538     -0.00000090      0.00001968      0.00000140      0.00001655     -0.36249116     -0.00019512
 222a2ba 222     -0.03374539     -0.00000090      0.00001968      0.00000140      0.00001655     -0.36249119     -0.00019512
 2a22b2a 222      0.00000617     -0.40476892      0.00000082     -0.04284185      0.00000010      0.00000026      0.00000014
 2b22a2a 222      0.00000617     -0.40476894      0.00000082     -0.04284185      0.00000010      0.00000026      0.00000014
 22a22ba 222     -0.00000436      0.03831891      0.00000410     -0.36203634     -0.00000023     -0.00000109     -0.00000310
 22b22aa 222     -0.00000436      0.03831892      0.00000410     -0.36203635     -0.00000023     -0.00000109     -0.00000310
 2ab222a 222     -0.35941698     -0.00000593      0.00002670      0.00000388      0.00000134     -0.05794896     -0.00004302
 2ba222a 222     -0.35941699     -0.00000593      0.00002670      0.00000388      0.00000134     -0.05794897     -0.00004302
 22ab22a 222      0.00000050     -0.00000012     -0.01255802      0.00000008     -0.36384190     -0.00001733     -0.00001411
 22ba22a 222      0.00000050     -0.00000012     -0.01255803      0.00000008     -0.36384194     -0.00001733     -0.00001411
 222ba2a 222      0.00001359     -0.00000050     -0.00001657      0.00000343      0.00001635      0.00021783     -0.40702979
 222ab2a 222      0.00001359     -0.00000050     -0.00001657      0.00000343      0.00001635      0.00021783     -0.40702983
 2a22220 222      0.00000000      0.00000000     -0.00000000     -0.00000000      0.00000000     -0.00000000     -0.00000000
 22222a0 222     -0.00000000     -0.00000000      0.00000000      0.00000000     -0.00000000     -0.00000000     -0.00000000
 22a2220 222     -0.00000000     -0.00000000     -0.00000000     -0.00000000     -0.00000000      0.00000000     -0.00000000
 222a220 222     -0.00000000      0.00000000     -0.00000000      0.00000000     -0.00000000      0.00000000     -0.00000000
 2222a20 222     -0.00000000      0.00000000     -0.00000000     -0.00000000      0.00000000     -0.00000000      0.00000000
 2a2ab22 222      0.00000048     -0.00418795     -0.00000045      0.03956764      0.00000002      0.00000012      0.00000034
 22202a2 222      0.02374377      0.00000040     -0.00000231     -0.00000029     -0.00000061      0.01509311      0.00000887
 22a0222 222      0.00000146      0.00000002      0.02282361      0.00000025      0.01645150      0.00000185     -0.00000027
 22aa2b2 222      0.00000021     -0.00181343     -0.00000019      0.01713330      0.00000001      0.00000005      0.00000015
 22ba2a2 222     -0.00000021      0.00181343      0.00000019     -0.01713329     -0.00000001     -0.00000005     -0.00000015
 22220a2 222     -0.03082468     -0.00000048      0.00000066      0.00000023     -0.00000144      0.02882479      0.00001440
 22a2202 222      0.00000151      0.00000001      0.02163499      0.00000026     -0.01798599      0.00000021     -0.00000160
 22a2022 222     -0.00000226     -0.00000002     -0.03245249     -0.00000039      0.02697898     -0.00000032      0.00000240
 22022a2 222      0.02054978      0.00000032     -0.00000044     -0.00000016      0.00000096     -0.01921653     -0.00000960
 2a22202 222     -0.00000013      0.02030555     -0.00000024      0.01947443      0.00000001      0.00000004      0.00000014
 2a02222 222     -0.00000054      0.02393242      0.00000015     -0.01479216     -0.00000002     -0.00000007     -0.00000015
 20222a2 222     -0.01346888     -0.00000024      0.00000208      0.00000021      0.00000109     -0.02470137     -0.00001367
 20a2222 222     -0.00000071     -0.00000002     -0.01200611     -0.00000012     -0.02544449     -0.00000175     -0.00000053
 222baa2 222      0.02148473      0.00000037     -0.00000253     -0.00000029     -0.00000098      0.02297535      0.00001301
 22aba22 222     -0.00000125     -0.00000002     -0.02010895     -0.00000021     -0.02418866     -0.00000208     -0.00000015
 2b22aa2 222      0.00000125      0.00000002      0.02010894      0.00000021      0.02418866      0.00000208      0.00000015
 2ba2a22 222     -0.02148473     -0.00000037      0.00000253      0.00000029      0.00000098     -0.02297536     -0.00001301
 22ab2a2 222      0.00000000     -0.00000000     -0.00000000     -0.00000000     -0.00000000     -0.00000000      0.00000000
 2a22022 222     -0.00000000      0.00000000      0.00000000      0.00000000      0.00000000      0.00000000      0.00000000
 222aab2 222     -0.01964069     -0.00000032      0.00000146      0.00000021      0.00000007     -0.00316667     -0.00000235
 2b2aa22 222     -0.00000024      0.00209397      0.00000022     -0.01978382     -0.00000001     -0.00000006     -0.00000017
 22baa22 222      0.00000128      0.00000002      0.01942270      0.00000022      0.00430617      0.00000113     -0.00000062
 2a2ba22 222     -0.00000024      0.00209397      0.00000022     -0.01978382     -0.00000001     -0.00000006     -0.00000017
 2a22ab2 222      0.00000003     -0.00000001     -0.00068624      0.00000000     -0.01988249     -0.00000095     -0.00000077
 2ab2a22 222      0.00184405      0.00000005     -0.00000108     -0.00000008     -0.00000090      0.01980868      0.00001066
 2a22ba2 222     -0.00000128     -0.00000002     -0.01942270     -0.00000022     -0.00430617     -0.00000113      0.00000062
 2ab22a2 222     -0.00000000      0.00000000      0.00000000      0.00000000     -0.00000000      0.00000000     -0.00000000
 222aba2 222     -0.00184405     -0.00000005      0.00000108      0.00000008      0.00000090     -0.01980868     -0.00001066
 2022a22 222     -0.00000000      0.00000000      0.00000000     -0.00000000     -0.00000000      0.00000000     -0.00000000
 2a2a2b2 222      0.00000226      0.00000002      0.03245249      0.00000039     -0.02697898      0.00000032     -0.00000240
 2aba222 222      0.03082468      0.00000048     -0.00000066     -0.00000023      0.00000144     -0.02882479     -0.00001440
 222a022 222      0.00000000      0.00000000     -0.00000000      0.00000000     -0.00000000     -0.00000000     -0.00000000
 2ba22a2 222      0.00000000     -0.00000000     -0.00000000     -0.00000000      0.00000000     -0.00000000      0.00000000
 2aa22b2 222     -0.00000000      0.00000000      0.00000000     -0.00000000      0.00000000      0.00000000     -0.00000000
 222a202 222     -0.00000074      0.00000003      0.00000091     -0.00000019     -0.00000089     -0.00001190      0.02224254
 2220a22 222     -0.00000000      0.00000000      0.00000000     -0.00000000     -0.00000000      0.00000000      0.00000000
 22aab22 222     -0.00000003      0.00000001      0.00068625     -0.00000000      0.01988249      0.00000095      0.00000077
 2aa2b22 222      0.01964068      0.00000032     -0.00000146     -0.00000021     -0.00000007      0.00316668      0.00000235
 220a222 222     -0.00000074      0.00000003      0.00000091     -0.00000019     -0.00000089     -0.00001190      0.02224253
 2222a02 222     -0.00000129      0.00000005      0.00000157     -0.00000032     -0.00000155     -0.00002062      0.03852520
 
 Energy:       -109.35129384   -109.35129384   -109.35129384   -109.35129384   -109.35129384   -109.35129384   -109.35129384

 State:                8               9              10              11              12              13              14
 222aa2b 222      0.00000000     -0.00000000     -0.00000000      0.00000001     -0.00000002     -0.00000000      0.00000000
 2a22a2b 222     -0.00000002      0.00000000      0.00000000     -0.00000000      0.00000000      0.00000000      0.00000000
 22aa22b 222      0.00000000     -0.00000000     -0.00000003     -0.00000000      0.00000000     -0.34719392     -0.00007411
 222a2ab 222      0.00000000      0.00000002     -0.00000000      0.00000000     -0.00000000     -0.00007411      0.34719393
 22a22ab 222      0.00000001      0.00000000      0.00000000      0.00000000     -0.00000000     -0.00000078     -0.00000222
 2aa222b 222     -0.00000000      0.00000001     -0.00000000      0.00000000     -0.00000000      0.00007411     -0.34719390
 2a222ab 222      0.00000000     -0.00000000     -0.00000002     -0.00000000      0.00000000      0.34719392      0.00007411
 220222a 222      0.00000026      0.00000960     -0.00045052      0.45644085     -0.24146203      0.00000000     -0.00000000
 2a2a22b 222      0.00000001     -0.00000000     -0.00000000     -0.00000000      0.00000000      0.00000157      0.00000443
 222220a 222     -0.00000004      0.00005597      0.00006389     -0.01910824      0.51602057      0.00000000      0.00000000
 222022a 222     -0.00000022     -0.00006557      0.00038663     -0.43733260     -0.27455855     -0.00000000     -0.00000000
 2a2b22a 222     -0.00000001      0.00000000      0.00000000     -0.00000000     -0.00000000     -0.00000078     -0.00000222
 2b2a22a 222      0.00000000     -0.00000000     -0.00000000      0.00000000      0.00000000     -0.00000078     -0.00000222
 202222a 222     -0.00000022     -0.00006557      0.00038663     -0.43733261     -0.27455854      0.00000000      0.00000000
 22a2b2a 222      0.00000043      0.00004799      0.25818701      0.00024268     -0.00002299     -0.30067873     -0.00006419
 22b2a2a 222     -0.00000043     -0.00004799     -0.25818700     -0.00024268      0.00002299     -0.30067876     -0.00006419
 2222aab 222     -0.00000000     -0.00000001      0.00000000      0.00000000     -0.00000000     -0.00012837      0.60135749
 22a2a2b 222      0.00000000     -0.00000000     -0.00000001     -0.00000000     -0.00000000      0.60135749      0.00012837
 2222aba 222     -0.00000066     -0.25818712      0.00004797      0.00002069      0.00002877      0.00006419     -0.30067875
 2222baa 222      0.00000066      0.25818712     -0.00004797     -0.00002069     -0.00002877      0.00006419     -0.30067874
 222202a 222      0.00000022      0.00006557     -0.00038663      0.43733262      0.27455855     -0.00000000     -0.00000000
 2a222ba 222      0.00000075      0.00008312      0.44719301      0.00042033     -0.00003981     -0.17359694     -0.00003706
 2b222aa 222     -0.00000075     -0.00008312     -0.44719299     -0.00042033      0.00003981     -0.17359698     -0.00003706
 222b2aa 222     -0.00000114     -0.44719320      0.00008309      0.00003584      0.00004982      0.00003706     -0.17359695
 222a2ba 222      0.00000114      0.44719319     -0.00008309     -0.00003584     -0.00004982      0.00003706     -0.17359698
 2a22b2a 222      0.51637425     -0.00000132     -0.00000087     -0.00000028      0.00000003     -0.00000000     -0.00000000
 2b22a2a 222     -0.51637423      0.00000132      0.00000087      0.00000028     -0.00000003      0.00000000      0.00000000
 22a22ba 222     -0.44719322      0.00000114      0.00000075      0.00000024     -0.00000003      0.00000039      0.00000111
 22b22aa 222      0.44719321     -0.00000114     -0.00000075     -0.00000024      0.00000003      0.00000039      0.00000111
 2ab222a 222     -0.00000114     -0.44719321      0.00008309      0.00003584      0.00004982     -0.00003706      0.17359693
 2ba222a 222      0.00000114      0.44719319     -0.00008309     -0.00003584     -0.00004982     -0.00003706      0.17359697
 22ab22a 222      0.00000075      0.00008312      0.44719302      0.00042033     -0.00003981      0.17359694      0.00003706
 22ba22a 222     -0.00000075     -0.00008312     -0.44719299     -0.00042033      0.00003981      0.17359699      0.00003706
 222ba2a 222     -0.00000018      0.00002678      0.00029700     -0.27455840      0.43733279      0.00000000      0.00000000
 222ab2a 222      0.00000018     -0.00002678     -0.00029700      0.27455838     -0.43733277     -0.00000000     -0.00000000
 2a22220 222      0.21671602     -0.00000055     -0.00000036     -0.00000012      0.00000001     -0.00000000      0.00000000
 22222a0 222      0.00000055      0.21671601     -0.00004026     -0.00001737     -0.00002415      0.00000000      0.00000000
 22a2220 222     -0.00000036     -0.00004028     -0.21671592     -0.00020370      0.00001929     -0.00000000      0.00000000
 222a220 222      0.00000007     -0.00001124     -0.00012465      0.11522882     -0.18354325     -0.00000000     -0.00000000
 2222a20 222      0.00000009      0.00002752     -0.00016226      0.18354320      0.11522890      0.00000000     -0.00000000
 2a2ab22 222      0.00000000     -0.00000000     -0.00000000     -0.00000000      0.00000000      0.00000038      0.00000108
 22202a2 222     -0.00000013     -0.05034230      0.00000935      0.00000403      0.00000561     -0.00002350      0.11009322
 22a0222 222      0.00000008      0.00000936      0.05034227      0.00004732     -0.00000448     -0.11009322     -0.00002350
 22aa2b2 222      0.02389815     -0.00000006     -0.00000004     -0.00000001      0.00000000     -0.00000025     -0.00000070
 22ba2a2 222      0.02389815     -0.00000006     -0.00000004     -0.00000001      0.00000000      0.00000025      0.00000070
 22220a2 222     -0.00000001     -0.00254600      0.00000047      0.00000020      0.00000028      0.00002350     -0.11009320
 22a2202 222      0.00000008      0.00000936      0.05034227      0.00004732     -0.00000448      0.11009320      0.00002350
 22a2022 222      0.00000000      0.00000047      0.00254600      0.00000239     -0.00000023      0.11009320      0.00002350
 22022a2 222     -0.00000013     -0.05034229      0.00000935      0.00000403      0.00000561      0.00002350     -0.11009320
 2a22202 222     -0.05034229      0.00000013      0.00000008      0.00000003     -0.00000000     -0.00000025     -0.00000070
 2a02222 222     -0.05034229      0.00000013      0.00000008      0.00000003     -0.00000000      0.00000025      0.00000070
 20222a2 222     -0.00000013     -0.05034228      0.00000935      0.00000403      0.00000561     -0.00002350      0.11009319
 20a2222 222      0.00000008      0.00000936      0.05034226      0.00004732     -0.00000448     -0.11009318     -0.00002350
 222baa2 222      0.00000011      0.04139281     -0.00000769     -0.00000332     -0.00000461     -0.00002261      0.10593724
 22aba22 222      0.00000007      0.00000769      0.04139279      0.00003891     -0.00000369      0.10593724      0.00002261
 2b22aa2 222      0.00000007      0.00000769      0.04139278      0.00003891     -0.00000369      0.10593723      0.00002261
 2ba2a22 222      0.00000011      0.04139280     -0.00000769     -0.00000332     -0.00000461     -0.00002261      0.10593723
 22ab2a2 222     -0.04779629      0.00000012      0.00000008      0.00000003     -0.00000000     -0.00000000     -0.00000000
 2a22022 222     -0.07424043      0.00000019      0.00000012      0.00000004     -0.00000000     -0.00000000     -0.00000000
 222aab2 222      0.00000000     -0.00000000      0.00000000     -0.00000000      0.00000000      0.00001809     -0.08474979
 2b2aa22 222      0.00000000      0.00000000      0.00000000      0.00000000      0.00000000     -0.00000019     -0.00000054
 22baa22 222     -0.00000000      0.00000000     -0.00000000     -0.00000000      0.00000000     -0.08474979     -0.00001809
 2a2ba22 222     -0.00000000      0.00000000      0.00000000      0.00000000     -0.00000000     -0.00000019     -0.00000054
 2a22ab2 222     -0.00000000      0.00000000      0.00000000      0.00000000      0.00000000     -0.08474978     -0.00001809
 2ab2a22 222      0.00000000     -0.00000000      0.00000000     -0.00000000      0.00000000      0.00001809     -0.08474978
 2a22ba2 222     -0.00000007     -0.00000769     -0.04139278     -0.00003891      0.00000369     -0.02118745     -0.00000452
 2ab22a2 222     -0.00000001     -0.00000650      0.00001725     -0.02235004     -0.04224879      0.00000000      0.00000000
 222aba2 222     -0.00000011     -0.04139281      0.00000769      0.00000332      0.00000461      0.00000452     -0.02118745
 2022a22 222     -0.00000003     -0.00000943      0.00005559     -0.06287641     -0.03947397      0.00000000      0.00000000
 2a2a2b2 222     -0.00000008     -0.00000888     -0.04779627     -0.00004493      0.00000426      0.07339547      0.00001567
 2aba222 222      0.00000012      0.04779629     -0.00000888     -0.00000383     -0.00000533      0.00001567     -0.07339547
 222a022 222     -0.00000003      0.00000385      0.00004270     -0.03947396      0.06287645      0.00000000      0.00000000
 2ba22a2 222     -0.00000002      0.00000248      0.00002749     -0.02541349      0.04048011     -0.00000000     -0.00000000
 2aa22b2 222      0.00000003      0.00000402     -0.00004474      0.04776353      0.00176869     -0.00000000     -0.00000000
 222a202 222      0.00000000      0.00000787     -0.00000204      0.00828958      0.06464514      0.00000000      0.00000000
 2220a22 222     -0.00000003     -0.00000943      0.00005559     -0.06287643     -0.03947399      0.00000000     -0.00000000
 22aab22 222     -0.00000007     -0.00000769     -0.04139279     -0.00003891      0.00000369     -0.02118745     -0.00000452
 2aa2b22 222     -0.00000011     -0.04139280      0.00000769      0.00000332      0.00000461      0.00000452     -0.02118745
 220a222 222     -0.00000003     -0.00000265      0.00005995     -0.06182400      0.02062764     -0.00000000      0.00000000
 2222a02 222      0.00000001     -0.00000247     -0.00002190      0.01985245     -0.03641052     -0.00000000     -0.00000000
 
 Energy:       -109.33359256   -109.33359256   -109.33359256   -109.33359256   -109.33359256   -109.30595224   -109.30595224

 State:               15              16              17              18              19              20              21
 222aa2b 222      0.00000000      0.00000000     -0.00000000     -0.00000000      0.00000000      0.00000000      0.00000000
 2a22a2b 222      0.00000001     -0.00000000      0.00000000      0.00000000     -0.00000000     -0.00000000     -0.00000000
 22aa22b 222      0.00000078      0.00000002      0.00000000     -0.00000000      0.00000000     -0.00000000      0.00000002
 222a2ab 222     -0.00000222      0.00000000      0.00000000     -0.00000000      0.00000000      0.00000000      0.00000000
 22a22ab 222     -0.34719391      0.00000000     -0.00000000      0.00000000     -0.00000001     -0.00000000      0.00000000
 2aa222b 222      0.00000222     -0.00000000     -0.00000000      0.00000000     -0.00000000     -0.00000000     -0.00000000
 2a222ab 222     -0.00000078     -0.00000001     -0.00000000      0.00000000      0.00000000      0.00000000     -0.00000001
 220222a 222      0.00000000     -0.00191301      0.69522788      0.00010964      0.00000100     -0.09584134     -0.00001750
 2a2a22b 222      0.69438785     -0.00000000      0.00000000     -0.00000000      0.00000002      0.00000000     -0.00000000
 222220a 222     -0.00000000     -0.00006390      0.03307680     -0.00036636     -0.00000119      0.69381656      0.00003281
 222022a 222     -0.00000000      0.00043628     -0.16048369     -0.00005904     -0.00000034      0.06077747      0.00007636
 2a2b22a 222     -0.34719385      0.00000270     -0.00000035      0.00001159     -0.15197101     -0.00000017      0.00000224
 2b2a22a 222     -0.34719399     -0.00000270      0.00000035     -0.00001159      0.15197099      0.00000017     -0.00000224
 202222a 222     -0.00000000      0.00005795     -0.02159249      0.00012322      0.00000039     -0.21027128     -0.00008018
 22a2b2a 222      0.00000068      0.61629704      0.00168640     -0.00005257     -0.00000171     -0.00000949     -0.19330409
 22b2a2a 222      0.00000068     -0.61629702     -0.00168640      0.00005257      0.00000171      0.00000949      0.19330410
 2222aab 222     -0.00000384      0.00000000      0.00000000     -0.00000001      0.00000000      0.00000000      0.00000000
 22a2a2b 222     -0.00000136     -0.00000002     -0.00000000      0.00000000      0.00000000      0.00000000     -0.00000002
 2222aba 222      0.00000192      0.00005739     -0.00005232      0.56230136      0.00003995      0.00062079      0.00034935
 2222baa 222      0.00000192     -0.00005739      0.00005232     -0.56230135     -0.00003995     -0.00062079     -0.00034935
 222202a 222      0.00000000      0.00148269     -0.54622851      0.00019254      0.00000014     -0.44848140     -0.00001148
 2a222ba 222      0.00000039     -0.03027170     -0.00006805     -0.00000049     -0.00000057     -0.00003515      0.52650821
 2b222aa 222      0.00000039      0.03027171      0.00006805      0.00000049      0.00000057      0.00003515     -0.52650819
 222b2aa 222      0.00000111     -0.00000647     -0.00000040      0.08041528      0.00000591     -0.00048097     -0.00056692
 222a2ba 222      0.00000111      0.00000647      0.00000040     -0.08041527     -0.00000591      0.00048097      0.00056692
 2a22b2a 222     -0.00000001      0.00000188     -0.00000061     -0.00003165      0.44575527      0.00000079      0.00000092
 2b22a2a 222      0.00000000     -0.00000188      0.00000061      0.00003165     -0.44575527     -0.00000079     -0.00000092
 22a22ba 222      0.17359695      0.00000217     -0.00000070     -0.00003655      0.51471385      0.00000092      0.00000107
 22b22aa 222      0.17359696     -0.00000217      0.00000070      0.00003655     -0.51471384     -0.00000092     -0.00000107
 2ab222a 222     -0.00000111     -0.00002667      0.00003061     -0.40506013     -0.00002898      0.00012256      0.00036522
 2ba222a 222     -0.00000111      0.00002667     -0.00003061      0.40506012      0.00002898     -0.00012256     -0.00036522
 22ab22a 222     -0.00000039     -0.32554756     -0.00090560      0.00003084      0.00000156      0.00004063     -0.41490403
 22ba22a 222     -0.00000039      0.32554755      0.00090560     -0.00003084     -0.00000156     -0.00004063      0.41490401
 222ba2a 222     -0.00000000     -0.00080069      0.28671983      0.00020611      0.00000095     -0.34193190     -0.00002178
 222ab2a 222      0.00000000      0.00080069     -0.28671982     -0.00020611     -0.00000095      0.34193190      0.00002178
[...]
   40    6.1  1.5 -0.5   0.038%   0.000%   0.003%   0.000%   0.003%   0.000%   0.043%   0.000%   0.000%   0.019%
   41    7.1  1.5 -0.5   0.000%   0.012%   0.000%   0.007%   0.000%   0.016%   0.000%   0.054%   0.000%   0.000%
   42    8.1  1.5 -0.5   0.000%   0.000%   0.000%   0.000%   0.000%   0.000%   0.000%   0.000%   0.000%   0.000%
   43    9.1  1.5 -0.5   0.000%   0.000%   0.000%   0.000%   0.000%   0.000%   0.000%   0.000%   0.000%   0.000%
   44   10.1  1.5 -0.5   0.000%   0.000%   0.000%   0.000%   0.000%   0.000%   0.000%   0.000%   0.000%   0.000%
   45   11.1  1.5 -0.5   0.000%   0.034%   0.000%   0.001%   0.000%   0.055%   0.000%   0.079%   0.011%   0.000%
   46   12.1  1.5 -0.5   0.000%   0.000%   0.089%   0.000%   0.021%   0.000%   0.003%   0.000%   0.000%   0.003%
   47   13.1  1.5 -0.5   0.177%   0.000%   0.002%   0.000%   0.000%   0.000%   0.000%   0.000%   0.000%   0.001%
   48   14.1  1.5 -0.5   0.000%   0.016%   0.000%   0.010%   0.000%   0.021%   0.000%   0.070%   0.001%   0.000%
   49   15.1  1.5 -0.5   0.000%   0.086%   0.000%   0.070%   0.000%   0.059%   0.000%   0.006%   0.010%   0.000%
   50   16.1  1.5 -0.5   0.010%   0.000%   0.000%   0.000%   0.089%   0.000%   0.006%   0.000%   0.000%   0.029%
   51   17.1  1.5 -0.5   0.000%   0.000%   0.002%   0.000%   0.007%   0.000%   0.082%   0.000%   0.000%   0.097%
   52    1.1  1.5 -1.5   0.033%   0.000%   0.011%   0.000%   0.011%   0.000%   0.001%   0.000%   0.000%   0.003%
   53    2.1  1.5 -1.5   0.001%   0.000%   0.002%   0.000%   0.054%   0.000%   0.052%   0.000%   0.000%   0.002%
   54    3.1  1.5 -1.5   0.000%   0.023%   0.000%   0.001%   0.000%   0.004%   0.000%   0.058%   0.010%   0.000%
   55    4.1  1.5 -1.5   0.000%   0.006%   0.000%   0.010%   0.000%   0.046%   0.000%   0.032%   0.000%   0.000%
   56    5.1  1.5 -1.5   0.000%   0.013%   0.000%   0.080%   0.000%   0.020%   0.000%   0.000%   0.000%   0.000%
   57    6.1  1.5 -1.5   0.000%   0.013%   0.000%   0.114%   0.000%   0.014%   0.000%   0.004%   0.003%   0.000%
   58    7.1  1.5 -1.5   0.032%   0.000%   0.017%   0.000%   0.026%   0.000%   0.034%   0.000%   0.000%   0.019%
   59    8.1  1.5 -1.5   0.000%   0.000%   0.000%   0.000%   0.000%   0.000%   0.000%   0.000%   0.000%   0.000%
   60    9.1  1.5 -1.5   0.000%   0.000%   0.000%   0.000%   0.000%   0.000%   0.000%   0.000%   0.000%   0.000%
   61   10.1  1.5 -1.5   0.000%   0.000%   0.000%   0.000%   0.000%   0.000%   0.000%   0.000%   0.000%   0.000%
   62   11.1  1.5 -1.5   0.001%   0.000%   0.002%   0.000%   0.069%   0.000%   0.068%   0.000%   0.000%   0.006%
   63   12.1  1.5 -1.5   0.000%   0.004%   0.000%   0.027%   0.000%   0.047%   0.000%   0.040%   0.001%   0.000%
   64   13.1  1.5 -1.5   0.000%   0.005%   0.000%   0.037%   0.000%   0.019%   0.000%   0.073%   0.041%   0.000%
   65   14.1  1.5 -1.5   0.042%   0.000%   0.023%   0.000%   0.035%   0.000%   0.044%   0.000%   0.000%   0.061%
   66   15.1  1.5 -1.5   0.044%   0.000%   0.014%   0.000%   0.016%   0.000%   0.001%   0.000%   0.000%   0.009%
   67   16.1  1.5 -1.5   0.000%   0.020%   0.000%   0.091%   0.000%   0.038%   0.000%   0.001%   0.001%   0.000%
   68   17.1  1.5 -1.5   0.000%   0.042%   0.000%   0.112%   0.000%   0.005%   0.000%   0.008%   0.000%   0.000%
   69    1.1  0.5  0.5   0.000%   0.000%   0.000%   0.000%   0.000%   0.000%   0.000%   0.000%   0.001%   0.000%
   70    2.1  0.5  0.5   0.000%   0.000%   0.000%   0.000%   0.000%   0.000%   0.000%   0.000%   0.000%   0.080%
   71    3.1  0.5  0.5   0.000%   0.000%   0.000%   0.000%   0.000%   0.000%   0.000%   0.000%   0.055%   0.000%
   72    4.1  0.5  0.5   0.000%   0.000%   0.000%   0.000%   0.000%   0.000%   0.000%   0.000%   0.296%   0.000%
   73    5.1  0.5  0.5   0.000%   0.000%   0.000%   0.000%   0.000%   0.000%   0.000%   0.000%   0.051%   0.000%
   74    6.1  0.5  0.5   0.000%   0.000%   0.000%   0.000%   0.000%   0.000%   0.000%   0.000%   0.000%   0.008%
   75    7.1  0.5  0.5   0.000%   0.000%   0.000%   0.000%   0.000%   0.000%   0.000%   0.000%   0.000%   0.057%
   76    8.1  0.5  0.5   0.000%   0.000%   0.000%   0.000%   0.000%   0.000%   0.000%   0.000%   0.000%   0.000%
   77    9.1  0.5  0.5   0.000%   0.000%   0.000%   0.000%   0.000%   0.000%   0.000%   0.000%   0.000%   0.000%
   78   10.1  0.5  0.5   0.000%   0.000%   0.000%   0.000%   0.000%   0.000%   0.000%   0.000%   0.000%   0.000%
   79   11.1  0.5  0.5   0.000%   0.000%   0.000%   0.000%   0.000%   0.000%   0.000%   0.000%   0.000%   0.000%
   80   12.1  0.5  0.5   0.000%   0.000%   0.000%   0.000%   0.000%   0.000%   0.000%   0.000%   0.000%   0.000%
   81   13.1  0.5  0.5   0.000%   0.000%   0.000%   0.000%   0.000%   0.000%   0.000%   0.000%   0.000%   0.000%
   82   14.1  0.5  0.5   0.000%   0.000%   0.000%   0.000%   0.000%   0.000%   0.000%   0.000%   0.000%   0.000%
   83   15.1  0.5  0.5   0.000%   0.000%   0.000%   0.000%   0.000%   0.000%   0.000%   0.000%   0.000%   0.000%
   84   16.1  0.5  0.5   0.000%  47.699%   0.002%   0.536%   0.000%   0.024%   0.000%   0.008%   1.967%   0.000%
   85   17.1  0.5  0.5   0.000%   0.923%   0.094%  23.536%   0.000%   0.019%   0.000%   0.038%  27.507%   0.000%
   86   18.1  0.5  0.5   5.885%   0.000%  17.137%   0.068%   0.057%   0.000%   0.006%   0.000%   0.000%  28.175%
   87   19.1  0.5  0.5   0.710%   0.000%   8.923%   0.036%  33.040%   0.001%   0.649%   0.000%   0.000%   8.431%
   88   20.1  0.5  0.5   0.000%   0.000%  34.931%   0.140%   8.801%   0.000%  10.362%   0.001%   0.000%  24.695%
   89   21.1  0.5  0.5   0.000%   4.170%   0.005%   1.160%   0.002%  46.286%   0.000%   3.071%   1.156%   0.000%
   90   22.1  0.5  0.5  31.278%   0.000%   4.207%   0.017%   0.281%   0.000%  18.096%   0.001%   0.000%   3.839%
   91   23.1  0.5  0.5   0.000%   0.662%   0.006%   1.456%   0.000%   3.767%   0.003%  43.281%   0.314%   0.000%
   92   24.1  0.5  0.5   7.824%   0.000%   6.871%   0.027%   6.873%   0.000%  23.635%   0.001%   0.000%   3.011%
   93    1.1  0.5 -0.5   0.000%   0.000%   0.000%   0.000%   0.000%   0.000%   0.000%   0.000%   0.000%   0.001%
   94    2.1  0.5 -0.5   0.000%   0.000%   0.000%   0.000%   0.000%   0.000%   0.000%   0.000%   0.080%   0.000%
   95    3.1  0.5 -0.5   0.000%   0.000%   0.000%   0.000%   0.000%   0.000%   0.000%   0.000%   0.000%   0.055%
   96    4.1  0.5 -0.5   0.000%   0.000%   0.000%   0.000%   0.000%   0.000%   0.000%   0.000%   0.000%   0.296%
   97    5.1  0.5 -0.5   0.000%   0.000%   0.000%   0.000%   0.000%   0.000%   0.000%   0.000%   0.000%   0.051%
   98    6.1  0.5 -0.5   0.000%   0.000%   0.000%   0.000%   0.000%   0.000%   0.000%   0.000%   0.008%   0.000%
   99    7.1  0.5 -0.5   0.000%   0.000%   0.000%   0.000%   0.000%   0.000%   0.000%   0.000%   0.057%   0.000%
  100    8.1  0.5 -0.5   0.000%   0.000%   0.000%   0.000%   0.000%   0.000%   0.000%   0.000%   0.000%   0.000%
  101    9.1  0.5 -0.5   0.000%   0.000%   0.000%   0.000%   0.000%   0.000%   0.000%   0.000%   0.000%   0.000%
  102   10.1  0.5 -0.5   0.000%   0.000%   0.000%   0.000%   0.000%   0.000%   0.000%   0.000%   0.000%   0.000%
  103   11.1  0.5 -0.5   0.000%   0.000%   0.000%   0.000%   0.000%   0.000%   0.000%   0.000%   0.000%   0.000%
  104   12.1  0.5 -0.5   0.000%   0.000%   0.000%   0.000%   0.000%   0.000%   0.000%   0.000%   0.000%   0.000%
  105   13.1  0.5 -0.5   0.000%   0.000%   0.000%   0.000%   0.000%   0.000%   0.000%   0.000%   0.000%   0.000%
  106   14.1  0.5 -0.5   0.000%   0.000%   0.000%   0.000%   0.000%   0.000%   0.000%   0.000%   0.000%   0.000%
  107   15.1  0.5 -0.5   0.000%   0.000%   0.000%   0.000%   0.000%   0.000%   0.000%   0.000%   0.000%   0.000%
  108   16.1  0.5 -0.5  47.699%   0.000%   0.536%   0.002%   0.024%   0.000%   0.008%   0.000%   0.000%   1.967%
  109   17.1  0.5 -0.5   0.923%   0.000%  23.536%   0.094%   0.019%   0.000%   0.038%   0.000%   0.000%  27.507%
  110   18.1  0.5 -0.5   0.000%   5.885%   0.068%  17.137%   0.000%   0.057%   0.000%   0.006%  28.175%   0.000%
  111   19.1  0.5 -0.5   0.000%   0.710%   0.036%   8.923%   0.001%  33.040%   0.000%   0.649%   8.431%   0.000%
  112   20.1  0.5 -0.5   0.000%   0.000%   0.140%  34.931%   0.000%   8.801%   0.001%  10.362%  24.695%   0.000%
  113   21.1  0.5 -0.5   4.170%   0.000%   1.160%   0.005%  46.286%   0.002%   3.071%   0.000%   0.000%   1.156%
  114   22.1  0.5 -0.5   0.000%  31.278%   0.017%   4.207%   0.000%   0.281%   0.001%  18.096%   3.839%   0.000%
  115   23.1  0.5 -0.5   0.662%   0.000%   1.456%   0.006%   3.767%   0.000%  43.281%   0.003%   0.000%   0.314%
  116   24.1  0.5 -0.5   0.000%   7.824%   0.027%   6.871%   0.000%   6.873%   0.001%  23.635%   3.011%   0.000%

   Nr   State  S   Sz     111      112      113      114      115      116

    1    1.1  1.5  1.5   0.007%   0.000%   0.000%   0.020%   0.000%   0.009%
    2    2.1  1.5  1.5   0.017%   0.000%   0.000%   0.006%   0.000%   0.000%
    3    3.1  1.5  1.5   0.000%   0.008%   0.004%   0.000%   0.011%   0.000%
    4    4.1  1.5  1.5   0.000%   0.015%   0.001%   0.000%   0.019%   0.000%
    5    5.1  1.5  1.5   0.000%   0.000%   0.002%   0.000%   0.002%   0.000%
    6    6.1  1.5  1.5   0.000%   0.000%   0.004%   0.000%   0.000%   0.000%
    7    7.1  1.5  1.5   0.002%   0.000%   0.000%   0.002%   0.000%   0.001%
    8    8.1  1.5  1.5   0.000%   0.000%   0.000%   0.000%   0.000%   0.000%
    9    9.1  1.5  1.5   0.000%   0.000%   0.000%   0.000%   0.000%   0.000%
   10   10.1  1.5  1.5   0.000%   0.000%   0.000%   0.000%   0.000%   0.000%
   11   11.1  1.5  1.5   0.055%   0.000%   0.000%   0.018%   0.000%   0.000%
   12   12.1  1.5  1.5   0.000%   0.050%   0.004%   0.000%   0.054%   0.000%
   13   13.1  1.5  1.5   0.000%   0.018%   0.027%   0.000%   0.025%   0.000%
   14   14.1  1.5  1.5   0.006%   0.000%   0.000%   0.008%   0.000%   0.002%
   15   15.1  1.5  1.5   0.020%   0.000%   0.000%   0.066%   0.000%   0.030%
   16   16.1  1.5  1.5   0.000%   0.000%   0.004%   0.000%   0.015%   0.000%
   17   17.1  1.5  1.5   0.000%   0.009%   0.001%   0.000%   0.009%   0.000%
   18    1.1  1.5  0.5   0.000%   0.004%   0.001%   0.000%   0.000%   0.000%
   19    2.1  1.5  0.5   0.000%   0.007%   0.014%   0.000%   0.000%   0.000%
   20    3.1  1.5  0.5   0.003%   0.000%   0.000%   0.000%   0.000%   0.000%
   21    4.1  1.5  0.5   0.008%   0.000%   0.000%   0.002%   0.000%   0.000%
   22    5.1  1.5  0.5   0.001%   0.000%   0.000%   0.021%   0.000%   0.014%
   23    6.1  1.5  0.5   0.008%   0.000%   0.000%   0.003%   0.000%   0.010%
   24    7.1  1.5  0.5   0.000%   0.003%   0.004%   0.000%   0.017%   0.000%
   25    8.1  1.5  0.5   0.000%   0.000%   0.000%   0.000%   0.000%   0.000%
   26    9.1  1.5  0.5   0.000%   0.000%   0.000%   0.000%   0.000%   0.000%
   27   10.1  1.5  0.5   0.000%   0.000%   0.000%   0.000%   0.000%   0.000%
   28   11.1  1.5  0.5   0.000%   0.024%   0.043%   0.000%   0.000%   0.000%
   29   12.1  1.5  0.5   0.029%   0.000%   0.000%   0.013%   0.000%   0.001%
   30   13.1  1.5  0.5   0.032%   0.000%   0.000%   0.005%   0.000%   0.006%
   31   14.1  1.5  0.5   0.000%   0.010%   0.012%   0.000%   0.055%   0.000%
   32   15.1  1.5  0.5   0.000%   0.013%   0.005%   0.000%   0.001%   0.000%
   33   16.1  1.5  0.5   0.000%   0.000%   0.000%   0.059%   0.000%   0.045%
   34   17.1  1.5  0.5   0.006%   0.000%   0.000%   0.006%   0.000%   0.027%
   35    1.1  1.5 -0.5   0.004%   0.000%   0.000%   0.001%   0.000%   0.000%
   36    2.1  1.5 -0.5   0.007%   0.000%   0.000%   0.014%   0.000%   0.000%
   37    3.1  1.5 -0.5   0.000%   0.003%   0.000%   0.000%   0.000%   0.000%
   38    4.1  1.5 -0.5   0.000%   0.008%   0.002%   0.000%   0.000%   0.000%
   39    5.1  1.5 -0.5   0.000%   0.001%   0.021%   0.000%   0.014%   0.000%
   40    6.1  1.5 -0.5   0.000%   0.008%   0.003%   0.000%   0.010%   0.000%
   41    7.1  1.5 -0.5   0.003%   0.000%   0.000%   0.004%   0.000%   0.017%
   42    8.1  1.5 -0.5   0.000%   0.000%   0.000%   0.000%   0.000%   0.000%
   43    9.1  1.5 -0.5   0.000%   0.000%   0.000%   0.000%   0.000%   0.000%
   44   10.1  1.5 -0.5   0.000%   0.000%   0.000%   0.000%   0.000%   0.000%
   45   11.1  1.5 -0.5   0.024%   0.000%   0.000%   0.043%   0.000%   0.000%
   46   12.1  1.5 -0.5   0.000%   0.029%   0.013%   0.000%   0.001%   0.000%
   47   13.1  1.5 -0.5   0.000%   0.032%   0.005%   0.000%   0.006%   0.000%
   48   14.1  1.5 -0.5   0.010%   0.000%   0.000%   0.012%   0.000%   0.055%
   49   15.1  1.5 -0.5   0.013%   0.000%   0.000%   0.005%   0.000%   0.001%
   50   16.1  1.5 -0.5   0.000%   0.000%   0.059%   0.000%   0.045%   0.000%
   51   17.1  1.5 -0.5   0.000%   0.006%   0.006%   0.000%   0.027%   0.000%
   52    1.1  1.5 -1.5   0.000%   0.007%   0.020%   0.000%   0.009%   0.000%
   53    2.1  1.5 -1.5   0.000%   0.017%   0.006%   0.000%   0.000%   0.000%
   54    3.1  1.5 -1.5   0.008%   0.000%   0.000%   0.004%   0.000%   0.011%
   55    4.1  1.5 -1.5   0.015%   0.000%   0.000%   0.001%   0.000%   0.019%
   56    5.1  1.5 -1.5   0.000%   0.000%   0.000%   0.002%   0.000%   0.002%
   57    6.1  1.5 -1.5   0.000%   0.000%   0.000%   0.004%   0.000%   0.000%
   58    7.1  1.5 -1.5   0.000%   0.002%   0.002%   0.000%   0.001%   0.000%
   59    8.1  1.5 -1.5   0.000%   0.000%   0.000%   0.000%   0.000%   0.000%
   60    9.1  1.5 -1.5   0.000%   0.000%   0.000%   0.000%   0.000%   0.000%
   61   10.1  1.5 -1.5   0.000%   0.000%   0.000%   0.000%   0.000%   0.000%
   62   11.1  1.5 -1.5   0.000%   0.055%   0.018%   0.000%   0.000%   0.000%
   63   12.1  1.5 -1.5   0.050%   0.000%   0.000%   0.004%   0.000%   0.054%
   64   13.1  1.5 -1.5   0.018%   0.000%   0.000%   0.027%   0.000%   0.025%
   65   14.1  1.5 -1.5   0.000%   0.006%   0.008%   0.000%   0.002%   0.000%
   66   15.1  1.5 -1.5   0.000%   0.020%   0.066%   0.000%   0.030%   0.000%
   67   16.1  1.5 -1.5   0.000%   0.000%   0.000%   0.004%   0.000%   0.015%
   68   17.1  1.5 -1.5   0.009%   0.000%   0.000%   0.001%   0.000%   0.009%
   69    1.1  0.5  0.5   0.026%   0.000%   0.000%   0.195%   0.000%   0.092%
   70    2.1  0.5  0.5   0.000%   0.198%   0.017%   0.000%   0.018%   0.000%
   71    3.1  0.5  0.5   0.160%   0.000%   0.000%   0.036%   0.000%   0.063%
   72    4.1  0.5  0.5   0.013%   0.000%   0.000%   0.001%   0.000%   0.003%
   73    5.1  0.5  0.5   0.101%   0.000%   0.000%   0.161%   0.000%   0.000%
   74    6.1  0.5  0.5   0.000%   0.011%   0.000%   0.000%   0.294%   0.000%
   75    7.1  0.5  0.5   0.000%   0.039%   0.138%   0.000%   0.078%   0.000%
   76    8.1  0.5  0.5   0.000%   0.000%   0.000%   0.000%   0.000%   0.000%
   77    9.1  0.5  0.5   0.000%   0.000%   0.000%   0.000%   0.000%   0.000%
   78   10.1  0.5  0.5   0.000%   0.000%   0.000%   0.000%   0.000%   0.000%
   79   11.1  0.5  0.5   0.000%   0.000%   0.000%   0.000%   0.000%   0.000%
   80   12.1  0.5  0.5   0.000%   0.000%   0.000%   0.000%   0.000%   0.000%
   81   13.1  0.5  0.5   0.000%   0.000%   0.000%   0.000%   0.000%   0.000%
   82   14.1  0.5  0.5   0.000%   0.000%   0.000%   0.000%   0.000%   0.000%
   83   15.1  0.5  0.5   0.000%   0.000%   0.000%   0.000%   0.000%   0.000%
   84   16.1  0.5  0.5  36.312%   0.000%   0.000%   4.561%   0.000%   0.001%
   85   17.1  0.5  0.5   1.142%   0.000%   0.000%  14.212%   0.000%   0.105%
   86   18.1  0.5  0.5   0.000%   7.015%   7.750%   0.000%   0.119%   0.000%
   87   19.1  0.5  0.5   0.000%   2.571%  24.583%   0.000%   8.862%   0.000%
   88   20.1  0.5  0.5   0.000%   0.005%   0.030%   0.000%  19.959%   0.000%
   89   21.1  0.5  0.5   6.330%   0.000%   0.000%   1.641%   0.000%  35.085%
   90   22.1  0.5  0.5   0.000%  36.795%   0.181%   0.000%   4.163%   0.000%
   91   23.1  0.5  0.5   1.275%   0.000%   0.000%  11.941%   0.000%  30.782%
   92   24.1  0.5  0.5   0.000%   7.651%  34.197%   0.000%   0.021%   0.000%
   93    1.1  0.5 -0.5   0.000%   0.026%   0.195%   0.000%   0.092%   0.000%
   94    2.1  0.5 -0.5   0.198%   0.000%   0.000%   0.017%   0.000%   0.018%
   95    3.1  0.5 -0.5   0.000%   0.160%   0.036%   0.000%   0.063%   0.000%
   96    4.1  0.5 -0.5   0.000%   0.013%   0.001%   0.000%   0.003%   0.000%
   97    5.1  0.5 -0.5   0.000%   0.101%   0.161%   0.000%   0.000%   0.000%
   98    6.1  0.5 -0.5   0.011%   0.000%   0.000%   0.000%   0.000%   0.294%
   99    7.1  0.5 -0.5   0.039%   0.000%   0.000%   0.138%   0.000%   0.078%
  100    8.1  0.5 -0.5   0.000%   0.000%   0.000%   0.000%   0.000%   0.000%
  101    9.1  0.5 -0.5   0.000%   0.000%   0.000%   0.000%   0.000%   0.000%
  102   10.1  0.5 -0.5   0.000%   0.000%   0.000%   0.000%   0.000%   0.000%
  103   11.1  0.5 -0.5   0.000%   0.000%   0.000%   0.000%   0.000%   0.000%
  104   12.1  0.5 -0.5   0.000%   0.000%   0.000%   0.000%   0.000%   0.000%
  105   13.1  0.5 -0.5   0.000%   0.000%   0.000%   0.000%   0.000%   0.000%
  106   14.1  0.5 -0.5   0.000%   0.000%   0.000%   0.000%   0.000%   0.000%
  107   15.1  0.5 -0.5   0.000%   0.000%   0.000%   0.000%   0.000%   0.000%
  108   16.1  0.5 -0.5   0.000%  36.312%   4.561%   0.000%   0.001%   0.000%
  109   17.1  0.5 -0.5   0.000%   1.142%  14.212%   0.000%   0.105%   0.000%
  110   18.1  0.5 -0.5   7.015%   0.000%   0.000%   7.750%   0.000%   0.119%
  111   19.1  0.5 -0.5   2.571%   0.000%   0.000%  24.583%   0.000%   8.862%
  112   20.1  0.5 -0.5   0.005%   0.000%   0.000%   0.030%   0.000%  19.959%
  113   21.1  0.5 -0.5   0.000%   6.330%   1.641%   0.000%  35.085%   0.000%
  114   22.1  0.5 -0.5  36.795%   0.000%   0.000%   0.181%   0.000%   4.163%
  115   23.1  0.5 -0.5   0.000%   1.275%  11.941%   0.000%  30.782%   0.000%
  116   24.1  0.5 -0.5   7.651%   0.000%   0.000%  34.197%   0.000%   0.021%


 Property matrices transformed in SO basis (not sym. adapted)
 ============================================================

 No matrix element <i|DMX|i> larger than 5E-7
 No matrix element <i|DMX|1> larger than 5E-7

 No matrix element <i|DMY|i> larger than 5E-7
 No matrix element <i|DMY|1> larger than 5E-7

 No matrix element <i|DMZ|i> larger than 5E-7
 No matrix element <i|DMZ|1> larger than 5E-7


 **********************************************************************************************************************************
 DATASETS  * FILE   NREC   LENGTH (MB)   RECORD NAMES
              1      21       32.05       500      610      700      900      950      970     1000      129      960     1100   
                                          VAR    BASINP    GEOM    SYMINP    ZMAT    AOBASIS   BASIS     P2S    ABASIS      S 
                                         1400     1410     1420     1200     1210     1080     1700     1600     1650     1380   
                                           T        V       ECP      H0       H01     AOSYM    OPER      SMH    MOLCAS    JKOP   
                                         1700(1)
                                         OPER   

              2       6     1252.72       700     1000      520     2140     5103     5101   
                                         GEOM     BASIS   MCVARS    MCSCF    MRCI     MRCI   

 PROGRAMS   *        TOTAL        CI        CI        CI     MULTI       INT
 CPU TIMES  *     58398.46  54650.11   3078.30    664.31      3.93      1.44
 REAL TIME  *     61062.67 SEC
 DISK USED  *         1.25 GB (local),       37.77 GB (total)
 SF USED    *         8.23 GB
 GA USED    *         0.00 MB       (max)       0.00 MB       (current)
 **********************************************************************************************************************************

 CI/cc-pWCVTZ-PP energy=   -109.948151244254

              CI              CI           MULTI
   -109.89257545   -109.89151920   -109.33359256
 **********************************************************************************************************************************
 Molpro calculation terminated
