
 Working directory              : /wrk/irikura/molpro.HbL78zJVUN/
 Global scratch directory       : /wrk/irikura/molpro.HbL78zJVUN/
 Wavefunction directory         : /home/irikura/wfu/
 Main file repository           : /wrk/irikura/molpro.HbL78zJVUN/

 id        : nistki

 Nodes            nprocs
 pn125343.nist.gov   10
 GA implementation: MPI file
 GA implementation (serial work in mppx): MPI file

 Using customized tuning parameters: mindgm=1; mindgv=20; mindgc=4; mindgr=1; noblas=0; minvec=7
 default implementation of scratch files=sf  


 Variables initialized (1025), CPU time= 0.01 sec
 ***,Rh atom, (17/10) active space/core
                                                                                 ! 4F + 2F
 memory,1000,M;
 
 gprint,orbitals,civector
 
 symmetry,xyz
 geometry={Rh}
 
 basis=cc-pwCVTZ-PP
 
 {multi
     closed,0,0
     wf,nelec=17,sym=1,spin=3; state,7;
     wf,nelec=17,sym=1,spin=1; state,7;
     expec2,lxx,lyy,lzz;
  }
 table, energy, ll
 title, Energies and LL values
 
 {ci;wf,sym=1,spin=3;state,7;save,5103.2}
 hlsdiag = energd4
 {ci;wf,sym=1,spin=1;state,7;save,5101.2}
 hlsdiag(8) = energd4
 
 table, hlsdiag
 
                                                                                 !compute and diagonalize SO matrix
 {ci;hlsmat,ecp,5103.2,5101.2;print,vls=0,hls=0}
 
 Commands initialized (840), CPU time= 0.01 sec, 684 directives.
 Default parameters read. Elapsed time= 0.08 sec

 Checking input...
 Passed
1


                                         ***  PROGRAM SYSTEM MOLPRO  ***
                                       Copyright, TTI GmbH Stuttgart, 2015
                                    Version 2022.3 linked Wed Nov 30 06:40:34 2022


 **********************************************************************************************************************************
 LABEL *   Rh ato0) activcore                                                            
  64 bit mpp version                                                                     DATE: 13-Feb-24          TIME: 16:37:45  
 **********************************************************************************************************************************

 SHA1:             e31ec9a5ea85254ab76f59d122cbdd51c71cf98b
 **********************************************************************************************************************************

 Memory per process:      1000 MW
 Total memory per node:  10000 MW

 GA preallocation disabled
 GA check disabled

 Variable memory set to 1000.0 MW


 ZSYMEL=XYZ

 SETTING BASIS          =    CC-PWCVTZ-PP


 Recomputing integrals since basis changed


 Using spherical harmonics

 Library entry Rh   ECP ECP28MDF                 selected for group  1
 Library entry RH     S cc-pwCVTZ-PP         selected for orbital group  1
 Library entry RH     P cc-pwCVTZ-PP         selected for orbital group  1
 Library entry RH     D cc-pwCVTZ-PP         selected for orbital group  1
 Library entry RH     F cc-pwCVTZ-PP         selected for orbital group  1
 Library entry RH     G cc-pwCVTZ-PP         selected for orbital group  1


 PROGRAM * SEWARD (Integral evaluation for generally contracted gaussian basis sets)     Author: Roland Lindh, 1990

 Geometry written to block  1 of record 700

 Orientation using atomic masses  
 Molecule type: Atom
 User-specified symmetry elements: XYZ
 Symmetry elements: XYZ
 Rotational constants:       0.0000000      0.0000000      0.0000000 GHz  (calculated with average atomic masses)

 Point group  Ci  



 ATOMIC COORDINATES

 NR  ATOM    CHARGE       X              Y              Z

   1  RH     17.00    0.000000000    0.000000000    0.000000000

 NUCLEAR CHARGE:                   17
 NUMBER OF PRIMITIVE AOS:         165
 NUMBER OF SYMMETRY AOS:          134
 NUMBER OF CONTRACTIONS:           97   (   55Ag  +   42Au  )
 NUMBER OF INNER CORE ORBITALS:     0   (    0Ag  +    0Au  )
 NUMBER OF OUTER CORE ORBITALS:     4   (    1Ag  +    3Au  )
 NUMBER OF VALENCE ORBITALS:        6   (    6Ag  +    0Au  )


 LX: Ag           LY: Ag           LZ: Ag 


 NUCLEAR REPULSION ENERGY    0.00000000

 EXTRA SYMMETRY OF AOS IN SYMMETRY 1:   1 1 1 1 1 1 1 2 3 4   5 6 2 3 4 5 6 2 3 4   5 6 2 3 4 5 6 2 3 4   5 6 2 3 4 5 6 7 8 9
                                       101112131415 7 8 910  1112131415
 EXTRA SYMMETRY OF AOS IN SYMMETRY 2:   1 2 3 1 2 3 1 2 3 1   2 3 1 2 3 1 2 3 1 2   3 4 5 6 7 8 910 4 5   6 7 8 910 4 5 6 7 8
                                        910


 Eigenvalues of metric

         1 0.743E-03 0.223E-02 0.223E-02 0.223E-02 0.223E-02 0.223E-02 0.534E-02 0.439E-01
         2 0.905E-03 0.905E-03 0.905E-03 0.520E-02 0.520E-02 0.520E-02 0.207E+00 0.207E+00


 Contracted 2-electron integrals neglected if value below      1.0D-11
 AO integral compression algorithm  1   Integral accuracy      1.0D-11

     13.369 MB (compressed) written to integral file ( 16.1%)

     Node minimum: 0.786 MB, node maximum: 2.097 MB


 NUMBER OF SORTED TWO-ELECTRON INTEGRALS:     576100.     BUFFER LENGTH:  32768
 NUMBER OF SEGMENTS:   1  SEGMENT LENGTH:     576100      RECORD LENGTH: 524288

 Memory used in sort:       1.13 MW

 SORT1 READ    10862098. AND WROTE      115800. INTEGRALS IN      1 RECORDS. CPU TIME:     0.06 SEC, REAL TIME:     0.07 SEC
 SORT2 READ     1120219. AND WROTE     5766586. INTEGRALS IN     30 RECORDS. CPU TIME:     0.01 SEC, REAL TIME:     0.02 SEC

 Node minimum:      574636.  Node maximum:      579915. integrals

 OPERATOR DM      FOR CENTER  0  COORDINATES:    0.000000    0.000000    0.000000


 **********************************************************************************************************************************
 DATASETS  * FILE   NREC   LENGTH (MB)   RECORD NAMES
              1      19       28.83       500      610      700      900      950      970     1000      129      960     1100   
                                          VAR    BASINP    GEOM    SYMINP    ZMAT    AOBASIS   BASIS     P2S    ABASIS      S 
                                         1400     1410     1420     1200     1210     1080     1700     1600     1650   
                                           T        V       ECP      H0       H01     AOSYM    OPER      SMH    MOLCAS    

 PROGRAMS   *        TOTAL       INT
 CPU TIMES  *         0.57      0.41
 REAL TIME  *         1.03 SEC
 DISK USED  *        29.10 MB (local),      337.97 MB (total)
 GA USED    *         0.00 MB       (max)       0.00 MB       (current)
 **********************************************************************************************************************************

 PROGRAM * MULTI (Direct Multiconfiguration SCF)       Authors: P.J. Knowles, H.-J. Werner (1984)
                                                                D.A. Kreplin, P.J. Knowles, H.-J. Werner (2019)

 Number of active  orbitals:       10 (    7    3)
 Number of external orbitals:      87 (   48   39)

 State symmetry 1

 Number of active electrons:  17    Spin symmetry=Quartet   Space symmetry=1
 Number of states:             7
 Number of CSFs:              56   (56 determinants, 120 intermediate states)

 State symmetry 2

 Number of active electrons:  17    Spin symmetry=Doublet   Space symmetry=1
 Number of states:             7
 Number of CSFs:             175   (231 determinants, 450 intermediate states)

 Orbital guess generated from atomic densities. Full valence occupancy:    7   3
 *** IN SYMMETRY 1 ORBITAL  3 SYMMETRY CONTAMINATION OF 0.161D+00 HAS BEEN REMOVED
 *** IN SYMMETRY 1 ORBITAL  4 SYMMETRY CONTAMINATION OF 0.156D+00 HAS BEEN REMOVED
 *** IN SYMMETRY 1 ORBITAL  5 SYMMETRY CONTAMINATION OF 0.225D+00 HAS BEEN REMOVED
 *** IN SYMMETRY 1 ORBITAL  6 SYMMETRY CONTAMINATION OF 0.220D+00 HAS BEEN REMOVED

 EXTRA SYMMETRY OF MOS IN SYMMETRY 1:   1 2 6 4 3 5 1 1 2 6   4 5 3 1 6 4 2 5 3 2   6 4 3 5 1 711 91514  1310 812 2 6 4 5 3 1
                                        71514131011 9 812 2   6 4 5 3 1
 *** IN SYMMETRY 2 ORBITAL  1 SYMMETRY CONTAMINATION OF 0.357D+00 HAS BEEN REMOVED
 *** IN SYMMETRY 2 ORBITAL  2 SYMMETRY CONTAMINATION OF 0.358D+00 HAS BEEN REMOVED
 *** IN SYMMETRY 2 ORBITAL  3 SYMMETRY CONTAMINATION OF 0.156D-02 HAS BEEN REMOVED
 EXTRA SYMMETRY OF MOS IN SYMMETRY 2:   1 2 3 2 1 3 2 1 3 3   2 1 9 7 5 4 6 810 3   2 1 6 4 5 9 7 810 2   1 3 810 6 7 9 4 5 2
                                        1 3

 Wavefunction dump at record             2140.2

 Convergence thresholds  0.10E-04 (gradient)  0.10E-05 (energy)

 Weight factors for state symmetry  1:    0.07143   0.07143   0.07143   0.07143   0.07143   0.07143   0.07143
 Weight factors for state symmetry  2:    0.07143   0.07143   0.07143   0.07143   0.07143   0.07143   0.07143
 
 Number of orbital rotations:  453  ( 0 closed/active, 0 closed/virtual, 0 active/active, 453 active/virtual )
 Total number of variables:    2462
 
 Second-order MCSCF: L-BFGS accelerated
 
 ITER  MIC  NCI  NEG     ENERGY(VAR)    ENERGY(PROJ) ENERGY CHANGE       GRAD(0)  GRAD(ORB)   GRAD(CI)      STEP      TIME
   1    3    6    0   -109.35402588    -109.36715811   -0.01313223    0.20234649 0.00013420 0.00000000  0.10E+00      0.26
   2    2    4    0   -109.36692323    -109.36693286   -0.00000963    0.00533116 0.00002058 0.00000000  0.32E-02      0.45
   3   20   40    0   -109.36693287    -109.36693287   -0.00000000    0.00000489 0.00000017 0.00000000  0.39E-05      1.77

 CONVERGENCE REACHED!  Final gradient:    0.00000012 ( 0.12E-06)
                       Final energy:   -109.36693287
 
 Results for state 1.1 Quartet
 =============================
 !MCSCF STATE 1.1 Quartet Energy              -109.380524162831
 Nuclear energy                                  0.00000000
 Kinetic energy                                 41.01645992
 One electron energy                          -193.49472998
 Two electron energy                            84.11420581
 Virial ratio                                    3.66674707
 
 !MCSCF STATE 1.1 Quartet Dipole moment          0.00000000     0.00000000     0.00000000
 Dipole moment /Debye                            0.00000000     0.00000000     0.00000000
 
 Results for state 2.1 Quartet
 =============================
 !MCSCF STATE 2.1 Quartet Energy              -109.380524162654
 Nuclear energy                                  0.00000000
 Kinetic energy                                 41.01645997
 One electron energy                          -193.49473005
 Two electron energy                            84.11420588
 Virial ratio                                    3.66674706
 
 !MCSCF STATE 2.1 Quartet Dipole moment          0.00000000     0.00000000     0.00000000
 Dipole moment /Debye                            0.00000000     0.00000000     0.00000000
 
 Results for state 3.1 Quartet
 =============================
 !MCSCF STATE 3.1 Quartet Energy              -109.380524162616
 Nuclear energy                                  0.00000000
 Kinetic energy                                 41.01645996
 One electron energy                          -193.49473002
 Two electron energy                            84.11420586
 Virial ratio                                    3.66674706
 
 !MCSCF STATE 3.1 Quartet Dipole moment          0.00000000     0.00000000     0.00000000
 Dipole moment /Debye                            0.00000000     0.00000000     0.00000000
 
 Results for state 4.1 Quartet
 =============================
 !MCSCF STATE 4.1 Quartet Energy              -109.380524162545
 Nuclear energy                                  0.00000000
 Kinetic energy                                 41.01646000
 One electron energy                          -193.49473009
 Two electron energy                            84.11420592
 Virial ratio                                    3.66674706
 
 !MCSCF STATE 4.1 Quartet Dipole moment          0.00000000     0.00000000     0.00000000
 Dipole moment /Debye                            0.00000000     0.00000000     0.00000000
 
 Results for state 5.1 Quartet
 =============================
 !MCSCF STATE 5.1 Quartet Energy              -109.380524161966
 Nuclear energy                                  0.00000000
 Kinetic energy                                 41.01646001
 One electron energy                          -193.49473010
 Two electron energy                            84.11420593
 Virial ratio                                    3.66674706
 
 !MCSCF STATE 5.1 Quartet Dipole moment          0.00000000     0.00000000     0.00000000
 Dipole moment /Debye                            0.00000000     0.00000000     0.00000000
 
 Results for state 6.1 Quartet
 =============================
 !MCSCF STATE 6.1 Quartet Energy              -109.380524160799
 Nuclear energy                                  0.00000000
 Kinetic energy                                 41.01646005
 One electron energy                          -193.49473016
 Two electron energy                            84.11420600
 Virial ratio                                    3.66674706
 
 !MCSCF STATE 6.1 Quartet Dipole moment          0.00000000     0.00000000     0.00000000
 Dipole moment /Debye                            0.00000000     0.00000000     0.00000000
 
 Results for state 7.1 Quartet
 =============================
 !MCSCF STATE 7.1 Quartet Energy              -109.380524160636
 Nuclear energy                                  0.00000000
 Kinetic energy                                 41.01646007
 One electron energy                          -193.49473017
 Two electron energy                            84.11420601
 Virial ratio                                    3.66674706
 
 !MCSCF STATE 7.1 Quartet Dipole moment          0.00000000     0.00000000     0.00000000
 Dipole moment /Debye                            0.00000000     0.00000000     0.00000000
 
 Results for state 1.1 Doublet
 =============================
 !MCSCF STATE 1.1 Doublet Energy              -109.353341580433
 Nuclear energy                                  0.00000000
 Kinetic energy                                 41.00184245
 One electron energy                          -193.46918382
 Two electron energy                            84.11584224
 Virial ratio                                    3.66703482
 
 !MCSCF STATE 1.1 Doublet Dipole moment          0.00000000     0.00000000     0.00000000
 Dipole moment /Debye                            0.00000000     0.00000000     0.00000000
 
 Results for state 2.1 Doublet
 =============================
 !MCSCF STATE 2.1 Doublet Energy              -109.353341579859
 Nuclear energy                                  0.00000000
 Kinetic energy                                 41.00184248
 One electron energy                          -193.46918386
 Two electron energy                            84.11584228
 Virial ratio                                    3.66703482
 
 !MCSCF STATE 2.1 Doublet Dipole moment          0.00000000     0.00000000     0.00000000
 Dipole moment /Debye                            0.00000000     0.00000000     0.00000000
 
 Results for state 3.1 Doublet
 =============================
 !MCSCF STATE 3.1 Doublet Energy              -109.353341579776
 Nuclear energy                                  0.00000000
 Kinetic energy                                 41.00184248
 One electron energy                          -193.46918386
 Two electron energy                            84.11584228
 Virial ratio                                    3.66703482
 
 !MCSCF STATE 3.1 Doublet Dipole moment          0.00000000     0.00000000     0.00000000
 Dipole moment /Debye                            0.00000000     0.00000000     0.00000000
 
 Results for state 4.1 Doublet
 =============================
 !MCSCF STATE 4.1 Doublet Energy              -109.353341579197
 Nuclear energy                                  0.00000000
 Kinetic energy                                 41.00184253
 One electron energy                          -193.46918393
 Two electron energy                            84.11584235
 Virial ratio                                    3.66703482
 
 !MCSCF STATE 4.1 Doublet Dipole moment          0.00000000     0.00000000     0.00000000
 Dipole moment /Debye                            0.00000000     0.00000000     0.00000000
 
 Results for state 5.1 Doublet
 =============================
 !MCSCF STATE 5.1 Doublet Energy              -109.353341578418
 Nuclear energy                                  0.00000000
 Kinetic energy                                 41.00184256
 One electron energy                          -193.46918396
 Two electron energy                            84.11584239
 Virial ratio                                    3.66703482
 
 !MCSCF STATE 5.1 Doublet Dipole moment          0.00000000     0.00000000     0.00000000
 Dipole moment /Debye                            0.00000000     0.00000000     0.00000000
 
 Results for state 6.1 Doublet
 =============================
 !MCSCF STATE 6.1 Doublet Energy              -109.353341576952
 Nuclear energy                                  0.00000000
 Kinetic energy                                 41.00184258
 One electron energy                          -193.46918400
 Two electron energy                            84.11584242
 Virial ratio                                    3.66703481
 
 !MCSCF STATE 6.1 Doublet Dipole moment          0.00000000     0.00000000     0.00000000
 Dipole moment /Debye                            0.00000000     0.00000000     0.00000000
 
 Results for state 7.1 Doublet
 =============================
 !MCSCF STATE 7.1 Doublet Energy              -109.353341576637
 Nuclear energy                                  0.00000000
 Kinetic energy                                 41.00184259
 One electron energy                          -193.46918402
 Two electron energy                            84.11584244
 Virial ratio                                    3.66703481
 
 !MCSCF STATE 7.1 Doublet Dipole moment          0.00000000     0.00000000     0.00000000
 Dipole moment /Debye                            0.00000000     0.00000000     0.00000000
 
 State-averaged charge density matrix saved on record 2140.2 (density set 1)
 
 No non-zero expectation values
 
 Expectation values for two-electron operators:
 
 !MCSCF expec      <1.1 Quartet|LXLX|1.1 Quartet>     4.000000000000
 !MCSCF expec      <2.1 Quartet|LXLX|2.1 Quartet>     7.996154514911
 !MCSCF expec      <3.1 Quartet|LXLX|3.1 Quartet>     3.665488840995
 !MCSCF expec      <4.1 Quartet|LXLX|4.1 Quartet>     8.995863234542
 !MCSCF expec      <5.1 Quartet|LXLX|5.1 Quartet>     2.003790473743
 !MCSCF expec      <6.1 Quartet|LXLX|6.1 Quartet>     1.004130950287
 !MCSCF expec      <7.1 Quartet|LXLX|7.1 Quartet>     0.334503909475
 !MCSCF expec      <1.1 Doublet|LXLX|1.1 Doublet>     3.999999999999
 !MCSCF expec      <2.1 Doublet|LXLX|2.1 Doublet>     3.750041707092
 !MCSCF expec      <3.1 Doublet|LXLX|3.1 Doublet>     5.684155220551
 !MCSCF expec      <4.1 Doublet|LXLX|4.1 Doublet>     8.986274562895
 !MCSCF expec      <5.1 Doublet|LXLX|5.1 Doublet>     4.315733214446
 !MCSCF expec      <6.1 Doublet|LXLX|6.1 Doublet>     1.013730911610
 !MCSCF expec      <7.1 Doublet|LXLX|7.1 Doublet>     0.249964811221
 
 !MCSCF expec      <1.1 Quartet|LYLY|1.1 Quartet>     4.000000000000
 !MCSCF expec      <2.1 Quartet|LYLY|2.1 Quartet>     1.095388091953
 !MCSCF expec      <3.1 Quartet|LYLY|3.1 Quartet>     6.311564876609
 !MCSCF expec      <4.1 Quartet|LYLY|4.1 Quartet>     1.588564276853
 !MCSCF expec      <5.1 Quartet|LYLY|5.1 Quartet>     8.904629938058
 !MCSCF expec      <6.1 Quartet|LYLY|6.1 Quartet>     2.411497644342
 !MCSCF expec      <7.1 Quartet|LYLY|7.1 Quartet>     3.688462540751
 !MCSCF expec      <1.1 Doublet|LYLY|1.1 Doublet>     4.000000000001
 !MCSCF expec      <2.1 Doublet|LYLY|2.1 Doublet>     5.999836550058
 !MCSCF expec      <3.1 Doublet|LYLY|3.1 Doublet>     2.493409011938
 !MCSCF expec      <4.1 Doublet|LYLY|4.1 Doublet>     1.341435163316
 !MCSCF expec      <5.1 Doublet|LYLY|5.1 Doublet>     7.506679796782
 !MCSCF expec      <6.1 Doublet|LYLY|6.1 Doublet>     2.658604179226
 !MCSCF expec      <7.1 Doublet|LYLY|7.1 Doublet>     4.000141925714
 
 !MCSCF expec      <1.1 Quartet|LZLZ|1.1 Quartet>     4.000000000000
 !MCSCF expec      <2.1 Quartet|LZLZ|2.1 Quartet>     2.908457393136
 !MCSCF expec      <3.1 Quartet|LZLZ|3.1 Quartet>     2.022946282396
 !MCSCF expec      <4.1 Quartet|LZLZ|4.1 Quartet>     1.415572488605
 !MCSCF expec      <5.1 Quartet|LZLZ|5.1 Quartet>     1.091579588199
 !MCSCF expec      <6.1 Quartet|LZLZ|6.1 Quartet>     8.584371405371
 !MCSCF expec      <7.1 Quartet|LZLZ|7.1 Quartet>     7.977033549774
 !MCSCF expec      <1.1 Doublet|LZLZ|1.1 Doublet>     4.000000000001
 !MCSCF expec      <2.1 Doublet|LZLZ|2.1 Doublet>     2.250121742850
 !MCSCF expec      <3.1 Doublet|LZLZ|3.1 Doublet>     3.822435767511
 !MCSCF expec      <4.1 Doublet|LZLZ|4.1 Doublet>     1.672290273789
 !MCSCF expec      <5.1 Doublet|LZLZ|5.1 Doublet>     0.177586988772
 !MCSCF expec      <6.1 Doublet|LZLZ|6.1 Doublet>     8.327664909164
 !MCSCF expec      <7.1 Doublet|LZLZ|7.1 Doublet>     7.749893263064
 
 !MCSCF expec      <1.1 Quartet|L**2|1.1 Quartet>    12.000000000000
 !MCSCF expec      <2.1 Quartet|L**2|2.1 Quartet>    12.000000000000
 !MCSCF expec      <3.1 Quartet|L**2|3.1 Quartet>    12.000000000000
 !MCSCF expec      <4.1 Quartet|L**2|4.1 Quartet>    12.000000000000
 !MCSCF expec      <5.1 Quartet|L**2|5.1 Quartet>    12.000000000000
 !MCSCF expec      <6.1 Quartet|L**2|6.1 Quartet>    12.000000000000
 !MCSCF expec      <7.1 Quartet|L**2|7.1 Quartet>    12.000000000000
 !MCSCF expec      <1.1 Doublet|L**2|1.1 Doublet>    12.000000000000
 !MCSCF expec      <2.1 Doublet|L**2|2.1 Doublet>    12.000000000000
 !MCSCF expec      <3.1 Doublet|L**2|3.1 Doublet>    12.000000000000
 !MCSCF expec      <4.1 Doublet|L**2|4.1 Doublet>    12.000000000000
 !MCSCF expec      <5.1 Doublet|L**2|5.1 Doublet>    12.000000000000
 !MCSCF expec      <6.1 Doublet|L**2|6.1 Doublet>    12.000000000000
 !MCSCF expec      <7.1 Doublet|L**2|7.1 Doublet>    12.000000000000
 
 EXTRA SYMMETRY OF MOS IN SYMMETRY 1:   1 6 3 4 5 2 1 1 6 4   3 2 5 1 6 4 3 2 5 4   6 3 2 5 1 9 7121310   8141511 4 2 5 3 6 1
                                        9 7131012 8141511 4   2 5 3 6 1
 EXTRA SYMMETRY OF MOS IN SYMMETRY 2:   1 3 2 1 3 2 1 3 2 1   3 2 810 5 4 7 9 6 1   3 2 4 810 6 7 9 5 1   3 2 4 6 9 710 8 5 1
                                        3 2
 
  NATURAL ORBITALS (STATE AVERAGED)
  =================================

  Orbital  Occupation    Energy    Cen Mu Typ  Coefficients
    1.1     2.00000    -3.72383     1  1  s    1.00208
    2.1     1.59952    -0.30807     1  1  d1-  1.00408
    3.1     1.59952    -0.30807     1  1  d2-  1.00408
    4.1     1.59952    -0.30807     1  1  d1+  1.00408
    5.1     1.59952    -0.30807     1  1  d2+  1.00408
    6.1     1.59952    -0.30807     1  1  d0   1.00408
    7.1     1.00242    -0.10310     1  2  s    0.87712
    1.2     2.00000    -2.35453     1  1  px   1.00011
    2.2     2.00000    -2.35453     1  1  pz   1.00011
    3.2     2.00000    -2.35453     1  1  py   1.00011
 
 Natural orbital dump (state averaged) at molpro section 2140.2 (Orbital set 2)
 
 Transform the CI vectors
 
 CI Coefficients of symmetry 1 (Quartet)
 =======================================
 
 2222aaa 222      0.99999933     -0.00000000     -0.00000000     -0.00000000     -0.00000000     -0.00000000      0.00000000
 22aa22a 222     -0.00000000     -0.00000745      0.25865488      0.00009590      0.00000654      0.00002707      0.85621057
 22a22aa 222      0.00000000      0.85270943      0.00003499      0.00000216      0.52238423      0.00000799     -0.00000714
 222aa2a 222      0.00000000     -0.00000514     -0.00013742      0.37214413     -0.00000559      0.81333120     -0.00002589
 2a22a2a 222      0.00000000     -0.00003609      0.76435854      0.00030488      0.00000136     -0.00002513     -0.46449420
 2a2a22a 222      0.00000000     -0.46723466     -0.00002486      0.00000043      0.76268652      0.00000209     -0.00000238
 2aa222a 222      0.00000000      0.00000206     -0.00028048      0.69446845      0.00000241     -0.56365985      0.00002477
 222a2aa 222     -0.00000000     -0.00000178     -0.00024128      0.61580909     -0.00000183      0.14414784     -0.00000064
 2a222aa 222     -0.00000000      0.00002514     -0.59063710     -0.00023139     -0.00000456     -0.00000112     -0.22615759
 22a2a2a 222     -0.00000000      0.23361733      0.00001243     -0.00000021     -0.38134322     -0.00000104      0.00000119
 
 Energy:       -109.38052416   -109.38052416   -109.38052416   -109.38052416   -109.38052416   -109.38052416   -109.38052416
 
 
 CI Coefficients of symmetry 1 (Doublet)
 =======================================
 
 2222aab 222      0.81451856      0.00000010     -0.00000037      0.00000007     -0.00000028      0.00000020     -0.00000028
 22a22ab 222      0.00000042      0.00053045      0.79623457      0.00001151      0.17161207     -0.00003822      0.00002493
 2a2a22b 222      0.00000017     -0.00011480     -0.15349445      0.00017645      0.71217400     -0.00009386     -0.00004144
 22aa22b 222      0.00000022      0.18211712     -0.00015153      0.00007621      0.00003781      0.00063798      0.70539724
 222aa2b 222     -0.00000019     -0.00006613      0.00002249      0.26001060      0.00003007      0.68054864     -0.00062652
 2a22a2b 222     -0.00000020      0.63746877     -0.00041222      0.00016087     -0.00000669     -0.00032419     -0.35268349
 2aa222b 222      0.00000005     -0.00016521      0.00001430      0.59393597     -0.00019968     -0.42189128      0.00036007
 222a2ab 222     -0.00000008     -0.00013357      0.00002124      0.49302631     -0.00009792      0.14933593     -0.00015384
 2a222ab 222     -0.00000001     -0.47318818      0.00032548     -0.00013687     -0.00001797     -0.00018117     -0.20363943
 2222aba 222     -0.40725929     -0.00000005      0.00000019     -0.00000003      0.00000014     -0.00000010      0.00000014
 2222baa 222     -0.40725926     -0.00000005      0.00000019     -0.00000003      0.00000014     -0.00000010      0.00000014
 22a22ba 222     -0.00000021     -0.00026523     -0.39811731     -0.00000576     -0.08580604      0.00001911     -0.00001246
 22b22aa 222     -0.00000021     -0.00026523     -0.39811727     -0.00000576     -0.08580602      0.00001911     -0.00001246
 2b2a22a 222     -0.00000009      0.00005740      0.07674722     -0.00008822     -0.35608701      0.00004693      0.00002072
 2a2b22a 222     -0.00000009      0.00005740      0.07674723     -0.00008822     -0.35608699      0.00004693      0.00002072
 22a2a2b 222     -0.00000009      0.00005740      0.07674723     -0.00008822     -0.35608696      0.00004693      0.00002072
 22ba22a 222     -0.00000011     -0.09105856      0.00007577     -0.00003810     -0.00001890     -0.00031899     -0.35269862
 22ab22a 222     -0.00000011     -0.09105856      0.00007577     -0.00003810     -0.00001890     -0.00031899     -0.35269862
 222ab2a 222      0.00000009      0.00003307     -0.00001125     -0.13000530     -0.00001504     -0.34027433      0.00031326
 222ba2a 222      0.00000009      0.00003307     -0.00001125     -0.13000530     -0.00001504     -0.34027431      0.00031326
 2b22a2a 222      0.00000010     -0.31873439      0.00020611     -0.00008043      0.00000335      0.00016209      0.17634175
 2a22b2a 222      0.00000010     -0.31873438      0.00020611     -0.00008043      0.00000335      0.00016209      0.17634174
 2ba222a 222     -0.00000003      0.00008261     -0.00000715     -0.29696799      0.00009984      0.21094565     -0.00018004
 2ab222a 222     -0.00000003      0.00008261     -0.00000715     -0.29696798      0.00009984      0.21094563     -0.00018004
 222a2ba 222      0.00000004      0.00006678     -0.00001062     -0.24651316      0.00004896     -0.07466797      0.00007692
 222b2aa 222      0.00000004      0.00006678     -0.00001062     -0.24651315      0.00004896     -0.07466796      0.00007692
 2a222ba 222      0.00000001      0.23659409     -0.00016274      0.00006844      0.00000898      0.00009059      0.10181972
 2b222aa 222      0.00000001      0.23659409     -0.00016274      0.00006844      0.00000898      0.00009059      0.10181971
 22a2b2a 222      0.00000004     -0.00002870     -0.03837362      0.00004411      0.17804348     -0.00002346     -0.00001036
 22b2a2a 222      0.00000004     -0.00002870     -0.03837362      0.00004411      0.17804348     -0.00002346     -0.00001036
 
 Energy:       -109.35334158   -109.35334158   -109.35334158   -109.35334158   -109.35334158   -109.35334158   -109.35334158
 


 **********************************************************************************************************************************
 DATASETS  * FILE   NREC   LENGTH (MB)   RECORD NAMES
              1      21       32.05       500      610      700      900      950      970     1000      129      960     1100   
                                          VAR    BASINP    GEOM    SYMINP    ZMAT    AOBASIS   BASIS     P2S    ABASIS      S 
                                         1400     1410     1420     1200     1210     1080     1700     1600     1650     1380   
                                           T        V       ECP      H0       H01     AOSYM    OPER      SMH    MOLCAS    JKOP   
                                         1700(1)
                                         OPER   

              2       4        0.49       700     1000      520     2140   
                                         GEOM     BASIS   MCVARS    MCSCF   

 PROGRAMS   *        TOTAL     MULTI       INT
 CPU TIMES  *         2.43      1.85      0.41
 REAL TIME  *         3.04 SEC
 DISK USED  *        32.59 MB (local),      372.87 MB (total)
 SF USED    *        12.19 MB
 GA USED    *         0.00 MB       (max)       0.00 MB       (current)
 **********************************************************************************************************************************

 Energies and LL values

         ENERGY      LL
    -109.3805242   12.0
    -109.3805242   12.0
    -109.3805242   12.0
    -109.3805242   12.0
    -109.3805242   12.0
    -109.3805242   12.0
    -109.3805242   12.0
    -109.3533416   12.0
    -109.3533416   12.0
    -109.3533416   12.0
    -109.3533416   12.0
    -109.3533416   12.0
    -109.3533416   12.0
    -109.3533416   12.0
                                                  


 PROGRAM * CI (Multireference internally contracted CI)     Authors: H.-J. Werner, P.J. Knowles, 1987


 Convergence thresholds:  THRVAR = 1.00D-08  THRDEN = 1.00D-06

 Number of optimized states: 7  Roots:    1   2   3   4   5   6   7
 Number of reference states: 7  Roots:    1   2   3   4   5   6   7

 Reference symmetry:                   1   Quartet 
 Number of electrons:                 17
 Maximum number of shells:             3
 Maximum number of spin couplings:    14

 Reference space:       56 conf       56 CSFs
 N elec internal:      120 conf      120 CSFs
 N-1 el internal:      570 conf     1200 CSFs
 N-2 el internal:     1260 conf     7056 CSFs

 Number of electrons in valence space:                     17
 Maximum number of open shell orbitals in reference space:  3
 Maximum number of open shell orbitals in internal spaces:  7


 Number of active  orbitals:       10 (   7   3 )
 Number of external orbitals:      87 (  48  39 )

 Molecular orbitals read from record     2140.2  Type=MCSCF/NATURAL (state averaged)

 Valence orbitals related to previous ones by unitary transformation. Operators transformed.


 Number of p-space configurations:  20

 Reference wavefunction optimized for reference space (refopt=1)

 State     Reference Energy 
     1      -109.38052416
     2      -109.38052416
     3      -109.38052416
     4      -109.38052416
     5      -109.38052416
     6      -109.38052416
     7      -109.38052416

 Number of blocks in overlap matrix:    85   Smallest eigenvalue:  0.19D+00
 Number of N-2 electron functions:     608
 Number of N-1 electron functions:    1200

 Number of internal configurations:                   56
 Number of singly external configurations:         52056
 Number of doubly external configurations:       1149936
 Total number of contracted configurations:      1202048
 Total number of uncontracted configurations:   13328522

 Diagonal Coupling coefficients finished.               Storage:  409035 words, CPU-Time:      0.04 seconds.
 Energy denominators for pairs finished in 1 passes.    Storage:  413743 words, CPU-time:      0.03 seconds.

  ITER. STATE  ROOT     SQ.NORM     CORR.ENERGY   TOTAL ENERGY   ENERGY CHANGE       DEN1      VAR(S)    VAR(P)      TIME
    1     1     1     1.00000000     0.00000000  -109.38052416    -0.00000000    -0.71418140  0.25D-01  0.12D+00     0.19
    1     2     2     1.00000000     0.00000000  -109.38052416     0.00000000    -0.71385860  0.25D-01  0.12D+00     0.19
    1     3     3     1.00000000     0.00000000  -109.38052416     0.00000000    -0.71369772  0.25D-01  0.12D+00     0.19
    1     4     4     1.00000000     0.00000000  -109.38052416    -0.00000000    -0.71372579  0.25D-01  0.12D+00     0.19
    1     5     5     1.00000000     0.00000000  -109.38052416    -0.00000000    -0.71372538  0.25D-01  0.12D+00     0.19
    1     6     6     1.00000000     0.00000000  -109.38052416    -0.00000000    -0.71381079  0.25D-01  0.12D+00     0.19
    1     7     7     1.00000000     0.00000000  -109.38052416    -0.00000000    -0.71379602  0.25D-01  0.12D+00     0.19
    2     1     1     1.09351421    -0.56780953  -109.94833369    -0.56780953    -0.01552195  0.96D-03  0.20D-02     8.22
    2     2     2     1.09354350    -0.56780729  -109.94833145    -0.56780729    -0.01552720  0.96D-03  0.20D-02     8.22
    2     3     3     1.09354676    -0.56780241  -109.94832657    -0.56780241    -0.01553246  0.96D-03  0.20D-02     8.22
    2     4     4     1.09348779    -0.56778892  -109.94831308    -0.56778892    -0.01554455  0.96D-03  0.20D-02     8.22
    2     5     5     1.09351199    -0.56777747  -109.94830164    -0.56777747    -0.01555591  0.97D-03  0.20D-02     8.22
    2     6     6     1.09355224    -0.56776645  -109.94829061    -0.56776645    -0.01558093  0.96D-03  0.21D-02     8.22
    2     7     7     1.09356912    -0.56774866  -109.94827282    -0.56774866    -0.01560571  0.96D-03  0.21D-02     8.22
    3     1     1     1.08901278    -0.58252561  -109.96304977    -0.01471608    -0.00018464  0.12D-04  0.24D-04    16.14
    3     2     2     1.08898689    -0.58252544  -109.96304961    -0.01471816    -0.00018395  0.12D-04  0.24D-04    16.14
    3     3     3     1.08901495    -0.58252531  -109.96304947    -0.01472291    -0.00018509  0.12D-04  0.24D-04    16.14
    3     4     4     1.08898592    -0.58252531  -109.96304947    -0.01473639    -0.00018405  0.12D-04  0.24D-04    16.14
    3     5     5     1.08897185    -0.58252431  -109.96304847    -0.01474683    -0.00018445  0.12D-04  0.24D-04    16.14
    3     6     6     1.08896296    -0.58252358  -109.96304774    -0.01475713    -0.00018508  0.13D-04  0.24D-04    16.14
    3     7     7     1.08896938    -0.58252347  -109.96304763    -0.01477481    -0.00018529  0.12D-04  0.24D-04    16.14
    4     1     1     1.08954801    -0.58271459  -109.96323876    -0.00018899    -0.00000798  0.21D-05  0.91D-06    24.09
    4     2     2     1.08954761    -0.58271459  -109.96323876    -0.00018915    -0.00000797  0.21D-05  0.91D-06    24.09
    4     3     3     1.08954164    -0.58271447  -109.96323864    -0.00018916    -0.00000804  0.22D-05  0.90D-06    24.09
    4     4     4     1.08954125    -0.58271446  -109.96323862    -0.00018915    -0.00000805  0.22D-05  0.90D-06    24.09
    4     5     5     1.08953703    -0.58271433  -109.96323850    -0.00019003    -0.00000812  0.22D-05  0.91D-06    24.09
    4     6     6     1.08953609    -0.58271431  -109.96323847    -0.00019073    -0.00000815  0.22D-05  0.91D-06    24.09
    4     7     7     1.08953409    -0.58271428  -109.96323844    -0.00019081    -0.00000816  0.22D-05  0.91D-06    24.09
    5     1     1     1.08975995    -0.58272301  -109.96324717    -0.00000841    -0.00000043  0.71D-07  0.66D-07    32.06
    5     2     2     1.08975998    -0.58272301  -109.96324717    -0.00000841    -0.00000043  0.71D-07  0.66D-07    32.06
    5     3     3     1.08975937    -0.58272300  -109.96324716    -0.00000852    -0.00000044  0.75D-07  0.65D-07    32.06
    5     4     4     1.08975932    -0.58272300  -109.96324716    -0.00000854    -0.00000044  0.75D-07  0.65D-07    32.06
    5     5     5     1.08975888    -0.58272299  -109.96324715    -0.00000865    -0.00000045  0.77D-07  0.65D-07    32.06
    5     6     6     1.08975932    -0.58272299  -109.96324715    -0.00000868    -0.00000045  0.77D-07  0.65D-07    32.06
    5     7     7     1.08975860    -0.58272299  -109.96324715    -0.00000871    -0.00000045  0.77D-07  0.65D-07    32.06
    6     1     1     1.08981044    -0.58272347  -109.96324764    -0.00000046    -0.00000003  0.55D-08  0.38D-08    40.04
    6     2     2     1.08981049    -0.58272347  -109.96324764    -0.00000047    -0.00000003  0.56D-08  0.38D-08    40.04
    6     3     3     1.08981024    -0.58272347  -109.96324764    -0.00000047    -0.00000003  0.55D-08  0.37D-08    40.04
    6     4     4     1.08981025    -0.58272347  -109.96324763    -0.00000048    -0.00000003  0.55D-08  0.37D-08    40.04
    6     5     5     1.08981032    -0.58272347  -109.96324763    -0.00000048    -0.00000003  0.55D-08  0.37D-08    40.04
    6     6     6     1.08981025    -0.58272347  -109.96324763    -0.00000048    -0.00000003  0.56D-08  0.37D-08    40.04
    6     7     7     1.08981023    -0.58272347  -109.96324763    -0.00000049    -0.00000003  0.56D-08  0.37D-08    40.04


 =====================================
 Analysis of CPU times by interactions
 =====================================

       I      S      P

 I   0.1%
 S   0.1%   0.7%
 P   0.2%  11.3%  57.0%

 Initialization:   0.3%
 Other:           30.3%

 Total CPU:       40.0 seconds
 =====================================



 Wavefunction saved on  5103.2

 Reference coefficients greater than 0.0500000
 =============================================
 2222///222           0.9579082  -0.0000000   0.0000000  -0.0000000   0.0000000   0.0000000  -0.0000000
 22/22//222          -0.0000000   0.9578937  -0.0000000  -0.0000000   0.0052561   0.0000000  -0.0000000
 2/2/22/222          -0.0000000  -0.0047023  -0.0000000   0.0000000   0.8567691   0.0000000   0.0000000
 222//2/222           0.0000000  -0.0000000  -0.0000080   0.0121961   0.0000000   0.0000201   0.8566919
 22//22/222           0.0000000  -0.0000000   0.0537850  -0.0023425  -0.0000000   0.8550881   0.0000138
 2//222/222           0.0000000  -0.0000000   0.0000156   0.8264366   0.0000000   0.0022667  -0.2259825
 2/22/2/222           0.0000000  -0.0000000   0.8144902   0.0007148  -0.0000000  -0.2658466   0.0000037
 2/222//222           0.0000000  -0.0000000  -0.5012994   0.0009397  -0.0000000  -0.3401930  -0.0000101
 222/2//222          -0.0000000   0.0000000   0.0000044   0.4841851  -0.0000000   0.0013203   0.3641417
 22/2/2/222          -0.0000000   0.0023483  -0.0000000  -0.0000000  -0.4283776   0.0000000   0.0000000

 Coefficients of fixed reference functions:
 ==========================================

 State      Coefficients
 1           0.957909   -0.000000    0.000000   -0.000000   -0.000000    0.000000    0.000000
 2          -0.000000    0.819526   -0.000000    0.000000    0.495952   -0.000000   -0.000000
 3          -0.000000    0.000000    0.932560    0.000011   -0.000000   -0.000015   -0.218912
 4           0.000000   -0.000000   -0.000615    0.876640   -0.000000   -0.386116   -0.002550
 5           0.000000   -0.495952    0.000000    0.000000    0.819526    0.000000   -0.000000
 6          -0.000000    0.000000    0.218912    0.002395   -0.000000   -0.001071    0.932556
 7           0.000000   -0.000000    0.000012    0.386118    0.000000    0.876644    0.000012

 Coefficients of rotated reference functions:
 ============================================

 State      Coefficients
 1           0.957909   -0.000000   -0.000000    0.000000    0.000000   -0.000000    0.000000
 2          -0.000000    0.957909   -0.000000    0.000000   -0.000000    0.000000   -0.000000
 3          -0.000000   -0.000000    0.957910   -0.000000   -0.000000    0.000000   -0.000000
 4           0.000000    0.000000   -0.000000    0.957910    0.000000    0.000000    0.000000
 5           0.000000   -0.000000   -0.000000    0.000000    0.957909    0.000000    0.000000
 6          -0.000000    0.000000    0.000000    0.000000    0.000000    0.957910    0.000000
 7           0.000000   -0.000000   -0.000000    0.000000    0.000000    0.000000    0.957910


 RESULTS FOR STATE 1.1
 =====================

 Coefficient of reference function:   C(0) = 0.95790944 (fixed)   0.95790958 (relaxed)   0.95790944 (rotated)

 Energy contributions of configuration classes

 CLASS          SQ.NORM        ECORR1        ECORR2
 +++++++++++++++++++++++++++++++++++++++++++++++++++
 Internals    0.00000031    0.00000000   -0.46675687
 Singles      0.01491404   -0.07404698   -0.07592393
 Pairs        0.07489643   -0.00000000   -0.04004267
 Total        1.08981077   -0.07404698   -0.58272347
 +++++++++++++++++++++++++++++++++++++++++++++++++++


 Reference energy                    -109.38052416
 Nuclear energy                         0.00000000
 Kinetic energy                        41.45618821
 One electron energy                 -193.11732443
 Two electron energy                   83.15407680
 Virial quotient                       -2.65251709
 Correlation energy                    -0.58272347
 !MRCI STATE 1.1 Energy              -109.963247635556

 Properties without orbital relaxation:

 !MRCI STATE 1.1 Dipole moment          0.00000000     0.00000000     0.00000000
 Dipole moment /Debye                   0.00000000     0.00000000     0.00000000

 Cluster corrected energies          -110.01558248 (Davidson, fixed reference)
 Cluster corrected energies          -110.01558229 (Davidson, relaxed reference)
 Cluster corrected energies          -110.01558248 (Davidson, rotated reference)

 Cluster corrected energies          -110.01112710 (Pople, fixed reference)
 Cluster corrected energies          -110.01112690 (Pople, relaxed reference)
 Cluster corrected energies          -110.01112710 (Pople, rotated reference)



 RESULTS FOR STATE 2.1
 =====================

 Coefficient of reference function:   C(0) = 0.81952560 (fixed)   0.95790956 (relaxed)   0.95790941 (rotated)

 Energy contributions of configuration classes

 CLASS          SQ.NORM        ECORR1        ECORR2
 +++++++++++++++++++++++++++++++++++++++++++++++++++
 Internals    0.00000031    0.00000000   -0.46675684
 Singles      0.01491406   -0.07404700   -0.07592393
 Pairs        0.07489646   -0.00000000   -0.04004270
 Total        1.08981082   -0.07404700   -0.58272347
 +++++++++++++++++++++++++++++++++++++++++++++++++++


 Reference energy                    -109.38052416
 Nuclear energy                         0.00000000
 Kinetic energy                        41.45618827
 One electron energy                 -193.11732601
 Two electron energy                   83.15407837
 Virial quotient                       -2.65251708
 Correlation energy                    -0.58272347
 !MRCI STATE 2.1 Energy              -109.963247635256

 Properties without orbital relaxation:

 !MRCI STATE 2.1 Dipole moment          0.00000000     0.00000000     0.00000000
 Dipole moment /Debye                   0.00000000     0.00000000     0.00000000

 Cluster corrected energies          -110.01558251 (Davidson, fixed reference)
 Cluster corrected energies          -110.01558231 (Davidson, relaxed reference)
 Cluster corrected energies          -110.01558251 (Davidson, rotated reference)

 Cluster corrected energies          -110.01112712 (Pople, fixed reference)
 Cluster corrected energies          -110.01112693 (Pople, relaxed reference)
 Cluster corrected energies          -110.01112712 (Pople, rotated reference)



 RESULTS FOR STATE 3.1
 =====================

 Coefficient of reference function:   C(0) = 0.93255993 (fixed)   0.95790967 (relaxed)   0.95790952 (rotated)

 Energy contributions of configuration classes

 CLASS          SQ.NORM        ECORR1        ECORR2
 +++++++++++++++++++++++++++++++++++++++++++++++++++
 Internals    0.00000031   -0.00000000   -0.57342546
 Singles      0.01491367   -0.07404701   -0.07592383
 Pairs        0.07489660    0.11624849    0.06662582
 Total        1.08981057    0.04220148   -0.58272347
 +++++++++++++++++++++++++++++++++++++++++++++++++++


 Reference energy                    -109.38052416
 Nuclear energy                         0.00000000
 Kinetic energy                        41.45618245
 One electron energy                 -193.11730628
 Two electron energy                   83.15405864
 Virial quotient                       -2.65251746
 Correlation energy                    -0.58272347
 !MRCI STATE 3.1 Energy              -109.963247635234

 Properties without orbital relaxation:

 !MRCI STATE 3.1 Dipole moment          0.00000000     0.00000000     0.00000000
 Dipole moment /Debye                   0.00000000     0.00000000     0.00000000

 Cluster corrected energies          -110.01558236 (Davidson, fixed reference)
 Cluster corrected energies          -110.01558217 (Davidson, relaxed reference)
 Cluster corrected energies          -110.01558236 (Davidson, rotated reference)

 Cluster corrected energies          -110.01112698 (Pople, fixed reference)
 Cluster corrected energies          -110.01112679 (Pople, relaxed reference)
 Cluster corrected energies          -110.01112698 (Pople, rotated reference)



 RESULTS FOR STATE 4.1
 =====================

 Coefficient of reference function:   C(0) = 0.87664027 (fixed)   0.95790967 (relaxed)   0.95790952 (rotated)

 Energy contributions of configuration classes

 CLASS          SQ.NORM        ECORR1        ECORR2
 +++++++++++++++++++++++++++++++++++++++++++++++++++
 Internals    0.00000031    0.00000000   -0.46799955
 Singles      0.01491370   -0.07404704   -0.07592384
 Pairs        0.07489658    0.00135425   -0.03880008
 Total        1.08981059   -0.07269279   -0.58272347
 +++++++++++++++++++++++++++++++++++++++++++++++++++


 Reference energy                    -109.38052416
 Nuclear energy                         0.00000000
 Kinetic energy                        41.45618116
 One electron energy                 -193.11730582
 Two electron energy                   83.15405819
 Virial quotient                       -2.65251754
 Correlation energy                    -0.58272347
 !MRCI STATE 4.1 Energy              -109.963247634953

 Properties without orbital relaxation:

 !MRCI STATE 4.1 Dipole moment          0.00000000     0.00000000     0.00000000
 Dipole moment /Debye                   0.00000000     0.00000000     0.00000000

 Cluster corrected energies          -110.01558237 (Davidson, fixed reference)
 Cluster corrected energies          -110.01558218 (Davidson, relaxed reference)
 Cluster corrected energies          -110.01558237 (Davidson, rotated reference)

 Cluster corrected energies          -110.01112699 (Pople, fixed reference)
 Cluster corrected energies          -110.01112680 (Pople, relaxed reference)
 Cluster corrected energies          -110.01112699 (Pople, rotated reference)



 RESULTS FOR STATE 5.1
 =====================

 Coefficient of reference function:   C(0) = 0.81952566 (fixed)   0.95790964 (relaxed)   0.95790949 (rotated)

 Energy contributions of configuration classes

 CLASS          SQ.NORM        ECORR1        ECORR2
 +++++++++++++++++++++++++++++++++++++++++++++++++++
 Internals    0.00000031   -0.00000000   -0.46675687
 Singles      0.01491373   -0.07404705   -0.07592386
 Pairs        0.07489661   -0.00000000   -0.04004275
 Total        1.08981065   -0.07404705   -0.58272347
 +++++++++++++++++++++++++++++++++++++++++++++++++++


 Reference energy                    -109.38052416
 Nuclear energy                         0.00000000
 Kinetic energy                        41.45618140
 One electron energy                 -193.11730505
 Two electron energy                   83.15405742
 Virial quotient                       -2.65251752
 Correlation energy                    -0.58272347
 !MRCI STATE 5.1 Energy              -109.963247634825

 Properties without orbital relaxation:

 !MRCI STATE 5.1 Dipole moment          0.00000000     0.00000000     0.00000000
 Dipole moment /Debye                   0.00000000     0.00000000     0.00000000

 Cluster corrected energies          -110.01558241 (Davidson, fixed reference)
 Cluster corrected energies          -110.01558221 (Davidson, relaxed reference)
 Cluster corrected energies          -110.01558241 (Davidson, rotated reference)

 Cluster corrected energies          -110.01112703 (Pople, fixed reference)
 Cluster corrected energies          -110.01112683 (Pople, relaxed reference)
 Cluster corrected energies          -110.01112703 (Pople, rotated reference)



 RESULTS FOR STATE 6.1
 =====================

 Maximum overlap with reference state  7

 Coefficient of reference function:   C(0) = 0.93255642 (fixed)   0.95790967 (relaxed)   0.95790952 (rotated)

 Energy contributions of configuration classes

 CLASS          SQ.NORM        ECORR1        ECORR2
 +++++++++++++++++++++++++++++++++++++++++++++++++++
 Internals    0.00000031    0.00000000   -0.01235388
 Singles      0.01491375   -0.07404707   -0.07592387
 Pairs        0.07489653   -0.49521319   -0.49444572
 Total        1.08981058   -0.56926026   -0.58272347
 +++++++++++++++++++++++++++++++++++++++++++++++++++


 Reference energy                    -109.38052416
 Nuclear energy                         0.00000000
 Kinetic energy                        41.45618226
 One electron energy                 -193.11730844
 Two electron energy                   83.15406081
 Virial quotient                       -2.65251747
 Correlation energy                    -0.58272347
 !MRCI STATE 6.1 Energy              -109.963247634460

 Properties without orbital relaxation:

 !MRCI STATE 6.1 Dipole moment          0.00000000     0.00000000     0.00000000
 Dipole moment /Debye                   0.00000000     0.00000000     0.00000000

 Cluster corrected energies          -110.01558237 (Davidson, fixed reference)
 Cluster corrected energies          -110.01558217 (Davidson, relaxed reference)
 Cluster corrected energies          -110.01558237 (Davidson, rotated reference)

 Cluster corrected energies          -110.01112699 (Pople, fixed reference)
 Cluster corrected energies          -110.01112680 (Pople, relaxed reference)
 Cluster corrected energies          -110.01112699 (Pople, rotated reference)



 RESULTS FOR STATE 7.1
 =====================

 Maximum overlap with reference state  6

 Coefficient of reference function:   C(0) = 0.87664353 (fixed)   0.95790967 (relaxed)   0.95790953 (rotated)

 Energy contributions of configuration classes

 CLASS          SQ.NORM        ECORR1        ECORR2
 +++++++++++++++++++++++++++++++++++++++++++++++++++
 Internals    0.00000031    0.00000000   -0.46675086
 Singles      0.01491376   -0.07404705   -0.07592387
 Pairs        0.07489650   -0.00000659   -0.04004875
 Total        1.08981057   -0.07405364   -0.58272347
 +++++++++++++++++++++++++++++++++++++++++++++++++++


 Reference energy                    -109.38052416
 Nuclear energy                         0.00000000
 Kinetic energy                        41.45618331
 One electron energy                 -193.11730986
 Two electron energy                   83.15406222
 Virial quotient                       -2.65251740
 Correlation energy                    -0.58272347
 !MRCI STATE 7.1 Energy              -109.963247634447

 Properties without orbital relaxation:

 !MRCI STATE 7.1 Dipole moment          0.00000000     0.00000000     0.00000000
 Dipole moment /Debye                   0.00000000     0.00000000     0.00000000

 Cluster corrected energies          -110.01558236 (Davidson, fixed reference)
 Cluster corrected energies          -110.01558217 (Davidson, relaxed reference)
 Cluster corrected energies          -110.01558236 (Davidson, rotated reference)

 Cluster corrected energies          -110.01112698 (Pople, fixed reference)
 Cluster corrected energies          -110.01112679 (Pople, relaxed reference)
 Cluster corrected energies          -110.01112698 (Pople, rotated reference)



 **********************************************************************************************************************************
 DATASETS  * FILE   NREC   LENGTH (MB)   RECORD NAMES
              1      21       32.05       500      610      700      900      950      970     1000      129      960     1100   
                                          VAR    BASINP    GEOM    SYMINP    ZMAT    AOBASIS   BASIS     P2S    ABASIS      S 
                                         1400     1410     1420     1200     1210     1080     1700     1600     1650     1380   
                                           T        V       ECP      H0       H01     AOSYM    OPER      SMH    MOLCAS    JKOP   
                                         1700(1)
                                         OPER   

              2       5       66.00       700     1000      520     2140     5103   
                                         GEOM     BASIS   MCVARS    MCSCF    MRCI   

 PROGRAMS   *        TOTAL        CI     MULTI       INT
 CPU TIMES  *        45.25     42.82      1.85      0.41
 REAL TIME  *        51.75 SEC
 DISK USED  *        98.11 MB (local),        1.00 GB (total)
 SF USED    *       658.73 MB
 GA USED    *         0.00 MB       (max)       0.00 MB       (current)
 **********************************************************************************************************************************
 SETTING HLSDIAG(1)     =      -110.01558248  AU                              
 SETTING HLSDIAG(2)     =      -110.01558251  AU                              
 SETTING HLSDIAG(3)     =      -110.01558236  AU                              
 SETTING HLSDIAG(4)     =      -110.01558237  AU                              
 SETTING HLSDIAG(5)     =      -110.01558241  AU                              
 SETTING HLSDIAG(6)     =      -110.01558237  AU                              
 SETTING HLSDIAG(7)     =      -110.01558236  AU                              


 PROGRAM * CI (Multireference internally contracted CI)     Authors: H.-J. Werner, P.J. Knowles, 1987


 Convergence thresholds:  THRVAR = 1.00D-08  THRDEN = 1.00D-06

 Number of optimized states: 7  Roots:    1   2   3   4   5   6   7
 Number of reference states: 7  Roots:    1   2   3   4   5   6   7

 Reference symmetry:                   1   Doublet 
 Number of electrons:                 17
 Maximum number of shells:             4
 Maximum number of spin couplings:    14

 Reference space:      119 conf      175 CSFs
 N elec internal:      210 conf      330 CSFs
 N-1 el internal:      615 conf     1815 CSFs
 N-2 el internal:     1449 conf     8442 CSFs

 Number of electrons in valence space:                     17
 Maximum number of open shell orbitals in reference space:  3
 Maximum number of open shell orbitals in internal spaces:  7


 Number of active  orbitals:       10 (   7   3 )
 Number of external orbitals:      87 (  48  39 )

 Molecular orbitals read from record     2140.2  Type=MCSCF/NATURAL (state averaged)

 Coulomb and exchange operators available. No transformation done.


 Number of p-space configurations:  70

 Reference wavefunction optimized for reference space (refopt=1)

 State     Reference Energy 
     1      -109.35334158
     2      -109.35334158
     3      -109.35334158
     4      -109.35334158
     5      -109.35334158
     6      -109.35334158
     7      -109.35334158

 Number of blocks in overlap matrix:    16   Smallest eigenvalue:  0.59D-05
 Number of N-2 electron functions:     700
 Number of N-1 electron functions:    1815

 Number of internal configurations:                  175
 Number of singly external configurations:         79056
 Number of doubly external configurations:       1329888
 Total number of contracted configurations:      1409119
 Total number of uncontracted configurations:   16014913

 Diagonal Coupling coefficients finished.               Storage:  570570 words, CPU-Time:      0.16 seconds.
 Energy denominators for pairs finished in 1 passes.    Storage:  429037 words, CPU-time:      0.03 seconds.

  ITER. STATE  ROOT     SQ.NORM     CORR.ENERGY   TOTAL ENERGY   ENERGY CHANGE       DEN1      VAR(S)    VAR(P)      TIME
    1     1     1     1.00000000     0.00000000  -109.35334158    -0.00000000    -0.69797634  0.28D-01  0.11D+00     0.34
    1     2     2     1.00000000     0.00000000  -109.35334158     0.00000000    -0.69778270  0.28D-01  0.11D+00     0.34
    1     3     3     1.00000000     0.00000000  -109.35334158    -0.00000000    -0.69759216  0.28D-01  0.11D+00     0.34
    1     4     4     1.00000000     0.00000000  -109.35334158     0.00000000    -0.69898534  0.28D-01  0.11D+00     0.34
    1     5     5     1.00000000     0.00000000  -109.35334158     0.00000000    -0.69950894  0.28D-01  0.11D+00     0.34
    1     6     6     1.00000000     0.00000000  -109.35334158     0.00000000    -0.69934271  0.28D-01  0.11D+00     0.34
    1     7     7     1.00000000     0.00000000  -109.35334158     0.00000000    -0.69962109  0.28D-01  0.11D+00     0.34
    2     1     1     1.09275103    -0.56931873  -109.92266031    -0.56931873    -0.01637234  0.16D-02  0.22D-02    17.66
    2     2     2     1.09290139    -0.56907992  -109.92242150    -0.56907992    -0.01654387  0.16D-02  0.22D-02    17.66
    2     3     3     1.09290742    -0.56905371  -109.92239529    -0.56905371    -0.01658966  0.17D-02  0.22D-02    17.66
    2     4     4     1.09273078    -0.56895244  -109.92229402    -0.56895244    -0.01659245  0.16D-02  0.22D-02    17.66
    2     5     5     1.09267536    -0.56892409  -109.92226566    -0.56892409    -0.01657986  0.16D-02  0.22D-02    17.66
    2     6     6     1.09300110    -0.56872755  -109.92206912    -0.56872755    -0.01683943  0.17D-02  0.23D-02    17.66
    2     7     7     1.09289798    -0.56866853  -109.92201011    -0.56866853    -0.01685545  0.17D-02  0.23D-02    17.66
    3     1     1     1.08875105    -0.58526778  -109.93860936    -0.01594905    -0.00045945  0.21D-04  0.92D-04    34.99
    3     2     2     1.08873776    -0.58522446  -109.93856604    -0.01614454    -0.00048972  0.21D-04  0.97D-04    34.99
    3     3     3     1.08873672    -0.58522344  -109.93856502    -0.01616973    -0.00048558  0.21D-04  0.96D-04    34.99
    3     4     4     1.08867688    -0.58519134  -109.93853291    -0.01623890    -0.00050775  0.20D-04  0.10D-03    34.99
    3     5     5     1.08864879    -0.58518994  -109.93853152    -0.01626585    -0.00050394  0.21D-04  0.99D-04    34.99
    3     6     6     1.08862886    -0.58518420  -109.93852577    -0.01645665    -0.00050087  0.21D-04  0.97D-04    34.99
    3     7     7     1.08863743    -0.58517211  -109.93851368    -0.01650357    -0.00051750  0.20D-04  0.10D-03    34.99
    4     1     1     1.09030943    -0.58579710  -109.93913868    -0.00052932    -0.00006214  0.40D-05  0.14D-04    52.27
    4     2     2     1.09031989    -0.58579081  -109.93913239    -0.00056635    -0.00006472  0.41D-05  0.14D-04    52.27
    4     3     3     1.09029866    -0.58578933  -109.93913091    -0.00056589    -0.00006608  0.40D-05  0.14D-04    52.27
    4     4     4     1.09032747    -0.58578870  -109.93913028    -0.00059737    -0.00006609  0.41D-05  0.14D-04    52.27
    4     5     5     1.09029131    -0.58578847  -109.93913005    -0.00059853    -0.00006796  0.42D-05  0.14D-04    52.27
    4     6     6     1.09028204    -0.58578424  -109.93912582    -0.00060005    -0.00007165  0.41D-05  0.15D-04    52.27
    4     7     7     1.09029805    -0.58578419  -109.93912577    -0.00061208    -0.00007198  0.40D-05  0.16D-04    52.27
    5     1     1     1.09085438    -0.58585293  -109.93919451    -0.00005583    -0.00001182  0.46D-06  0.29D-05    69.75
    5     2     2     1.09087978    -0.58585233  -109.93919391    -0.00006152    -0.00001177  0.35D-06  0.28D-05    69.75
    5     3     3     1.09087711    -0.58585196  -109.93919354    -0.00006263    -0.00001244  0.36D-06  0.30D-05    69.75
    5     4     4     1.09088427    -0.58585142  -109.93919300    -0.00006272    -0.00001268  0.37D-06  0.30D-05    69.75
    5     5     5     1.09085376    -0.58585102  -109.93919260    -0.00006256    -0.00001351  0.42D-06  0.33D-05    69.75
    5     6     6     1.09085894    -0.58585024  -109.93919182    -0.00006600    -0.00001382  0.44D-06  0.33D-05    69.75
    5     7     7     1.09086886    -0.58585007  -109.93919165    -0.00006588    -0.00001389  0.45D-06  0.33D-05    69.75
    6     1     1     1.09096127    -0.58586279  -109.93920437    -0.00000985    -0.00000159  0.79D-07  0.39D-06    87.09
    6     2     2     1.09096412    -0.58586262  -109.93920420    -0.00001029    -0.00000169  0.93D-07  0.39D-06    87.09
    6     3     3     1.09096800    -0.58586248  -109.93920406    -0.00001052    -0.00000173  0.11D-06  0.39D-06    87.09
    6     4     4     1.09095953    -0.58586243  -109.93920401    -0.00001100    -0.00000178  0.12D-06  0.40D-06    87.09
    6     5     5     1.09097617    -0.58586217  -109.93920375    -0.00001115    -0.00000188  0.13D-06  0.40D-06    87.09
    6     6     6     1.09096188    -0.58586215  -109.93920373    -0.00001191    -0.00000199  0.13D-06  0.45D-06    87.09
    6     7     7     1.09096618    -0.58586206  -109.93920364    -0.00001199    -0.00000204  0.12D-06  0.46D-06    87.09
    7     1     1     1.09098546    -0.58586423  -109.93920581    -0.00000145    -0.00000039  0.64D-08  0.11D-06   104.41
    7     2     2     1.09098622    -0.58586420  -109.93920578    -0.00000158    -0.00000041  0.63D-08  0.11D-06   104.41
    7     3     3     1.09098320    -0.58586418  -109.93920576    -0.00000170    -0.00000044  0.50D-08  0.12D-06   104.41
    7     4     4     1.09098714    -0.58586417  -109.93920575    -0.00000174    -0.00000044  0.53D-08  0.12D-06   104.41
    7     5     5     1.09098890    -0.58586410  -109.93920568    -0.00000193    -0.00000047  0.51D-08  0.12D-06   104.41
    7     6     6     1.09098366    -0.58586409  -109.93920566    -0.00000193    -0.00000052  0.57D-08  0.14D-06   104.41
    7     7     7     1.09098567    -0.58586403  -109.93920561    -0.00000197    -0.00000055  0.62D-08  0.15D-06   104.41
    8     1     1     1.09100012    -0.58586456  -109.93920614    -0.00000032    -0.00000009  0.23D-08  0.22D-07   121.71
    8     2     2     1.09100044    -0.58586455  -109.93920613    -0.00000035    -0.00000009  0.26D-08  0.23D-07   121.71
    8     3     3     1.09099820    -0.58586454  -109.93920612    -0.00000036    -0.00000010  0.32D-08  0.24D-07   121.71
    8     4     4     1.09100059    -0.58586453  -109.93920611    -0.00000036    -0.00000010  0.30D-08  0.25D-07   121.71
    8     5     5     1.09099820    -0.58586451  -109.93920609    -0.00000041    -0.00000012  0.36D-08  0.30D-07   121.71
    8     6     6     1.09100104    -0.58586450  -109.93920608    -0.00000042    -0.00000012  0.31D-08  0.29D-07   121.71
    8     7     7     1.09099954    -0.58586449  -109.93920607    -0.00000046    -0.00000013  0.38D-08  0.32D-07   121.71
    9     1     1     1.09100791    -0.58586463  -109.93920621    -0.00000007    -0.00000002  0.14D-09  0.64D-08   138.99
    9     2     2     1.09100828    -0.58586463  -109.93920621    -0.00000008    -0.00000002  0.15D-09  0.66D-08   138.99
    9     3     3     1.09100760    -0.58586463  -109.93920621    -0.00000009    -0.00000003  0.20D-09  0.69D-08   138.99
    9     4     4     1.09100852    -0.58586462  -109.93920620    -0.00000009    -0.00000003  0.19D-09  0.75D-08   138.99
    9     5     5     1.09100754    -0.58586462  -109.93920620    -0.00000011    -0.00000003  0.20D-09  0.90D-08   138.99
    9     6     6     1.09100918    -0.58586462  -109.93920619    -0.00000011    -0.00000003  0.35D-09  0.85D-08   138.99
    9     7     7     1.09100788    -0.58586461  -109.93920619    -0.00000012    -0.00000004  0.21D-09  0.10D-07   138.99
   10     1     1     1.09101409    -0.58586465  -109.93920623    -0.00000002    -0.00000001  0.31D-09  0.15D-08   145.06
   10     2     2     1.09100791    -0.58586463  -109.93920621    -0.00000000    -0.00000002  0.14D-09  0.64D-08   145.06
   10     3     3     1.09100828    -0.58586463  -109.93920621    -0.00000000    -0.00000002  0.15D-09  0.66D-08   145.06
   10     4     4     1.09100760    -0.58586463  -109.93920621    -0.00000000    -0.00000003  0.20D-09  0.69D-08   145.06
   10     5     5     1.09100852    -0.58586462  -109.93920620    -0.00000001    -0.00000003  0.19D-09  0.75D-08   145.06
   10     6     6     1.09100754    -0.58586462  -109.93920620    -0.00000000    -0.00000003  0.20D-09  0.90D-08   145.06
   10     7     7     1.09100918    -0.58586462  -109.93920619    -0.00000000    -0.00000003  0.35D-09  0.85D-08   145.06


 =====================================
 Analysis of CPU times by interactions
 =====================================

       I      S      P

 I   0.1%
 S   0.0%   0.5%
 P   0.4%   8.3%  73.6%

 Initialization:   0.2%
 Other:           16.9%

 Total CPU:      145.1 seconds
 =====================================



 Wavefunction saved on  5101.2

 Reference coefficients greater than 0.0500000
 =============================================
 2222//\222           0.0000000   0.0000000   0.0000000   0.9549645  -0.0000000  -0.0000000  -0.0000000
 22/22/\222          -0.0000000  -0.0000000   0.0000000  -0.0000000  -0.3279381   0.8968912   0.0000000
 2//222\222           0.0077157   0.8541130   0.0000000  -0.0000000   0.0000000   0.0000000  -0.0000000
 2/22/2\222           0.0000000  -0.0000000   0.8508032   0.0000000  -0.0000000  -0.0000000   0.0755210
 222//2\222           0.8250577  -0.2209973   0.0000000   0.0000000   0.0000000  -0.0000000  -0.0000000
 22//22\222          -0.0000000  -0.0000000  -0.2858221   0.0000000   0.0000000   0.0000000   0.8049016
 2/2/22\222          -0.0000000  -0.0000000  -0.0000000   0.0000000   0.8022066   0.2933159   0.0000000
 2/222/\222           0.0000000  -0.0000000  -0.3261845  -0.0000000   0.0000000   0.0000000  -0.5083168
 222/2/\222           0.4808037   0.3655247  -0.0000000  -0.0000000  -0.0000000  -0.0000000   0.0000000
 22/2/2\222          -0.0000000  -0.0000000  -0.0000000   0.0000000  -0.4010956  -0.1466599  -0.0000000

 Coefficients of fixed reference functions:
 ==========================================

 State      Coefficients
 1           0.000000    0.000000   -0.000000    0.561434    0.000000    0.775478    0.000000
 2           0.000000    0.000000   -0.000000    0.775480   -0.000000   -0.561436    0.000000
 3           0.000000    0.793467    0.000000    0.000000    0.000000   -0.000000   -0.535715
 4           0.957382   -0.000000   -0.000000   -0.000000   -0.000000    0.000000    0.000000
 5          -0.000000   -0.000000   -0.510767   -0.000000    0.809751    0.000000   -0.000000
 6          -0.000000   -0.000000    0.809751    0.000000    0.510767   -0.000000    0.000000
 7          -0.000000    0.535714    0.000000   -0.000000    0.000000   -0.000000    0.793466

 Coefficients of rotated reference functions:
 ============================================

 State      Coefficients
 1           0.957379    0.000000    0.000000    0.000000    0.000000   -0.000000   -0.000000
 2           0.000000    0.957382    0.000000   -0.000000   -0.000000   -0.000000    0.000000
 3           0.000000    0.000000    0.957382    0.000000    0.000000    0.000000   -0.000000
 4           0.000000   -0.000000    0.000000    0.957382   -0.000000   -0.000000    0.000000
 5           0.000000   -0.000000    0.000000   -0.000000    0.957381   -0.000000   -0.000000
 6          -0.000000   -0.000000    0.000000   -0.000000   -0.000000    0.957382    0.000000
 7          -0.000000    0.000000   -0.000000    0.000000   -0.000000    0.000000    0.957381


 RESULTS FOR STATE 1.1
 =====================

 Maximum overlap with reference state  6

 Coefficient of reference function:   C(0) = 0.77547823 (fixed)   0.95738104 (relaxed)   0.95737906 (rotated)

 Energy contributions of configuration classes

 CLASS          SQ.NORM        ECORR1        ECORR2
 +++++++++++++++++++++++++++++++++++++++++++++++++++
 Internals    0.00000413   -0.00000000   -0.46813911
 Singles      0.01504839   -0.07511860   -0.07693293
 Pairs        0.07596607   -0.00000000   -0.04079261
 Total        1.09101859   -0.07511860   -0.58586465
 +++++++++++++++++++++++++++++++++++++++++++++++++++


 Reference energy                    -109.35334158
 Nuclear energy                         0.00000000
 Kinetic energy                        41.47120423
 One electron energy                 -193.06848984
 Two electron energy                   83.12928362
 Virial quotient                       -2.65097694
 Correlation energy                    -0.58586465
 !MRCI STATE 1.1 Energy              -109.939206225851

 Properties without orbital relaxation:

 !MRCI STATE 1.1 Dipole moment          0.00000000     0.00000000     0.00000000
 Dipole moment /Debye                   0.00000000     0.00000000     0.00000000

 Cluster corrected energies          -109.99253080 (Davidson, fixed reference)
 Cluster corrected energies          -109.99252816 (Davidson, relaxed reference)
 Cluster corrected energies          -109.99253080 (Davidson, rotated reference)

 Cluster corrected energies          -109.98923156 (Pople, fixed reference)
 Cluster corrected energies          -109.98922890 (Pople, relaxed reference)
 Cluster corrected energies          -109.98923156 (Pople, rotated reference)



 RESULTS FOR STATE 2.1
 =====================

 Maximum overlap with reference state  4

 Coefficient of reference function:   C(0) = 0.77548045 (fixed)   0.95738375 (relaxed)   0.95738177 (rotated)

 Energy contributions of configuration classes

 CLASS          SQ.NORM        ECORR1        ECORR2
 +++++++++++++++++++++++++++++++++++++++++++++++++++
 Internals    0.00000413    0.00000000   -0.46814031
 Singles      0.01504824   -0.07512016   -0.07693344
 Pairs        0.07596004   -0.00000000   -0.04079088
 Total        1.09101241   -0.07512016   -0.58586463
 +++++++++++++++++++++++++++++++++++++++++++++++++++


 Reference energy                    -109.35334158
 Nuclear energy                         0.00000000
 Kinetic energy                        41.47132218
 One electron energy                 -193.06860218
 Two electron energy                   83.12939598
 Virial quotient                       -2.65096940
 Correlation energy                    -0.58586463
 !MRCI STATE 2.1 Energy              -109.939206208547

 Properties without orbital relaxation:

 !MRCI STATE 2.1 Dipole moment          0.00000000     0.00000000     0.00000000
 Dipole moment /Debye                   0.00000000     0.00000000     0.00000000

 Cluster corrected energies          -109.99252716 (Davidson, fixed reference)
 Cluster corrected energies          -109.99252452 (Davidson, relaxed reference)
 Cluster corrected energies          -109.99252716 (Davidson, rotated reference)

 Cluster corrected energies          -109.98922790 (Pople, fixed reference)
 Cluster corrected energies          -109.98922525 (Pople, relaxed reference)
 Cluster corrected energies          -109.98922790 (Pople, rotated reference)



 RESULTS FOR STATE 3.1
 =====================

 Maximum overlap with reference state  2

 Coefficient of reference function:   C(0) = 0.79346665 (fixed)   0.95738358 (relaxed)   0.95738160 (rotated)

 Energy contributions of configuration classes

 CLASS          SQ.NORM        ECORR1        ECORR2
 +++++++++++++++++++++++++++++++++++++++++++++++++++
 Internals    0.00000413   -0.00000000   -0.73009241
 Singles      0.01504831   -0.07512018   -0.07693342
 Pairs        0.07596035    0.28579329    0.22116121
 Total        1.09101279    0.21067312   -0.58586463
 +++++++++++++++++++++++++++++++++++++++++++++++++++


 Reference energy                    -109.35334158
 Nuclear energy                         0.00000000
 Kinetic energy                        41.47130833
 One electron energy                 -193.06859227
 Two electron energy                   83.12938606
 Virial quotient                       -2.65097029
 Correlation energy                    -0.58586463
 !MRCI STATE 3.1 Energy              -109.939206206621

 Properties without orbital relaxation:

 !MRCI STATE 3.1 Dipole moment          0.00000000     0.00000000     0.00000000
 Dipole moment /Debye                   0.00000000     0.00000000     0.00000000

 Cluster corrected energies          -109.99252738 (Davidson, fixed reference)
 Cluster corrected energies          -109.99252474 (Davidson, relaxed reference)
 Cluster corrected energies          -109.99252738 (Davidson, rotated reference)

 Cluster corrected energies          -109.98922812 (Pople, fixed reference)
 Cluster corrected energies          -109.98922547 (Pople, relaxed reference)
 Cluster corrected energies          -109.98922812 (Pople, rotated reference)



 RESULTS FOR STATE 4.1
 =====================

 Maximum overlap with reference state  1

 Coefficient of reference function:   C(0) = 0.95738190 (fixed)   0.95738388 (relaxed)   0.95738190 (rotated)

 Energy contributions of configuration classes

 CLASS          SQ.NORM        ECORR1        ECORR2
 +++++++++++++++++++++++++++++++++++++++++++++++++++
 Internals    0.00000413   -0.00000000   -0.46814065
 Singles      0.01504827   -0.07511993   -0.07693339
 Pairs        0.07595971   -0.00000000   -0.04079059
 Total        1.09101212   -0.07511993   -0.58586463
 +++++++++++++++++++++++++++++++++++++++++++++++++++


 Reference energy                    -109.35334158
 Nuclear energy                         0.00000000
 Kinetic energy                        41.47128722
 One electron energy                 -193.06857938
 Two electron energy                   83.12937317
 Virial quotient                       -2.65097164
 Correlation energy                    -0.58586463
 !MRCI STATE 4.1 Energy              -109.939206206124

 Properties without orbital relaxation:

 !MRCI STATE 4.1 Dipole moment          0.00000000     0.00000000     0.00000000
 Dipole moment /Debye                   0.00000000     0.00000000     0.00000000

 Cluster corrected energies          -109.99252698 (Davidson, fixed reference)
 Cluster corrected energies          -109.99252434 (Davidson, relaxed reference)
 Cluster corrected energies          -109.99252698 (Davidson, rotated reference)

 Cluster corrected energies          -109.98922772 (Pople, fixed reference)
 Cluster corrected energies          -109.98922507 (Pople, relaxed reference)
 Cluster corrected energies          -109.98922772 (Pople, rotated reference)



 RESULTS FOR STATE 5.1
 =====================

 Coefficient of reference function:   C(0) = 0.80975055 (fixed)   0.95738348 (relaxed)   0.95738150 (rotated)

 Energy contributions of configuration classes

 CLASS          SQ.NORM        ECORR1        ECORR2
 +++++++++++++++++++++++++++++++++++++++++++++++++++
 Internals    0.00000414   -0.00000000   -0.46814022
 Singles      0.01504837   -0.07511997   -0.07693341
 Pairs        0.07596052   -0.00000000   -0.04079099
 Total        1.09101303   -0.07511997   -0.58586462
 +++++++++++++++++++++++++++++++++++++++++++++++++++


 Reference energy                    -109.35334158
 Nuclear energy                         0.00000000
 Kinetic energy                        41.47128654
 One electron energy                 -193.06857500
 Two electron energy                   83.12936880
 Virial quotient                       -2.65097168
 Correlation energy                    -0.58586462
 !MRCI STATE 5.1 Energy              -109.939206202089

 Properties without orbital relaxation:

 !MRCI STATE 5.1 Dipole moment          0.00000000     0.00000000     0.00000000
 Dipole moment /Debye                   0.00000000     0.00000000     0.00000000

 Cluster corrected energies          -109.99252752 (Davidson, fixed reference)
 Cluster corrected energies          -109.99252488 (Davidson, relaxed reference)
 Cluster corrected energies          -109.99252752 (Davidson, rotated reference)

 Cluster corrected energies          -109.98922826 (Pople, fixed reference)
 Cluster corrected energies          -109.98922560 (Pople, relaxed reference)
 Cluster corrected energies          -109.98922826 (Pople, rotated reference)



 RESULTS FOR STATE 6.1
 =====================

 Maximum overlap with reference state  3

 Coefficient of reference function:   C(0) = 0.80975109 (fixed)   0.95738391 (relaxed)   0.95738193 (rotated)

 Energy contributions of configuration classes

 CLASS          SQ.NORM        ECORR1        ECORR2
 +++++++++++++++++++++++++++++++++++++++++++++++++++
 Internals    0.00000414   -0.00000000   -0.46814045
 Singles      0.01504842   -0.07512017   -0.07693350
 Pairs        0.07595950    0.00000000   -0.04079067
 Total        1.09101205   -0.07512017   -0.58586462
 +++++++++++++++++++++++++++++++++++++++++++++++++++


 Reference energy                    -109.35334158
 Nuclear energy                         0.00000000
 Kinetic energy                        41.47129174
 One electron energy                 -193.06857968
 Two electron energy                   83.12937348
 Virial quotient                       -2.65097135
 Correlation energy                    -0.58586462
 !MRCI STATE 6.1 Energy              -109.939206196091

 Properties without orbital relaxation:

 !MRCI STATE 6.1 Dipole moment          0.00000000     0.00000000     0.00000000
 Dipole moment /Debye                   0.00000000     0.00000000     0.00000000

 Cluster corrected energies          -109.99252694 (Davidson, fixed reference)
 Cluster corrected energies          -109.99252429 (Davidson, relaxed reference)
 Cluster corrected energies          -109.99252694 (Davidson, rotated reference)

 Cluster corrected energies          -109.98922767 (Pople, fixed reference)
 Cluster corrected energies          -109.98922502 (Pople, relaxed reference)
 Cluster corrected energies          -109.98922767 (Pople, rotated reference)



 RESULTS FOR STATE 7.1
 =====================

 Coefficient of reference function:   C(0) = 0.79346642 (fixed)   0.95738319 (relaxed)   0.95738121 (rotated)

 Energy contributions of configuration classes

 CLASS          SQ.NORM        ECORR1        ECORR2
 +++++++++++++++++++++++++++++++++++++++++++++++++++
 Internals    0.00000413   -0.00000000   -0.08015291
 Singles      0.01504842   -0.07511979   -0.07693334
 Pairs        0.07596114   -0.42329933   -0.42877836
 Total        1.09101369   -0.49841911   -0.58586462
 +++++++++++++++++++++++++++++++++++++++++++++++++++


 Reference energy                    -109.35334158
 Nuclear energy                         0.00000000
 Kinetic energy                        41.47125344
 One electron energy                 -193.06855014
 Two electron energy                   83.12934395
 Virial quotient                       -2.65097380
 Correlation energy                    -0.58586462
 !MRCI STATE 7.1 Energy              -109.939206192919

 Properties without orbital relaxation:

 !MRCI STATE 7.1 Dipole moment          0.00000000     0.00000000     0.00000000
 Dipole moment /Debye                   0.00000000     0.00000000     0.00000000

 Cluster corrected energies          -109.99252789 (Davidson, fixed reference)
[...]
   30    2.1  0.5  0.5   0.000%   0.000%   0.000%   0.000%   0.000%   0.000%   0.000%   0.000%   0.000%   0.000%
   31    3.1  0.5  0.5   0.000%   0.000%   0.000%   0.000%   0.000%   0.000%   0.000%   0.000%   0.000%   0.000%
   32    4.1  0.5  0.5   0.000%   0.000%   0.000%   0.000%   0.000%   0.000%   0.000%   0.000%   0.000%   0.000%
   33    5.1  0.5  0.5   0.000%   0.000%   0.000%   0.000%   0.000%   0.000%   0.000%   0.000%   0.000%   0.000%
   34    6.1  0.5  0.5   0.000%   0.000%   0.000%   0.000%   0.000%   0.000%   0.000%   0.000%   0.000%   0.000%
   35    7.1  0.5  0.5   0.000%   0.000%   0.000%   0.000%   0.000%   0.000%   0.000%   0.000%   0.000%   0.000%
   36    1.1  0.5 -0.5   0.000%   0.000%   0.000%   0.000%   0.000%   0.000%   0.000%   0.000%   0.000%   0.000%
   37    2.1  0.5 -0.5   0.000%   0.000%   0.000%   0.000%   0.000%   0.000%   0.000%   0.000%   0.000%   0.000%
   38    3.1  0.5 -0.5   0.000%   0.000%   0.000%   0.000%   0.000%   0.000%   0.000%   0.000%   0.000%   0.000%
   39    4.1  0.5 -0.5   0.000%   0.000%   0.000%   0.000%   0.000%   0.000%   0.000%   0.000%   0.000%   0.000%
   40    5.1  0.5 -0.5   0.000%   0.000%   0.000%   0.000%   0.000%   0.000%   0.000%   0.000%   0.000%   0.000%
   41    6.1  0.5 -0.5   0.000%   0.000%   0.000%   0.000%   0.000%   0.000%   0.000%   0.000%   0.000%   0.000%
   42    7.1  0.5 -0.5   0.000%   0.000%   0.000%   0.000%   0.000%   0.000%   0.000%   0.000%   0.000%   0.000%

   Nr   State  S   Sz      11       12       13       14       15       16       17       18       19       20

    1    1.1  1.5  1.5   0.001%   9.656%  13.264%   0.000%   4.374%   0.082%   0.000%   0.042%   0.004%  12.248%
    2    2.1  1.5  1.5   0.000%   0.847%   8.537%   0.000%  16.823%   0.316%   0.001%   0.895%   0.004%  12.300%
    3    3.1  1.5  1.5   6.895%   0.001%   0.000%   0.216%   0.089%   4.723%  17.654%   0.023%  19.864%   0.006%
    4    4.1  1.5  1.5   2.471%   0.000%   0.000%   0.032%   0.264%  14.071%  11.068%   0.015%   4.897%   0.002%
    5    5.1  1.5  1.5   0.004%  28.450%  14.356%   0.000%   1.381%   0.026%   0.002%   1.479%   0.001%   1.742%
    6    6.1  1.5  1.5   0.065%   0.000%   0.000%   1.297%   0.069%   3.668%  10.984%   0.015%   3.045%   0.001%
    7    7.1  1.5  1.5   0.858%   0.000%   0.000%   1.881%   0.202%  10.740%   4.092%   0.005%   0.115%   0.000%
    8    1.1  1.5  0.5  10.307%   0.001%   0.000%   5.932%   0.001%   0.040%  11.124%   0.015%   3.846%   0.001%
    9    2.1  1.5  0.5  15.556%   0.002%   0.000%   7.115%   0.033%   1.772%   2.936%   0.004%   8.656%   0.003%
   10    3.1  1.5  0.5   0.000%   0.935%   4.644%   0.000%  17.108%   0.321%   0.003%   2.226%   0.001%   1.707%
   11    4.1  1.5  0.5   0.001%   5.342%  10.368%   0.000%   5.853%   0.110%   0.007%   5.236%   0.003%  10.271%
   12    5.1  1.5  0.5   0.890%   0.000%   0.000%   0.120%   0.145%   7.727%   0.258%   0.000%   9.900%   0.003%
   13    6.1  1.5  0.5   0.002%  12.457%  15.197%   0.000%   0.002%   0.000%   0.015%  11.067%   0.002%   7.589%
   14    7.1  1.5  0.5   0.000%   1.225%  13.005%   0.000%   5.916%   0.111%   0.022%  16.781%   0.001%   1.850%
   15    1.1  1.5 -0.5   0.001%  10.307%   5.932%   0.000%   0.040%   0.001%   0.015%  11.124%   0.001%   3.846%
   16    2.1  1.5 -0.5   0.002%  15.556%   7.115%   0.000%   1.772%   0.033%   0.004%   2.936%   0.003%   8.656%
   17    3.1  1.5 -0.5   0.935%   0.000%   0.000%   4.644%   0.321%  17.108%   2.226%   0.003%   1.707%   0.001%
   18    4.1  1.5 -0.5   5.342%   0.001%   0.000%  10.368%   0.110%   5.853%   5.236%   0.007%  10.271%   0.003%
   19    5.1  1.5 -0.5   0.000%   0.890%   0.120%   0.000%   7.727%   0.145%   0.000%   0.258%   0.003%   9.900%
   20    6.1  1.5 -0.5  12.457%   0.002%   0.000%  15.197%   0.000%   0.002%  11.067%   0.015%   7.589%   0.002%
   21    7.1  1.5 -0.5   1.225%   0.000%   0.000%  13.005%   0.111%   5.916%  16.781%   0.022%   1.850%   0.001%
   22    1.1  1.5 -1.5   9.656%   0.001%   0.000%  13.264%   0.082%   4.374%   0.042%   0.000%  12.248%   0.004%
   23    2.1  1.5 -1.5   0.847%   0.000%   0.000%   8.537%   0.316%  16.823%   0.895%   0.001%  12.300%   0.004%
   24    3.1  1.5 -1.5   0.001%   6.895%   0.216%   0.000%   4.723%   0.089%   0.023%  17.654%   0.006%  19.864%
   25    4.1  1.5 -1.5   0.000%   2.471%   0.032%   0.000%  14.071%   0.264%   0.015%  11.068%   0.002%   4.897%
   26    5.1  1.5 -1.5  28.450%   0.004%   0.000%  14.356%   0.026%   1.381%   1.479%   0.002%   1.742%   0.001%
   27    6.1  1.5 -1.5   0.000%   0.065%   1.297%   0.000%   3.668%   0.069%   0.015%  10.984%   0.001%   3.045%
   28    7.1  1.5 -1.5   0.000%   0.858%   1.881%   0.000%  10.740%   0.202%   0.005%   4.092%   0.000%   0.115%
   29    1.1  0.5  0.5   0.000%   2.163%   0.054%   0.000%   0.052%   0.001%   0.000%   0.035%   0.000%   0.790%
   30    2.1  0.5  0.5   0.000%   0.014%   1.570%   0.000%   0.594%   0.011%   0.000%   0.115%   0.000%   0.000%
   31    3.1  0.5  0.5   0.000%   0.037%   2.010%   0.000%   0.136%   0.003%   0.000%   0.119%   0.000%   0.048%
   32    4.1  0.5  0.5   0.610%   0.000%   0.000%   0.236%   0.003%   0.174%   1.279%   0.002%   0.194%   0.000%
   33    5.1  0.5  0.5   0.357%   0.000%   0.000%   0.001%   0.035%   1.855%   0.057%   0.000%   0.429%   0.000%
   34    6.1  0.5  0.5   0.050%   0.000%   0.000%   0.163%   0.002%   0.108%   1.979%   0.003%   0.056%   0.000%
   35    7.1  0.5  0.5   0.000%   0.801%   0.000%   0.000%   1.040%   0.020%   0.001%   0.444%   0.000%   0.422%
   36    1.1  0.5 -0.5   2.163%   0.000%   0.000%   0.054%   0.001%   0.052%   0.035%   0.000%   0.790%   0.000%
   37    2.1  0.5 -0.5   0.014%   0.000%   0.000%   1.570%   0.011%   0.594%   0.115%   0.000%   0.000%   0.000%
   38    3.1  0.5 -0.5   0.037%   0.000%   0.000%   2.010%   0.003%   0.136%   0.119%   0.000%   0.048%   0.000%
   39    4.1  0.5 -0.5   0.000%   0.610%   0.236%   0.000%   0.174%   0.003%   0.002%   1.279%   0.000%   0.194%
   40    5.1  0.5 -0.5   0.000%   0.357%   0.001%   0.000%   1.855%   0.035%   0.000%   0.057%   0.000%   0.429%
   41    6.1  0.5 -0.5   0.000%   0.050%   0.163%   0.000%   0.108%   0.002%   0.003%   1.979%   0.000%   0.056%
   42    7.1  0.5 -0.5   0.801%   0.000%   0.000%   0.000%   0.020%   1.040%   0.444%   0.001%   0.422%   0.000%

   Nr   State  S   Sz      21       22       23       24       25       26       27       28       29       30

    1    1.1  1.5  1.5   0.001%   8.135%   0.000%   0.625%   0.000%  14.224%   0.061%   0.000%   0.654%   0.000%
    2    2.1  1.5  1.5   0.001%   8.125%   0.000%   0.584%   0.000%  14.228%   0.057%   0.000%   0.026%   0.000%
    3    3.1  1.5  1.5   0.389%   0.000%   1.256%   0.000%   4.711%   0.000%   0.001%   8.210%   0.000%   0.377%
    4    4.1  1.5  1.5  11.883%   0.001%   4.346%   0.000%   4.481%   0.000%   0.001%   9.490%   0.000%   0.141%
    5    5.1  1.5  1.5   0.000%   0.103%   0.000%  23.370%   0.000%   0.008%   2.849%   0.000%   0.787%   0.000%
    6    6.1  1.5  1.5   0.511%   0.000%  14.853%   0.000%   1.102%   0.000%   0.003%  20.260%   0.000%   0.006%
    7    7.1  1.5  1.5   8.377%   0.001%  10.303%   0.000%   1.331%   0.000%   0.003%  18.980%   0.000%   0.005%
    8    1.1  1.5  0.5   9.936%   0.001%   7.229%   0.000%   0.061%   0.000%   0.002%  14.222%   0.000%   0.265%
    9    2.1  1.5  0.5  11.516%   0.001%   0.838%   0.000%   0.076%   0.000%   0.002%  14.208%   0.000%   0.457%
   10    3.1  1.5  0.5   0.000%   2.582%   0.000%  16.222%   0.000%  10.818%   4.831%   0.001%   0.029%   0.000%
   11    4.1  1.5  0.5   0.000%   4.792%   0.000%   5.832%   0.000%  11.745%   2.854%   0.000%   0.381%   0.000%
   12    5.1  1.5  0.5   6.413%   0.000%   0.493%   0.000%  25.589%   0.000%   0.000%   0.125%   0.000%   0.080%
   13    6.1  1.5  0.5   0.001%  14.013%   0.000%   2.010%   0.000%   4.982%   2.225%   0.000%   0.769%   0.000%
   14    7.1  1.5  0.5   0.001%  11.279%   0.000%  10.100%   0.000%   6.643%   1.614%   0.000%   0.056%   0.000%
   15    1.1  1.5 -0.5   0.001%   9.936%   0.000%   7.229%   0.000%   0.061%  14.222%   0.002%   0.265%   0.000%
   16    2.1  1.5 -0.5   0.001%  11.516%   0.000%   0.838%   0.000%   0.076%  14.208%   0.002%   0.457%   0.000%
   17    3.1  1.5 -0.5   2.582%   0.000%  16.222%   0.000%  10.818%   0.000%   0.001%   4.831%   0.000%   0.029%
   18    4.1  1.5 -0.5   4.792%   0.000%   5.832%   0.000%  11.745%   0.000%   0.000%   2.854%   0.000%   0.381%
   19    5.1  1.5 -0.5   0.000%   6.413%   0.000%   0.493%   0.000%  25.589%   0.125%   0.000%   0.080%   0.000%
   20    6.1  1.5 -0.5  14.013%   0.001%   2.010%   0.000%   4.982%   0.000%   0.000%   2.225%   0.000%   0.769%
   21    7.1  1.5 -0.5  11.279%   0.001%  10.100%   0.000%   6.643%   0.000%   0.000%   1.614%   0.000%   0.056%
   22    1.1  1.5 -1.5   8.135%   0.001%   0.625%   0.000%  14.224%   0.000%   0.000%   0.061%   0.000%   0.654%
   23    2.1  1.5 -1.5   8.125%   0.001%   0.584%   0.000%  14.228%   0.000%   0.000%   0.057%   0.000%   0.026%
   24    3.1  1.5 -1.5   0.000%   0.389%   0.000%   1.256%   0.000%   4.711%   8.210%   0.001%   0.377%   0.000%
   25    4.1  1.5 -1.5   0.001%  11.883%   0.000%   4.346%   0.000%   4.481%   9.490%   0.001%   0.141%   0.000%
   26    5.1  1.5 -1.5   0.103%   0.000%  23.370%   0.000%   0.008%   0.000%   0.000%   2.849%   0.000%   0.787%
   27    6.1  1.5 -1.5   0.000%   0.511%   0.000%  14.853%   0.000%   1.102%  20.260%   0.003%   0.006%   0.000%
   28    7.1  1.5 -1.5   0.001%   8.377%   0.000%  10.303%   0.000%   1.331%  18.980%   0.003%   0.005%   0.000%
   29    1.1  0.5  0.5   0.000%   0.008%   0.000%   0.034%   0.000%   0.000%   0.000%   0.000%  54.506%   0.030%
   30    2.1  0.5  0.5   0.000%   0.684%   0.000%   0.147%   0.000%   0.000%   0.000%   0.000%   0.003%   0.000%
   31    3.1  0.5  0.5   0.000%   0.750%   0.000%   0.032%   0.000%   0.000%   0.000%   0.000%   5.078%   0.003%
   32    4.1  0.5  0.5   0.116%   0.000%   0.520%   0.000%   0.000%   0.000%   0.000%   0.000%   0.006%  11.039%
   33    5.1  0.5  0.5   0.378%   0.000%   0.024%   0.000%   0.000%   0.000%   0.000%   0.000%   0.008%  13.708%
   34    6.1  0.5  0.5   0.001%   0.000%   0.774%   0.000%   0.000%   0.000%   0.000%   0.000%   0.000%   0.022%
   35    7.1  0.5  0.5   0.000%   0.001%   0.000%   0.408%   0.000%   0.000%   0.000%   0.000%  11.556%   0.006%
   36    1.1  0.5 -0.5   0.008%   0.000%   0.034%   0.000%   0.000%   0.000%   0.000%   0.000%   0.030%  54.506%
   37    2.1  0.5 -0.5   0.684%   0.000%   0.147%   0.000%   0.000%   0.000%   0.000%   0.000%   0.000%   0.003%
   38    3.1  0.5 -0.5   0.750%   0.000%   0.032%   0.000%   0.000%   0.000%   0.000%   0.000%   0.003%   5.078%
   39    4.1  0.5 -0.5   0.000%   0.116%   0.000%   0.520%   0.000%   0.000%   0.000%   0.000%  11.039%   0.006%
   40    5.1  0.5 -0.5   0.000%   0.378%   0.000%   0.024%   0.000%   0.000%   0.000%   0.000%  13.708%   0.008%
   41    6.1  0.5 -0.5   0.000%   0.001%   0.000%   0.774%   0.000%   0.000%   0.000%   0.000%   0.022%   0.000%
   42    7.1  0.5 -0.5   0.001%   0.000%   0.408%   0.000%   0.000%   0.000%   0.000%   0.000%   0.006%  11.556%

   Nr   State  S   Sz      31       32       33       34       35       36       37       38       39       40

    1    1.1  1.5  1.5   0.139%   0.000%   0.359%   0.000%   0.000%   0.000%   0.170%   0.039%   0.203%   0.000%
    2    2.1  1.5  1.5   0.724%   0.001%   0.400%   0.000%   0.000%   0.001%   0.171%   0.039%   0.202%   0.000%
    3    3.1  1.5  1.5   0.000%   0.266%   0.000%   0.088%   0.498%   0.014%   0.075%   0.328%   0.000%   0.009%
    4    4.1  1.5  1.5   0.000%   0.316%   0.000%   0.004%   0.691%   0.020%   0.019%   0.081%   0.000%   0.183%
    5    5.1  1.5  1.5   0.249%   0.000%   0.796%   0.000%   0.002%   0.086%   0.054%   0.012%   0.034%   0.000%
    6    6.1  1.5  1.5   0.000%   0.291%   0.000%   0.020%   0.349%   0.010%   0.006%   0.027%   0.000%   0.056%
    7    7.1  1.5  1.5   0.001%   0.383%   0.000%   0.092%   0.259%   0.007%   0.000%   0.000%   0.000%   0.251%
    8    1.1  1.5  0.5   0.000%   0.094%   0.000%   0.270%   0.509%   0.014%   0.012%   0.053%   0.000%   0.106%
    9    2.1  1.5  0.5   0.000%   0.125%   0.000%   0.465%   0.102%   0.003%   0.038%   0.163%   0.000%   0.214%
   10    3.1  1.5  0.5   0.592%   0.001%   0.181%   0.000%   0.007%   0.250%   0.015%   0.003%   0.006%   0.000%
   11    4.1  1.5  0.5   0.128%   0.000%   0.346%   0.000%   0.008%   0.269%   0.202%   0.046%   0.118%   0.000%
   12    5.1  1.5  0.5   0.000%   0.303%   0.000%   0.000%   0.000%   0.000%   0.032%   0.138%   0.000%   0.160%
   13    6.1  1.5  0.5   0.004%   0.000%   0.359%   0.000%   0.014%   0.483%   0.152%   0.035%   0.279%   0.000%
   14    7.1  1.5  0.5   0.413%   0.001%   0.653%   0.000%   0.012%   0.423%   0.023%   0.005%   0.119%   0.000%
   15    1.1  1.5 -0.5   0.094%   0.000%   0.270%   0.000%   0.014%   0.509%   0.053%   0.012%   0.106%   0.000%
   16    2.1  1.5 -0.5   0.125%   0.000%   0.465%   0.000%   0.003%   0.102%   0.163%   0.038%   0.214%   0.000%
   17    3.1  1.5 -0.5   0.001%   0.592%   0.000%   0.181%   0.250%   0.007%   0.003%   0.015%   0.000%   0.006%
   18    4.1  1.5 -0.5   0.000%   0.128%   0.000%   0.346%   0.269%   0.008%   0.046%   0.202%   0.000%   0.118%
   19    5.1  1.5 -0.5   0.303%   0.000%   0.000%   0.000%   0.000%   0.000%   0.138%   0.032%   0.160%   0.000%
   20    6.1  1.5 -0.5   0.000%   0.004%   0.000%   0.359%   0.483%   0.014%   0.035%   0.152%   0.000%   0.279%
   21    7.1  1.5 -0.5   0.001%   0.413%   0.000%   0.653%   0.423%   0.012%   0.005%   0.023%   0.000%   0.119%
   22    1.1  1.5 -1.5   0.000%   0.139%   0.000%   0.359%   0.000%   0.000%   0.039%   0.170%   0.000%   0.203%
   23    2.1  1.5 -1.5   0.001%   0.724%   0.000%   0.400%   0.001%   0.000%   0.039%   0.171%   0.000%   0.202%
   24    3.1  1.5 -1.5   0.266%   0.000%   0.088%   0.000%   0.014%   0.498%   0.328%   0.075%   0.009%   0.000%
   25    4.1  1.5 -1.5   0.316%   0.000%   0.004%   0.000%   0.020%   0.691%   0.081%   0.019%   0.183%   0.000%
   26    5.1  1.5 -1.5   0.000%   0.249%   0.000%   0.796%   0.086%   0.002%   0.012%   0.054%   0.000%   0.034%
   27    6.1  1.5 -1.5   0.291%   0.000%   0.020%   0.000%   0.010%   0.349%   0.027%   0.006%   0.056%   0.000%
   28    7.1  1.5 -1.5   0.383%   0.001%   0.092%   0.000%   0.007%   0.259%   0.000%   0.000%   0.251%   0.000%
   29    1.1  0.5  0.5   0.053%   0.000%   0.036%   0.000%   0.006%   0.221%  33.755%   7.763%   0.193%   0.000%
   30    2.1  0.5  0.5   8.284%   0.012%  37.903%   0.000%   0.238%   8.396%   0.000%   0.000%  26.055%   0.000%
   31    3.1  0.5  0.5   2.853%   0.004%  44.679%   0.000%   0.061%   2.158%   3.235%   0.744%  37.940%   0.000%
   32    4.1  0.5  0.5   0.004%   2.624%   0.000%  11.279%  29.055%   0.823%   2.662%  11.574%   0.000%  10.789%
   33    5.1  0.5  0.5   0.050%  33.684%   0.000%   0.402%   6.789%   0.192%   3.826%  16.636%   0.000%  18.838%
   34    6.1  0.5  0.5   0.015%  10.303%   0.000%   1.657%  41.657%   1.181%   0.195%   0.849%   0.000%   1.743%
   35    7.1  0.5  0.5  38.022%   0.057%   0.009%   0.000%   0.143%   5.046%  13.676%   3.145%   2.502%   0.000%
   36    1.1  0.5 -0.5   0.000%   0.053%   0.000%   0.036%   0.221%   0.006%   7.763%  33.755%   0.000%   0.193%
   37    2.1  0.5 -0.5   0.012%   8.284%   0.000%  37.903%   8.396%   0.238%   0.000%   0.000%   0.000%  26.055%
   38    3.1  0.5 -0.5   0.004%   2.853%   0.000%  44.679%   2.158%   0.061%   0.744%   3.235%   0.000%  37.940%
   39    4.1  0.5 -0.5   2.624%   0.004%  11.279%   0.000%   0.823%  29.055%  11.574%   2.662%  10.789%   0.000%
   40    5.1  0.5 -0.5  33.684%   0.050%   0.402%   0.000%   0.192%   6.789%  16.636%   3.826%  18.838%   0.000%
   41    6.1  0.5 -0.5  10.303%   0.015%   1.657%   0.000%   1.181%  41.657%   0.849%   0.195%   1.743%   0.000%
   42    7.1  0.5 -0.5   0.057%  38.022%   0.000%   0.009%   5.046%   0.143%   3.145%  13.676%   0.000%   2.502%

   Nr   State  S   Sz      41       42

    1    1.1  1.5  1.5   0.000%   0.004%
    2    2.1  1.5  1.5   0.000%   0.003%
    3    3.1  1.5  1.5   0.013%   0.000%
    4    4.1  1.5  1.5   0.135%   0.000%
    5    5.1  1.5  1.5   0.000%   0.398%
    6    6.1  1.5  1.5   0.275%   0.000%
    7    7.1  1.5  1.5   0.121%   0.000%
    8    1.1  1.5  0.5   0.244%   0.000%
    9    2.1  1.5  0.5   0.001%   0.000%
   10    3.1  1.5  0.5   0.000%   0.381%
   11    4.1  1.5  0.5   0.000%   0.047%
   12    5.1  1.5  0.5   0.003%   0.000%
   13    6.1  1.5  0.5   0.000%   0.001%
   14    7.1  1.5  0.5   0.000%   0.313%
   15    1.1  1.5 -0.5   0.000%   0.244%
   16    2.1  1.5 -0.5   0.000%   0.001%
   17    3.1  1.5 -0.5   0.381%   0.000%
   18    4.1  1.5 -0.5   0.047%   0.000%
   19    5.1  1.5 -0.5   0.000%   0.003%
   20    6.1  1.5 -0.5   0.001%   0.000%
   21    7.1  1.5 -0.5   0.313%   0.000%
   22    1.1  1.5 -1.5   0.004%   0.000%
   23    2.1  1.5 -1.5   0.003%   0.000%
   24    3.1  1.5 -1.5   0.000%   0.013%
   25    4.1  1.5 -1.5   0.000%   0.135%
   26    5.1  1.5 -1.5   0.398%   0.000%
   27    6.1  1.5 -1.5   0.000%   0.275%
   28    7.1  1.5 -1.5   0.000%   0.121%
   29    1.1  0.5  0.5   0.000%   0.300%
   30    2.1  0.5  0.5   0.000%  15.972%
   31    3.1  0.5  0.5   0.000%   0.108%
   32    4.1  0.5  0.5  17.007%   0.000%
   33    5.1  0.5  0.5   2.731%   0.000%
   34    6.1  0.5  0.5  39.241%   0.000%
   35    7.1  0.5  0.5   0.000%  22.703%
   36    1.1  0.5 -0.5   0.300%   0.000%
   37    2.1  0.5 -0.5  15.972%   0.000%
   38    3.1  0.5 -0.5   0.108%   0.000%
   39    4.1  0.5 -0.5   0.000%  17.007%
   40    5.1  0.5 -0.5   0.000%   2.731%
   41    6.1  0.5 -0.5   0.000%  39.241%
   42    7.1  0.5 -0.5  22.703%   0.000%


 Property matrices transformed in SO basis (not sym. adapted)
 ============================================================

 No matrix element <i|DMX|i> larger than 5E-7
 No matrix element <i|DMX|1> larger than 5E-7

 No matrix element <i|DMY|i> larger than 5E-7
 No matrix element <i|DMY|1> larger than 5E-7

 No matrix element <i|DMZ|i> larger than 5E-7
 No matrix element <i|DMZ|1> larger than 5E-7


 **********************************************************************************************************************************
 DATASETS  * FILE   NREC   LENGTH (MB)   RECORD NAMES
              1      21       32.05       500      610      700      900      950      970     1000      129      960     1100   
                                          VAR    BASINP    GEOM    SYMINP    ZMAT    AOBASIS   BASIS     P2S    ABASIS      S 
                                         1400     1410     1420     1200     1210     1080     1700     1600     1650     1380   
                                           T        V       ECP      H0       H01     AOSYM    OPER      SMH    MOLCAS    JKOP   
                                         1700(1)
                                         OPER   

              2       6      142.40       700     1000      520     2140     5103     5101   
                                         GEOM     BASIS   MCVARS    MCSCF    MRCI     MRCI   

 PROGRAMS   *        TOTAL        CI        CI        CI     MULTI       INT
 CPU TIMES  *       648.89    454.46    149.16     42.82      1.85      0.41
 REAL TIME  *       695.19 SEC
 DISK USED  *       174.50 MB (local),        1.75 GB (total)
 SF USED    *       770.66 MB
 GA USED    *         0.00 MB       (max)       0.00 MB       (current)
 **********************************************************************************************************************************

 CI/cc-pWCVTZ-PP energy=   -109.985924009792

              CI              CI           MULTI
   -109.93920619   -109.96324763   -109.35334158
 **********************************************************************************************************************************
 Molpro calculation terminated
