
 Working directory              : /wrk/irikura/molpro.iMJcOkbrle/
 Global scratch directory       : /wrk/irikura/molpro.iMJcOkbrle/
 Wavefunction directory         : /home/irikura/wfu/
 Main file repository           : /wrk/irikura/molpro.iMJcOkbrle/

 id        : nistki

 Nodes            nprocs
 pn125343.nist.gov   16
 GA implementation: MPI file
 GA implementation (serial work in mppx): MPI file

 Using customized tuning parameters: mindgm=1; mindgv=20; mindgc=4; mindgr=1; noblas=0; minvec=7
 default implementation of scratch files=sf  


 Variables initialized (1025), CPU time= 0.00 sec
 ***,Sr SO-CI
 memory,3000,M;
 
 gprint,orbitals,civector;
 
 symmetry,xyz
 geometry={Sr};
 
 basis=aug-cc-pwCVTZ-PP
 
 {rhf;wf,sym=1,spin=0}
 
                                                                                 ! Active space (8/13)
 {multi
     closed,1,0
     occ,8,6
     wf,sym=1,spin=2;state,9;
     wf,sym=1,spin=0;state,7;
     expec2,lxx,lyy,lzz;
 }
 table, energy, ll
 title, Energies and &lt;L**2&gt; values
 
 core,0,0
 {ci;wf,sym=1,spin=2;state,9; save,5203.2}
 hlsdiag = energd4
 {ci;wf,sym=1,spin=0;state,7; save,5201.2}
 hlsdiag(10) = energd4
 
 table,hlsdiag
 
 {ci;hlsmat,ecp,5203.2,5201.2;print,vls=0,hls=0}                                 !compute and diagonalize SO matrix
 Commands initialized (840), CPU time= 0.01 sec, 684 directives.
 Default parameters read. Elapsed time= 0.10 sec

 Checking input...
 Passed
1


                                         ***  PROGRAM SYSTEM MOLPRO  ***
                                       Copyright, TTI GmbH Stuttgart, 2015
                                    Version 2022.3 linked Wed Nov 30 06:40:34 2022


 **********************************************************************************************************************************
 LABEL *   Sr SO-                                                                        
  64 bit mpp version                                                                     DATE: 08-Mar-24          TIME: 08:29:22  
 **********************************************************************************************************************************

 SHA1:             e31ec9a5ea85254ab76f59d122cbdd51c71cf98b
 **********************************************************************************************************************************

 Memory per process:      3000 MW
 Total memory per node:  48000 MW

 GA preallocation disabled
 GA check disabled

 Variable memory set to 3000.0 MW


 ZSYMEL=XYZ

 SETTING BASIS          =    AUG-CC-PWCVTZ-PP


 Recomputing integrals since basis changed


 Using spherical harmonics

 Library entry Sr   ECP ECP28MDF                 selected for group  1
 Library entry SR     S aug-cc-pwCVTZ-PP     selected for orbital group  1
 Library entry SR     P aug-cc-pwCVTZ-PP     selected for orbital group  1
 Library entry SR     D aug-cc-pwCVTZ-PP     selected for orbital group  1
 Library entry SR     F aug-cc-pwCVTZ-PP     selected for orbital group  1


 PROGRAM * SEWARD (Integral evaluation for generally contracted gaussian basis sets)     Author: Roland Lindh, 1990

 Geometry written to block  1 of record 700

 Orientation using atomic masses  
 Molecule type: Atom
 User-specified symmetry elements: XYZ
 Symmetry elements: XYZ
 Rotational constants:       0.0000000      0.0000000      0.0000000 GHz  (calculated with average atomic masses)

 Point group  Ci  



 ATOMIC COORDINATES

 NR  ATOM    CHARGE       X              Y              Z

   1  SR     10.00    0.000000000    0.000000000    0.000000000

 NUCLEAR CHARGE:                   10
 NUMBER OF PRIMITIVE AOS:         127
 NUMBER OF SYMMETRY AOS:          110
 NUMBER OF CONTRACTIONS:           80   (   38Ag  +   42Au  )
 NUMBER OF INNER CORE ORBITALS:     0   (    0Ag  +    0Au  )
 NUMBER OF OUTER CORE ORBITALS:     4   (    1Ag  +    3Au  )
 NUMBER OF VALENCE ORBITALS:        1   (    1Ag  +    0Au  )


 LX: Ag           LY: Ag           LZ: Ag 


 NUCLEAR REPULSION ENERGY    0.00000000

 EXTRA SYMMETRY OF AOS IN SYMMETRY 1:   1 1 1 1 1 1 1 1 2 3   4 5 6 2 3 4 5 6 2 3   4 5 6 2 3 4 5 6 2 3   4 5 6 2 3 4 5 6
 EXTRA SYMMETRY OF AOS IN SYMMETRY 2:   1 2 3 1 2 3 1 2 3 1   2 3 1 2 3 1 2 3 1 2   3 4 5 6 7 8 910 4 5   6 7 8 910 4 5 6 7 8
                                        910


 Eigenvalues of metric

         1 0.706E-05 0.181E-02 0.976E-02 0.976E-02 0.976E-02 0.976E-02 0.976E-02 0.121E-01
         2 0.508E-02 0.508E-02 0.508E-02 0.242E-01 0.242E-01 0.242E-01 0.110E+00 0.110E+00


 Contracted 2-electron integrals neglected if value below      1.0D-12
 AO integral compression algorithm  1   Integral accuracy      1.0D-12

     10.224 MB (compressed) written to integral file ( 21.7%)

     Node minimum: 0.262 MB, node maximum: 1.049 MB


 NUMBER OF SORTED TWO-ELECTRON INTEGRALS:     167320.     BUFFER LENGTH:  32768
 NUMBER OF SEGMENTS:   1  SEGMENT LENGTH:     167320      RECORD LENGTH: 524288

 Memory used in sort:       0.72 MW

 SORT1 READ     6063679. AND WROTE       34957. INTEGRALS IN      1 RECORDS. CPU TIME:     0.04 SEC, REAL TIME:     0.05 SEC
 SORT2 READ      567219. AND WROTE     2690436. INTEGRALS IN     32 RECORDS. CPU TIME:     0.00 SEC, REAL TIME:     0.01 SEC

 Node minimum:      166504.  Node maximum:      170063. integrals

 OPERATOR DM      FOR CENTER  0  COORDINATES:    0.000000    0.000000    0.000000


 **********************************************************************************************************************************
 DATASETS  * FILE   NREC   LENGTH (MB)   RECORD NAMES
              1      19       28.73       500      610      700      900      950      970     1000      129      960     1100   
                                          VAR    BASINP    GEOM    SYMINP    ZMAT    AOBASIS   BASIS     P2S    ABASIS      S 
                                         1400     1410     1420     1200     1210     1080     1700     1600     1650   
                                           T        V       ECP      H0       H01     AOSYM    OPER      SMH    MOLCAS    

 PROGRAMS   *        TOTAL       INT
 CPU TIMES  *         0.96      0.73
 REAL TIME  *         2.30 SEC
 DISK USED  *        29.00 MB (local),      532.61 MB (total)
 GA USED    *         0.00 MB       (max)       0.00 MB       (current)
 **********************************************************************************************************************************


 Program * Restricted Hartree-Fock

 Orbital guess generated from atomic densities. Full valence occupancy:    2   3

 Initial occupancy:   2   3

 NELEC=   10   SYM=1   MS2= 0   THRE=1.0D-08   THRD=3.2D-06   THRG=3.2D-06  HFMA2=F  DIIS_START=2   DIIS_MAX=10   DIIS_INCORE=F

 Level shifts:    0.00 (CLOSED)    0.00 (OPEN)    0.30 (GAP_MIN)

 ITER           ETOT              DE          GRAD        DDIFF     DIIS  NEXP   TIME(IT)  TIME(TOT)  DIAG
   1      -30.34122429     -30.34122429     0.00D+00     0.11D+00     0     0       0.00      0.01    start
   2      -30.34122430      -0.00000001     0.32D-05     0.84D-04     1     0       0.00      0.01    diag
   3      -30.34122430      -0.00000000     0.87D-06     0.22D-04     2     0       0.00      0.01    diag
   4      -30.34122430      -0.00000000     0.38D-06     0.15D-04     3     0       0.00      0.01    diag
   5      -30.34122430      -0.00000000     0.57D-07     0.56D-06     4     0       0.01      0.02    diag
   6      -30.34122430      -0.00000000     0.22D-07     0.30D-06     0     0       0.00      0.02    diag

 Final occupancy:   2   3

 !RHF STATE 1.1 Energy                -30.341224300615
  RHF One-electron energy             -49.818329586651
  RHF Two-electron energy              19.477105286036
  RHF Kinetic energy                    9.485913008600
  RHF Nuclear energy                    0.000000000000
  RHF Virial quotient                  -3.198556034944

 !RHF STATE 1.1 Dipole moment           0.00000000     0.00000000     0.00000000
 Dipole moment /Debye                   0.00000000     0.00000000     0.00000000

 ELECTRON ORBITALS
 =================

  Orbital  Occupation    Energy    Cen Mu Typ  Coefficients
    1.1     2.00000    -1.97188     1  1  s    1.00522
    2.1     2.00000    -0.18127     1  2  s    1.01723
    1.2     2.00000    -1.09297     1  1  pz   0.99986
    2.2     2.00000    -1.09297     1  1  px   0.99986
    3.2     2.00000    -1.09297     1  1  py   0.99986


 HOMO      2.1    -0.181273 =      -4.9327eV
 LUMO      4.2     0.009585 =       0.2608eV
 LUMO-HOMO         0.190858 =       5.1935eV

 Orbitals saved in record  2100.2


 **********************************************************************************************************************************
 DATASETS  * FILE   NREC   LENGTH (MB)   RECORD NAMES
              1      19       28.73       500      610      700      900      950      970     1000      129      960     1100   
                                          VAR    BASINP    GEOM    SYMINP    ZMAT    AOBASIS   BASIS     P2S    ABASIS      S 
                                         1400     1410     1420     1200     1210     1080     1700     1600     1650   
                                           T        V       ECP      H0       H01     AOSYM    OPER      SMH    MOLCAS    

              2       4        0.40       700     1000      520     2100   
                                         GEOM     BASIS   MCVARS     RHF  

 PROGRAMS   *        TOTAL   RHF-SCF       INT
 CPU TIMES  *         0.98      0.02      0.73
 REAL TIME  *         2.32 SEC
 DISK USED  *        29.34 MB (local),      538.11 MB (total)
 GA USED    *         0.00 MB       (max)       0.00 MB       (current)
 **********************************************************************************************************************************

 PROGRAM * MULTI (Direct Multiconfiguration SCF)       Authors: P.J. Knowles, H.-J. Werner (1984)
                                                                D.A. Kreplin, P.J. Knowles, H.-J. Werner (2019)

 Number of closed-shell orbitals:   1 (    1    0)
 Number of active  orbitals:       13 (    7    6)
 Number of external orbitals:      66 (   30   36)

 State symmetry 1

 Number of active electrons:   8    Spin symmetry=Triplet   Space symmetry=1
 Number of states:             9
 Number of CSFs:          117012   (183996 determinants, 368082 intermediate states)

 State symmetry 2

 Number of active electrons:   8    Spin symmetry=Singlet   Space symmetry=1
 Number of states:             7
 Number of CSFs:           71729   (255725 determinants, 511225 intermediate states)

 Molecular orbitals read from record     2100.2  Type=RHF/CANONICAL  
 *** IN SYMMETRY 1 ORBITAL  5 SYMMETRY CONTAMINATION OF 0.324D+00 HAS BEEN REMOVED
 *** IN SYMMETRY 1 ORBITAL  6 SYMMETRY CONTAMINATION OF 0.324D+00 HAS BEEN REMOVED
 *** IN SYMMETRY 1 ORBITAL  7 SYMMETRY CONTAMINATION OF 0.485D+00 HAS BEEN REMOVED
 *** IN SYMMETRY 1 ORBITAL  8 SYMMETRY CONTAMINATION OF 0.485D+00 HAS BEEN REMOVED

 EXTRA SYMMETRY OF MOS IN SYMMETRY 1:   1 1 1 2 6 4 5 3 2 4   6 3 5 1 6 4 2 3 5 1   4 6 3 5 2 4 6 3 5 2   1 6 4 3 5 2 1 1
 *** IN SYMMETRY 2 ORBITAL  1 SYMMETRY CONTAMINATION OF 0.330D-03 HAS BEEN REMOVED
 *** IN SYMMETRY 2 ORBITAL  3 SYMMETRY CONTAMINATION OF 0.330D-03 HAS BEEN REMOVED
 *** IN SYMMETRY 2 ORBITAL  4 SYMMETRY CONTAMINATION OF 0.582D-03 HAS BEEN REMOVED
 *** IN SYMMETRY 2 ORBITAL  5 SYMMETRY CONTAMINATION OF 0.561D-03 HAS BEEN REMOVED
 *** IN SYMMETRY 2 ORBITAL  6 SYMMETRY CONTAMINATION OF 0.260D-03 HAS BEEN REMOVED
 EXTRA SYMMETRY OF MOS IN SYMMETRY 2:   3 1 2 3 2 1 1 2 3 3   1 2 6 5 4 810 9 7 3   1 2 4 5 6 810 7 9 3   1 2 5 4 6 810 9 7 2
                                        3 1

 Wavefunction dump at record             2140.2

 Convergence thresholds  0.10E-04 (gradient)  0.10E-05 (energy)

 Weight factors for state symmetry  1:    0.06250   0.06250   0.06250   0.06250   0.06250   0.06250   0.06250   0.06250
                                          0.06250
 Weight factors for state symmetry  2:    0.06250   0.06250   0.06250   0.06250   0.06250   0.06250   0.06250
 
 Number of orbital rotations:  463  ( 7 closed/active, 30 closed/virtual, 0 active/active, 426 active/virtual )
 Total number of variables:    3446502
 
 Second-order MCSCF: L-BFGS accelerated
 
 ITER  MIC  NCI  NEG     ENERGY(VAR)    ENERGY(PROJ) ENERGY CHANGE       GRAD(0)  GRAD(ORB)   GRAD(CI)      STEP      TIME
   1   22  107    5    -30.19451461     -30.30668956   -0.11217495    0.04810585 0.00015901 0.00041973  0.24E+01     30.73
   2   13   76    0    -30.27889292     -30.29185579   -0.01296286    0.09402841 0.00001201 0.00001989  0.60E+00     51.58
   3   10   50    0    -30.29247491     -30.29254947   -0.00007456    0.00616197 0.00000227 0.00000634  0.37E-01     66.24
   4    9   37    0    -30.29254968     -30.29254968   -0.00000000    0.00002807 0.00000000 0.00000001  0.18E-03     78.73
   5    2    4    0    -30.29254968     -30.29254968   -0.00000000    0.00000001 0.00000000 0.00000000  0.43E-08     80.50

 CONVERGENCE REACHED!  Final gradient:    0.00000000 ( 0.27E-08)
                       Final energy:    -30.29254968
 
 Results for state 1.1 Triplet
 =============================
 !MCSCF STATE 1.1 Triplet Energy               -30.299297403879
 Nuclear energy                                  0.00000000
 Kinetic energy                                  9.29172456
 One electron energy                           -48.45476707
 Two electron energy                            18.15546966
 Virial ratio                                    4.26089062
 
 !MCSCF STATE 1.1 Triplet Dipole moment          0.00000000     0.00000000     0.00000000
 Dipole moment /Debye                            0.00000000     0.00000000     0.00000000
 
 Results for state 2.1 Triplet
 =============================
 !MCSCF STATE 2.1 Triplet Energy               -30.288830587819
 Nuclear energy                                  0.00000000
 Kinetic energy                                 10.18263040
 One electron energy                           -50.73358636
 Two electron energy                            20.44475577
 Virial ratio                                    3.97455858
 
 !MCSCF STATE 2.1 Triplet Dipole moment          0.00000000     0.00000000     0.00000000
 Dipole moment /Debye                            0.00000000     0.00000000     0.00000000
 
 Results for state 3.1 Triplet
 =============================
 !MCSCF STATE 3.1 Triplet Energy               -30.288830587819
 Nuclear energy                                  0.00000000
 Kinetic energy                                 10.18263040
 One electron energy                           -50.73358636
 Two electron energy                            20.44475577
 Virial ratio                                    3.97455858
 
 !MCSCF STATE 3.1 Triplet Dipole moment          0.00000000     0.00000000     0.00000000
 Dipole moment /Debye                            0.00000000     0.00000000     0.00000000
 
 Results for state 4.1 Triplet
 =============================
 !MCSCF STATE 4.1 Triplet Energy               -30.288830587819
 Nuclear energy                                  0.00000000
 Kinetic energy                                 10.18263040
 One electron energy                           -50.73358636
 Two electron energy                            20.44475577
 Virial ratio                                    3.97455858
 
 !MCSCF STATE 4.1 Triplet Dipole moment          0.00000000     0.00000000     0.00000000
 Dipole moment /Debye                            0.00000000     0.00000000     0.00000000
 
 Results for state 5.1 Triplet
 =============================
 !MCSCF STATE 5.1 Triplet Energy               -30.288830587815
 Nuclear energy                                  0.00000000
 Kinetic energy                                 10.18263040
 One electron energy                           -50.73358636
 Two electron energy                            20.44475577
 Virial ratio                                    3.97455858
 
 !MCSCF STATE 5.1 Triplet Dipole moment          0.00000000     0.00000000     0.00000000
 Dipole moment /Debye                            0.00000000     0.00000000     0.00000000
 
 Results for state 6.1 Triplet
 =============================
 !MCSCF STATE 6.1 Triplet Energy               -30.288830587814
 Nuclear energy                                  0.00000000
 Kinetic energy                                 10.18263040
 One electron energy                           -50.73358636
 Two electron energy                            20.44475577
 Virial ratio                                    3.97455858
 
 !MCSCF STATE 6.1 Triplet Dipole moment          0.00000000     0.00000000     0.00000000
 Dipole moment /Debye                            0.00000000     0.00000000     0.00000000
 
 Results for state 7.1 Triplet
 =============================
 !MCSCF STATE 7.1 Triplet Energy               -30.259907814461
 Nuclear energy                                  0.00000000
 Kinetic energy                                  9.44907046
 One electron energy                           -48.99208477
 Two electron energy                            18.73217695
 Virial ratio                                    4.20242165
 
 !MCSCF STATE 7.1 Triplet Dipole moment          0.00000000     0.00000000     0.00000000
 Dipole moment /Debye                            0.00000000     0.00000000     0.00000000
 
 Results for state 8.1 Triplet
 =============================
 !MCSCF STATE 8.1 Triplet Energy               -30.259907814461
 Nuclear energy                                  0.00000000
 Kinetic energy                                  9.44907046
 One electron energy                           -48.99208477
 Two electron energy                            18.73217695
 Virial ratio                                    4.20242165
 
 !MCSCF STATE 8.1 Triplet Dipole moment          0.00000000     0.00000000     0.00000000
 Dipole moment /Debye                            0.00000000     0.00000000     0.00000000
 
 Results for state 9.1 Triplet
 =============================
 !MCSCF STATE 9.1 Triplet Energy               -30.259907814461
 Nuclear energy                                  0.00000000
 Kinetic energy                                  9.44907046
 One electron energy                           -48.99208477
 Two electron energy                            18.73217695
 Virial ratio                                    4.20242165
 
 !MCSCF STATE 9.1 Triplet Dipole moment          0.00000000     0.00000000     0.00000000
 Dipole moment /Debye                            0.00000000     0.00000000     0.00000000
 
 Results for state 1.1 Singlet
 =============================
 !MCSCF STATE 1.1 Singlet Energy               -30.433267769513
 Nuclear energy                                  0.00000000
 Kinetic energy                                  9.36678596
 One electron energy                           -49.55649290
 Two electron energy                            19.12322514
 Virial ratio                                    4.24906194
 
 !MCSCF STATE 1.1 Singlet Dipole moment          0.00000000     0.00000000     0.00000000
 Dipole moment /Debye                            0.00000000     0.00000000     0.00000000
 
 Results for state 2.1 Singlet
 =============================
 !MCSCF STATE 2.1 Singlet Energy               -30.287582206018
 Nuclear energy                                  0.00000000
 Kinetic energy                                  9.33794283
 One electron energy                           -48.60502554
 Two electron energy                            18.31744334
 Virial ratio                                    4.24349621
 
 !MCSCF STATE 2.1 Singlet Dipole moment          0.00000000     0.00000000     0.00000000
 Dipole moment /Debye                            0.00000000     0.00000000     0.00000000
 
 Results for state 3.1 Singlet
 =============================
 !MCSCF STATE 3.1 Singlet Energy               -30.287354237204
 Nuclear energy                                  0.00000000
 Kinetic energy                                 10.01424909
 One electron energy                           -50.28872327
 Two electron energy                            20.00136903
 Virial ratio                                    4.02442589
 
 !MCSCF STATE 3.1 Singlet Dipole moment          0.00000000     0.00000000     0.00000000
 Dipole moment /Debye                            0.00000000     0.00000000     0.00000000
 
 Results for state 4.1 Singlet
 =============================
 !MCSCF STATE 4.1 Singlet Energy               -30.287354237204
 Nuclear energy                                  0.00000000
 Kinetic energy                                 10.01424909
 One electron energy                           -50.28872327
 Two electron energy                            20.00136903
 Virial ratio                                    4.02442589
 
 !MCSCF STATE 4.1 Singlet Dipole moment          0.00000000     0.00000000     0.00000000
 Dipole moment /Debye                            0.00000000     0.00000000     0.00000000
 
 Results for state 5.1 Singlet
 =============================
 !MCSCF STATE 5.1 Singlet Energy               -30.287354237204
 Nuclear energy                                  0.00000000
 Kinetic energy                                 10.01424909
 One electron energy                           -50.28872327
 Two electron energy                            20.00136903
 Virial ratio                                    4.02442589
 
 !MCSCF STATE 5.1 Singlet Dipole moment          0.00000000     0.00000000     0.00000000
 Dipole moment /Debye                            0.00000000     0.00000000     0.00000000
 
 Results for state 6.1 Singlet
 =============================
 !MCSCF STATE 6.1 Singlet Energy               -30.287354237201
 Nuclear energy                                  0.00000000
 Kinetic energy                                 10.01424909
 One electron energy                           -50.28872327
 Two electron energy                            20.00136903
 Virial ratio                                    4.02442589
 
 !MCSCF STATE 6.1 Singlet Dipole moment          0.00000000     0.00000000     0.00000000
 Dipole moment /Debye                            0.00000000     0.00000000     0.00000000
 
 Results for state 7.1 Singlet
 =============================
 !MCSCF STATE 7.1 Singlet Energy               -30.287354237200
 Nuclear energy                                  0.00000000
 Kinetic energy                                 10.01424909
 One electron energy                           -50.28872327
 Two electron energy                            20.00136903
 Virial ratio                                    4.02442589
 
 !MCSCF STATE 7.1 Singlet Dipole moment          0.00000000     0.00000000     0.00000000
 Dipole moment /Debye                            0.00000000     0.00000000     0.00000000
 
 State-averaged charge density matrix saved on record 2140.2 (density set 1)
 
 No non-zero expectation values
 
 Expectation values for two-electron operators:
 
 !MCSCF expec      <1.1 Triplet|LXLX|1.1 Triplet>     0.000000000000
 !MCSCF expec      <2.1 Triplet|LXLX|2.1 Triplet>     2.431444911049
 !MCSCF expec      <3.1 Triplet|LXLX|3.1 Triplet>     2.539424116960
 !MCSCF expec      <4.1 Triplet|LXLX|4.1 Triplet>     1.029070190525
 !MCSCF expec      <5.1 Triplet|LXLX|5.1 Triplet>     1.000699710729
 !MCSCF expec      <6.1 Triplet|LXLX|6.1 Triplet>     2.999361070737
 !MCSCF expec      <7.1 Triplet|LXLX|7.1 Triplet>     0.270646744020
 !MCSCF expec      <8.1 Triplet|LXLX|8.1 Triplet>     0.986924311202
 !MCSCF expec      <9.1 Triplet|LXLX|9.1 Triplet>     0.742428944779
 !MCSCF expec      <1.1 Singlet|LXLX|1.1 Singlet>     0.000000000000
 !MCSCF expec      <2.1 Singlet|LXLX|2.1 Singlet>    -0.000000000000
 !MCSCF expec      <3.1 Singlet|LXLX|3.1 Singlet>     3.999445949319
 !MCSCF expec      <4.1 Singlet|LXLX|4.1 Singlet>     1.000030926581
 !MCSCF expec      <5.1 Singlet|LXLX|5.1 Singlet>     1.000604697055
 !MCSCF expec      <6.1 Singlet|LXLX|6.1 Singlet>     3.238895287961
 !MCSCF expec      <7.1 Singlet|LXLX|7.1 Singlet>     0.761023139085
 
 !MCSCF expec      <1.1 Triplet|LYLY|1.1 Triplet>     0.000000000000
 !MCSCF expec      <2.1 Triplet|LYLY|2.1 Triplet>     1.656091176760
 !MCSCF expec      <3.1 Triplet|LYLY|3.1 Triplet>     1.895784235645
 !MCSCF expec      <4.1 Triplet|LYLY|4.1 Triplet>     2.448111113919
 !MCSCF expec      <5.1 Triplet|LYLY|5.1 Triplet>     0.999375218587
 !MCSCF expec      <6.1 Triplet|LYLY|6.1 Triplet>     3.000638255089
 !MCSCF expec      <7.1 Triplet|LYLY|7.1 Triplet>     0.929625207432
 !MCSCF expec      <8.1 Triplet|LYLY|8.1 Triplet>     0.125957819329
 !MCSCF expec      <9.1 Triplet|LYLY|9.1 Triplet>     0.944416973238
 !MCSCF expec      <1.1 Singlet|LYLY|1.1 Singlet>    -0.000000000000
 !MCSCF expec      <2.1 Singlet|LYLY|2.1 Singlet>    -0.000000000000
 !MCSCF expec      <3.1 Singlet|LYLY|3.1 Singlet>     1.000440956726
 !MCSCF expec      <4.1 Singlet|LYLY|4.1 Singlet>     1.188151241978
 !MCSCF expec      <5.1 Singlet|LYLY|5.1 Singlet>     3.811336699515
 !MCSCF expec      <6.1 Singlet|LYLY|6.1 Singlet>     2.740237545482
 !MCSCF expec      <7.1 Singlet|LYLY|7.1 Singlet>     1.259833556299
 
 !MCSCF expec      <1.1 Triplet|LZLZ|1.1 Triplet>    -0.000000000000
 !MCSCF expec      <2.1 Triplet|LZLZ|2.1 Triplet>     1.912463912190
 !MCSCF expec      <3.1 Triplet|LZLZ|3.1 Triplet>     1.564791647395
 !MCSCF expec      <4.1 Triplet|LZLZ|4.1 Triplet>     2.522818695556
 !MCSCF expec      <5.1 Triplet|LZLZ|5.1 Triplet>     3.999925070685
 !MCSCF expec      <6.1 Triplet|LZLZ|6.1 Triplet>     0.000000674174
 !MCSCF expec      <7.1 Triplet|LZLZ|7.1 Triplet>     0.799728048548
 !MCSCF expec      <8.1 Triplet|LZLZ|8.1 Triplet>     0.887117869469
 !MCSCF expec      <9.1 Triplet|LZLZ|9.1 Triplet>     0.313154081983
 !MCSCF expec      <1.1 Singlet|LZLZ|1.1 Singlet>    -0.000000000000
 !MCSCF expec      <2.1 Singlet|LZLZ|2.1 Singlet>    -0.000000000000
 !MCSCF expec      <3.1 Singlet|LZLZ|3.1 Singlet>     1.000113093954
 !MCSCF expec      <4.1 Singlet|LZLZ|4.1 Singlet>     3.811817831441
 !MCSCF expec      <5.1 Singlet|LZLZ|5.1 Singlet>     1.188058603430
 !MCSCF expec      <6.1 Singlet|LZLZ|6.1 Singlet>     0.020867166558
 !MCSCF expec      <7.1 Singlet|LZLZ|7.1 Singlet>     3.979143304617
 
 !MCSCF expec      <1.1 Triplet|L**2|1.1 Triplet>     0.000000000000
 !MCSCF expec      <2.1 Triplet|L**2|2.1 Triplet>     6.000000000000
 !MCSCF expec      <3.1 Triplet|L**2|3.1 Triplet>     6.000000000000
 !MCSCF expec      <4.1 Triplet|L**2|4.1 Triplet>     6.000000000000
 !MCSCF expec      <5.1 Triplet|L**2|5.1 Triplet>     6.000000000000
 !MCSCF expec      <6.1 Triplet|L**2|6.1 Triplet>     6.000000000000
 !MCSCF expec      <7.1 Triplet|L**2|7.1 Triplet>     2.000000000000
 !MCSCF expec      <8.1 Triplet|L**2|8.1 Triplet>     2.000000000000
 !MCSCF expec      <9.1 Triplet|L**2|9.1 Triplet>     2.000000000000
 !MCSCF expec      <1.1 Singlet|L**2|1.1 Singlet>    -0.000000000000
 !MCSCF expec      <2.1 Singlet|L**2|2.1 Singlet>    -0.000000000000
 !MCSCF expec      <3.1 Singlet|L**2|3.1 Singlet>     6.000000000000
 !MCSCF expec      <4.1 Singlet|L**2|4.1 Singlet>     6.000000000000
 !MCSCF expec      <5.1 Singlet|L**2|5.1 Singlet>     6.000000000000
 !MCSCF expec      <6.1 Singlet|L**2|6.1 Singlet>     6.000000000000
 !MCSCF expec      <7.1 Singlet|L**2|7.1 Singlet>     6.000000000000
 
 EXTRA SYMMETRY OF MOS IN SYMMETRY 1:   1 1 1 4 6 3 2 5 2 6   4 5 3 1 2 5 4 6 3 1   5 6 4 3 2 4 6 5 3 2   1 4 6 5 3 2 1 1
 EXTRA SYMMETRY OF MOS IN SYMMETRY 2:   3 1 2 3 2 1 3 2 1 1   2 3 6 810 5 4 9 7 3   2 1 5 4 810 6 9 7 1   2 3 5 4 8 9 710 6 1
                                        2 3
 
  NATURAL ORBITALS (STATE AVERAGED)
  =================================

  Orbital  Occupation    Energy    Cen Mu Typ  Coefficients
    1.1     2.00000    -1.92733     1  1  s    0.98700
    2.1     0.78213    -0.07958     1  2  s    1.03103
    3.1     0.13241     0.04066     1  2  s   -0.80418    1  3  s   -0.29312    1  8  s    1.42659
    4.1     0.12162     0.18181     1  1  d1+  1.22671    1  2  d1+ -0.33818    1  3  d1+ -0.28534
    5.1     0.12162     0.18181     1  1  d1-  1.22671    1  2  d1- -0.33818    1  3  d1- -0.28534
    6.1     0.12162     0.18181     1  1  d2-  1.22671    1  2  d2- -0.33818    1  3  d2- -0.28534
    7.1     0.12162     0.18181     1  1  d0   1.22671    1  2  d0  -0.33818    1  3  d0  -0.28534
    8.1     0.12162     0.18181     1  1  d2+  1.22671    1  2  d2+ -0.33818    1  3  d2+ -0.28534
    1.2     1.98125    -1.05579     1  1  pz   0.98328
    2.2     1.98125    -1.05579     1  1  px   0.98328
    3.2     1.98125    -1.05579     1  1  py   0.98328
    4.2     0.17787     0.04173     1  2  pz   0.95023
    5.2     0.17787     0.04173     1  2  py   0.95023
    6.2     0.17787     0.04173     1  2  px   0.95023
 
 Natural orbital dump (state averaged) at molpro section 2140.2 (Orbital set 2)
 
 Transform the CI vectors
 
 CI Coefficients of symmetry 1 (Triplet)
 =======================================

 State:                   1               2               3               4               5               6               7
 a0000a0 222000      0.00000000      0.00031035     -0.00041293     -0.00008785      0.00018019      0.98433960      0.00000000
 a00000a 222000     -0.00000000      0.00545204      0.00119798      0.00023885      0.98432388     -0.00018138     -0.00000000
 aa00000 222000      0.98373262     -0.00000000      0.00000000      0.00000000     -0.00000000     -0.00000000      0.00000000
 0000000 222a0a      0.00000000     -0.00000000      0.00000000      0.00000000      0.00000000     -0.00000000      0.26067731
 0000000 222aa0     -0.00000000      0.00000000      0.00000000     -0.00000000     -0.00000000      0.00000000      0.83919645
 0000000 2220aa     -0.00000000      0.00000000     -0.00000000      0.00000000      0.00000000     -0.00000000      0.43974888
 a00a000 222000     -0.00000000      0.67994028      0.70512115     -0.09689665     -0.00460074      0.00007362     -0.00000000
 a000a00 222000     -0.00000000      0.54283816     -0.42709736      0.70130748     -0.00265713     -0.00028724     -0.00000000
 a0a0000 222000      0.00000000     -0.46032910      0.53788024      0.68388854      0.00172921      0.00043149     -0.00000000
 
 Energy:           -30.29929740    -30.28883059    -30.28883059    -30.28883059    -30.28883059    -30.28883059    -30.25990781

 State:                   8               9
 a0000a0 222000      0.00000000      0.00000000
 a00000a 222000      0.00000000     -0.00000000
 aa00000 222000     -0.00000000     -0.00000000
 0000000 222a0a      0.91867282      0.23166785
 0000000 222aa0     -0.11236394     -0.49870440
 0000000 2220aa     -0.33014694      0.81437481
 a00a000 222000      0.00000000      0.00000000
 a000a00 222000     -0.00000000     -0.00000000
 a0a0000 222000     -0.00000000     -0.00000000
 
 Energy:           -30.25990781    -30.25990781
 
 
 CI Coefficients of symmetry 1 (Singlet)
 =======================================
 
 2000000 222000      0.93562642      0.14300980     -0.00000000      0.00000000      0.00000000      0.00000000     -0.00000000
 ab00000 222000     -0.10308524      0.65556539     -0.00000000      0.00000000      0.00000000      0.00000000     -0.00000000
 ba00000 222000      0.10308524     -0.65556539      0.00000000     -0.00000000     -0.00000000     -0.00000000      0.00000000
 b00a000 222000     -0.00000000     -0.00000000     -0.60688887     -0.00166455      0.00801646     -0.00016149      0.00089570
 a00b000 222000      0.00000000      0.00000000      0.60688887      0.00166455     -0.00801646      0.00016149     -0.00089570
 b00000a 222000      0.00000000      0.00000000     -0.00089576     -0.00030397     -0.00112087     -0.04380728     -0.60536000
 a00000b 222000     -0.00000000     -0.00000000      0.00089576      0.00030397      0.00112087      0.04380728      0.60536000
 b0000a0 222000      0.00000000      0.00000000      0.00018860     -0.00100546     -0.00302011     -0.60535300      0.04381259
 a0000b0 222000     -0.00000000     -0.00000000     -0.00018860      0.00100546      0.00302011      0.60535300     -0.04381259
 b000a00 222000      0.00000000      0.00000000      0.00361894     -0.58760069      0.15196792      0.00021839     -0.00000749
 a000b00 222000     -0.00000000     -0.00000000     -0.00361894      0.58760069     -0.15196792     -0.00021839      0.00000749
 b0a0000 222000     -0.00000000      0.00000000     -0.00734357     -0.15199842     -0.58754836      0.00324948      0.00093993
 a0b0000 222000      0.00000000     -0.00000000      0.00734357      0.15199842      0.58754836     -0.00324948     -0.00093993
 0000000 222200     -0.15154247     -0.00462216      0.00012099     -0.00064502     -0.00193747     -0.38834876      0.02810685
 0000000 222002     -0.15154247     -0.00462216     -0.00055816      0.00015363      0.00034601      0.16983609     -0.35037721
 0000000 222ab0      0.00000000     -0.00000000     -0.33717319     -0.00092479      0.00445376     -0.00008972      0.00049763
 0000000 222ba0     -0.00000000      0.00000000      0.33717319      0.00092479     -0.00445376      0.00008972     -0.00049763
 0000000 2220ab     -0.00000000      0.00000000      0.00201060     -0.32645713      0.08442981      0.00012133     -0.00000416
 0000000 2220ba      0.00000000     -0.00000000     -0.00201060      0.32645713     -0.08442981     -0.00012133      0.00000416
 0000000 222b0a     -0.00000000     -0.00000000      0.00407992      0.08444675      0.32642805     -0.00180533     -0.00052220
 0000000 222a0b      0.00000000      0.00000000     -0.00407992     -0.08444675     -0.32642805      0.00180533      0.00052220
 0000000 222020     -0.15154247     -0.00462216      0.00043717      0.00049139      0.00159147      0.21851268      0.32227036
 0200000 222000     -0.00653541     -0.29181481      0.00000000     -0.00000000     -0.00000000     -0.00000000      0.00000000
 0a0b000 222000      0.00000000      0.00000000      0.05108668      0.00014012     -0.00067481      0.00001359     -0.00007540
 0b0a000 222000     -0.00000000     -0.00000000     -0.05108668     -0.00014012      0.00067481     -0.00001359      0.00007540
 0a0000b 222000      0.00000000     -0.00000000      0.00007540      0.00002559      0.00009435      0.00368761      0.05095799
 0b0000a 222000     -0.00000000      0.00000000     -0.00007540     -0.00002559     -0.00009435     -0.00368761     -0.05095799
 0a000b0 222000      0.00000000     -0.00000000     -0.00001588      0.00008464      0.00025423      0.05095740     -0.00368806
 0b000a0 222000     -0.00000000      0.00000000      0.00001588     -0.00008464     -0.00025423     -0.05095740      0.00368806
 
 Energy:           -30.43326777    -30.28758221    -30.28735424    -30.28735424    -30.28735424    -30.28735424    -30.28735424
 


 **********************************************************************************************************************************
 DATASETS  * FILE   NREC   LENGTH (MB)   RECORD NAMES
              1      21       32.76       500      610      700      900      950      970     1000      129      960     1100   
                                          VAR    BASINP    GEOM    SYMINP    ZMAT    AOBASIS   BASIS     P2S    ABASIS      S 
                                         1400     1410     1420     1200     1210     1080     1700     1600     1650     1380   
                                           T        V       ECP      H0       H01     AOSYM    OPER      SMH    MOLCAS    JKOP   
                                         1700(1)
                                         OPER   

              2       5        0.62       700     1000      520     2100     2140   
                                         GEOM     BASIS   MCVARS     RHF     MCSCF   

 PROGRAMS   *        TOTAL     MULTI   RHF-SCF       INT
 CPU TIMES  *        80.26     79.28      0.02      0.73
 REAL TIME  *        88.71 SEC
 DISK USED  *        33.43 MB (local),      603.56 MB (total)
 SF USED    *        40.89 MB
 GA USED    *         0.00 MB       (max)       0.00 MB       (current)
 **********************************************************************************************************************************

 Energies and &lt;L**2&gt; values

        ENERGY      LL
    -30.29929740   0.0
    -30.28883059   6.0
    -30.28883059   6.0
    -30.28883059   6.0
    -30.28883059   6.0
    -30.28883059   6.0
    -30.25990781   2.0
    -30.25990781   2.0
    -30.25990781   2.0
    -30.43326777  -0.0
    -30.28758221  -0.0
    -30.28735424   6.0
    -30.28735424   6.0
    -30.28735424   6.0
    -30.28735424   6.0
    -30.28735424   6.0
                                                  


 PROGRAM * CI (Multireference internally contracted CI)     Authors: H.-J. Werner, P.J. Knowles, 1987


 Convergence thresholds:  THRVAR = 1.00D-08  THRDEN = 1.00D-06

 Number of optimized states: 9  Roots:    1   2   3   4   5   6   7   8   9
 Number of reference states: 9  Roots:    1   2   3   4   5   6   7   8   9

 Reference symmetry:                   1   Triplet 
 Number of electrons:                 10
 Maximum number of shells:             5
 Maximum number of spin couplings:    90

 Reference space:    25667 conf   117012 CSFs
 N elec internal:   268268 conf  1756755 CSFs
 N-1 el internal:   167853 conf  1691375 CSFs
 N-2 el internal:    66136 conf  1047135 CSFs

 Number of electrons in valence space:                     10
 Maximum number of open shell orbitals in reference space:  8
 Maximum number of open shell orbitals in internal spaces: 10


 Number of closed-shell orbitals:   1 (   1   0 )
 Number of active  orbitals:       13 (   7   6 )
 Number of external orbitals:      66 (  30  36 )

 Molecular orbitals read from record     2140.2  Type=MCSCF/NATURAL (state averaged)

 Valence orbitals related to previous ones by unitary transformation. Operators transformed.


 Number of p-space configurations:  24

 Reference wavefunction optimized for reference space (refopt=1)

 State     Reference Energy 
     1       -30.29929740
     2       -30.28883059
     3       -30.28883059
     4       -30.28883059
     5       -30.28883059
     6       -30.28883059
     7       -30.25990781
     8       -30.25990781
     9       -30.25990781

 Number of blocks in overlap matrix:    25   Smallest eigenvalue:  0.14D-05
 Number of N-2 electron functions:    1764
 Number of N-1 electron functions: 1691375

 Number of internal configurations:               878115
 Number of singly external configurations:      55814850
 Number of doubly external configurations:       1925478
 Total number of contracted configurations:     58618443
 Total number of uncontracted configurations: 1192057920

 Diagonal Coupling coefficients finished.               Storage:******** words, CPU-Time:  11995.69 seconds.
 Energy denominators for pairs finished in 1 passes.    Storage: 1989860 words, CPU-time:      0.06 seconds.

  ITER. STATE  ROOT     SQ.NORM     CORR.ENERGY   TOTAL ENERGY   ENERGY CHANGE       DEN1      VAR(S)    VAR(P)      TIME
    1     1     1     1.00000000     0.00000000   -30.29929740    -0.00000000    -0.13956144  0.37D-01  0.96D-02 12243.98
    1     2     2     1.00000000     0.00000000   -30.28883059    -0.00000000    -0.18001571  0.66D-01  0.12D-01 12243.98
    1     3     3     1.00000000     0.00000000   -30.28883059     0.00000000    -0.18003321  0.66D-01  0.12D-01 12243.98
    1     4     4     1.00000000     0.00000000   -30.28883059     0.00000000    -0.17981200  0.66D-01  0.12D-01 12243.98
    1     5     5     1.00000000     0.00000000   -30.28883059     0.00000000    -0.17976755  0.66D-01  0.12D-01 12243.98
    1     6     6     1.00000000     0.00000000   -30.28883059     0.00000000    -0.17985008  0.66D-01  0.12D-01 12243.98
    1     7     7     1.00000000     0.00000000   -30.25990781     0.00000000    -0.13849684  0.34D-01  0.96D-02 12243.98
    1     8     8     1.00000000     0.00000000   -30.25990781     0.00000000    -0.13849511  0.34D-01  0.96D-02 12243.98
    1     9     9     1.00000000     0.00000000   -30.25990781    -0.00000000    -0.13852473  0.34D-01  0.96D-02 12243.98
    2     1     1     1.07635875    -0.17041758   -30.46971498    -0.17041758    -0.01110824  0.35D-02  0.99D-03 22046.58
    2     2     2     1.07634780    -0.18087351   -30.46970410    -0.18087351    -0.01111866  0.35D-02  0.99D-03 22046.58
    2     3     3     1.07641924    -0.18081583   -30.46964642    -0.18081583    -0.01118621  0.36D-02  0.10D-02 22046.58
    2     4     4     1.07639606    -0.18080746   -30.46963805    -0.18080746    -0.01117944  0.36D-02  0.10D-02 22046.58
    2     5     5     1.07637566    -0.18079357   -30.46962416    -0.18079357    -0.01119334  0.36D-02  0.10D-02 22046.58
    2     6     6     1.04944019    -0.15666089   -30.44549147    -0.15666089    -0.00616909  0.12D-02  0.68D-03 22046.58
    2     7     7     1.04587008    -0.14493706   -30.40484488    -0.14493706    -0.00623303  0.10D-02  0.74D-03 22046.58
    2     8     8     1.04589058    -0.14493051   -30.40483833    -0.14493051    -0.00623599  0.10D-02  0.74D-03 22046.58
    2     9     9     1.04589042    -0.14493006   -30.40483788    -0.14493006    -0.00623628  0.10D-02  0.74D-03 22046.58
    3     1     1     1.09720829    -0.18307362   -30.48237103    -0.01265605    -0.00199289  0.14D-02  0.14D-03 31871.38
    3     2     2     1.09719215    -0.19353919   -30.48236978    -0.01266568    -0.00199397  0.14D-02  0.14D-03 31871.38
    3     3     3     1.09720396    -0.19353916   -30.48236975    -0.01272333    -0.00199342  0.14D-02  0.14D-03 31871.38
    3     4     4     1.09723080    -0.19353768   -30.48236827    -0.01273022    -0.00199679  0.14D-02  0.14D-03 31871.38
    3     5     5     1.09720728    -0.19353489   -30.48236548    -0.01274132    -0.00199808  0.14D-02  0.14D-03 31871.38
    3     6     6     1.05527368    -0.16313877   -30.45196936    -0.00647788    -0.00065897  0.41D-03  0.44D-04 31871.38
    3     7     7     1.04903554    -0.15152720   -30.41143501    -0.00659014    -0.00090831  0.50D-03  0.10D-03 31871.38
    3     8     8     1.04904145    -0.15152145   -30.41142926    -0.00659094    -0.00090971  0.50D-03  0.10D-03 31871.38
    3     9     9     1.04904135    -0.15152143   -30.41142924    -0.00659136    -0.00090968  0.50D-03  0.10D-03 31871.38
    4     1     1     1.12909937    -0.18607368   -30.48537109    -0.00300006    -0.00055929  0.17D-03  0.51D-04 41671.88
    4     2     2     1.12909182    -0.19654016   -30.48537075    -0.00300097    -0.00055938  0.17D-03  0.51D-04 41671.88
    4     3     3     1.12898685    -0.19653708   -30.48536767    -0.00299792    -0.00055989  0.17D-03  0.51D-04 41671.88
    4     4     4     1.12897099    -0.19653631   -30.48536690    -0.00299863    -0.00056035  0.17D-03  0.51D-04 41671.88
    4     5     5     1.12895326    -0.19653546   -30.48536605    -0.00300057    -0.00056150  0.18D-03  0.51D-04 41671.88
    4     6     6     1.06256758    -0.16396873   -30.45279931    -0.00082996    -0.00012804  0.51D-04  0.97D-05 41671.88
    4     7     7     1.05851574    -0.15312251   -30.41303032    -0.00159531    -0.00052030  0.13D-03  0.64D-04 41671.88
    4     8     8     1.05853499    -0.15311995   -30.41302776    -0.00159850    -0.00052187  0.13D-03  0.65D-04 41671.88
    4     9     9     1.05853484    -0.15311990   -30.41302772    -0.00159848    -0.00052190  0.13D-03  0.65D-04 41671.88
    5     1     1     1.14100229    -0.18679243   -30.48608983    -0.00071874    -0.00014644  0.67D-04  0.14D-04 51506.87
    5     2     2     1.14100080    -0.19725920   -30.48608979    -0.00071904    -0.00014649  0.67D-04  0.14D-04 51506.87
    5     3     3     1.14097525    -0.19725857   -30.48608916    -0.00072149    -0.00014715  0.67D-04  0.14D-04 51506.87
    5     4     4     1.14098263    -0.19725838   -30.48608897    -0.00072207    -0.00014724  0.67D-04  0.14D-04 51506.87
    5     5     5     1.14097050    -0.19725828   -30.48608887    -0.00072282    -0.00014728  0.67D-04  0.14D-04 51506.87
    5     6     6     1.06560063    -0.16412097   -30.45295156    -0.00015224    -0.00002148  0.60D-05  0.21D-05 51506.87
    5     7     7     1.06697594    -0.15404232   -30.41395013    -0.00091981    -0.00026418  0.45D-04  0.33D-04 51506.87
    5     8     8     1.06699114    -0.15404198   -30.41394979    -0.00092203    -0.00026434  0.45D-04  0.33D-04 51506.87
    5     9     9     1.06699052    -0.15404195   -30.41394976    -0.00092204    -0.00026434  0.45D-04  0.33D-04 51506.87
    6     1     1     1.14563464    -0.18698998   -30.48628739    -0.00019756    -0.00005605  0.22D-04  0.58D-05 61320.05
    6     2     2     1.14563560    -0.19745678   -30.48628736    -0.00019757    -0.00005606  0.22D-04  0.58D-05 61320.05
    6     3     3     1.14562739    -0.19745663   -30.48628722    -0.00019806    -0.00005606  0.22D-04  0.58D-05 61320.05
    6     4     4     1.14562284    -0.19745652   -30.48628710    -0.00019813    -0.00005610  0.22D-04  0.58D-05 61320.05
    6     5     5     1.14561475    -0.19745643   -30.48628701    -0.00019814    -0.00005608  0.22D-04  0.58D-05 61320.05
    6     6     6     1.06628866    -0.16414550   -30.45297609    -0.00002453    -0.00000432  0.17D-05  0.45D-06 61320.05
    6     7     7     1.06902814    -0.15436582   -30.41427363    -0.00032350    -0.00008316  0.22D-04  0.11D-04 61320.05
    6     8     8     1.06903424    -0.15436546   -30.41427328    -0.00032348    -0.00008316  0.22D-04  0.12D-04 61320.05
    6     9     9     1.06903392    -0.15436544   -30.41427326    -0.00032349    -0.00008316  0.22D-04  0.12D-04 61320.05
    7     1     1     1.14924590    -0.18706957   -30.48636698    -0.00007959    -0.00002885  0.76D-05  0.28D-05 71137.60
    7     2     2     1.14924513    -0.19753638   -30.48636697    -0.00007960    -0.00002885  0.76D-05  0.28D-05 71137.60
    7     3     3     1.14923735    -0.19753624   -30.48636683    -0.00007961    -0.00002889  0.77D-05  0.28D-05 71137.60
    7     4     4     1.14923456    -0.19753617   -30.48636676    -0.00007966    -0.00002891  0.77D-05  0.28D-05 71137.60
    7     5     5     1.14923599    -0.19753614   -30.48636673    -0.00007971    -0.00002897  0.77D-05  0.28D-05 71137.60
    7     6     6     1.06675637    -0.16415109   -30.45298168    -0.00000559    -0.00000160  0.30D-06  0.19D-06 71137.60
    7     7     7     1.07154179    -0.15448711   -30.41439493    -0.00012130    -0.00005514  0.13D-04  0.70D-05 71137.60
    7     8     8     1.07155190    -0.15448693   -30.41439474    -0.00012146    -0.00005531  0.13D-04  0.70D-05 71137.60
    7     9     9     1.07155158    -0.15448691   -30.41439472    -0.00012147    -0.00005532  0.13D-04  0.70D-05 71137.60
    8     1     1     1.15050790    -0.18710403   -30.48640143    -0.00003445    -0.00001237  0.48D-05  0.13D-05 80955.68
    8     2     2     1.15050760    -0.19757084   -30.48640143    -0.00003446    -0.00001238  0.48D-05  0.13D-05 80955.68
    8     3     3     1.15050495    -0.19757079   -30.48640137    -0.00003455    -0.00001242  0.48D-05  0.13D-05 80955.68
    8     4     4     1.15050358    -0.19757074   -30.48640133    -0.00003457    -0.00001243  0.48D-05  0.13D-05 80955.68
    8     5     5     1.15050356    -0.19757073   -30.48640132    -0.00003459    -0.00001243  0.48D-05  0.13D-05 80955.68
    8     6     6     1.06690105    -0.16415323   -30.45298381    -0.00000213    -0.00000077  0.22D-06  0.84D-07 80955.68
    8     7     7     1.07321302    -0.15457009   -30.41447790    -0.00008298    -0.00003572  0.78D-05  0.38D-05 80955.68
    8     8     8     1.07321796    -0.15457006   -30.41447787    -0.00008313    -0.00003571  0.77D-05  0.38D-05 80955.68
    8     9     9     1.07321759    -0.15457005   -30.41447786    -0.00008314    -0.00003572  0.77D-05  0.38D-05 80955.68
    9     1     1     1.15151552    -0.18711946   -30.48641686    -0.00001543    -0.00000594  0.13D-05  0.73D-06 90785.03
    9     2     2     1.15151596    -0.19758628   -30.48641686    -0.00001543    -0.00000594  0.13D-05  0.73D-06 90785.03
    9     3     3     1.15151212    -0.19758626   -30.48641684    -0.00001547    -0.00000595  0.13D-05  0.73D-06 90785.03
    9     4     4     1.15151054    -0.19758622   -30.48641681    -0.00001548    -0.00000595  0.13D-05  0.73D-06 90785.03
    9     5     5     1.15150670    -0.19758621   -30.48641680    -0.00001548    -0.00000595  0.13D-05  0.73D-06 90785.03
    9     6     6     1.06692520    -0.16415415   -30.45298474    -0.00000093    -0.00000035  0.81D-07  0.42D-07 90785.03
    9     7     7     1.07415570    -0.15461250   -30.41452031    -0.00004241    -0.00001359  0.28D-05  0.18D-05 90785.03
    9     8     8     1.07415848    -0.15461246   -30.41452028    -0.00004240    -0.00001358  0.28D-05  0.18D-05 90785.03
    9     9     9     1.07415834    -0.15461246   -30.41452027    -0.00004241    -0.00001358  0.28D-05  0.18D-05 90785.03
   10     1     1     1.15224158    -0.18712785   -30.48642525    -0.00000839    -0.00000368  0.89D-06  0.39D-06100578.62
   10     2     2     1.15224121    -0.19759467   -30.48642525    -0.00000839    -0.00000368  0.89D-06  0.39D-06100578.62
   10     3     3     1.15223833    -0.19759465   -30.48642524    -0.00000839    -0.00000368  0.89D-06  0.39D-06100578.62
   10     4     4     1.15223809    -0.19759462   -30.48642521    -0.00000840    -0.00000369  0.89D-06  0.39D-06100578.62
   10     5     5     1.15223978    -0.19759462   -30.48642521    -0.00000841    -0.00000369  0.89D-06  0.39D-06100578.62
   10     6     6     1.06694594    -0.16415461   -30.45298520    -0.00000046    -0.00000019  0.51D-07  0.22D-07100578.62
   10     7     7     1.07515601    -0.15463175   -30.41453956    -0.00001925    -0.00000936  0.20D-05  0.12D-05100578.62
   10     8     8     1.07515988    -0.15463173   -30.41453954    -0.00001926    -0.00000938  0.21D-05  0.12D-05100578.62
   10     9     9     1.07515970    -0.15463172   -30.41453954    -0.00001926    -0.00000938  0.21D-05  0.12D-05100578.62
   11     1     1     1.15242827    -0.18713221   -30.48642961    -0.00000436    -0.00000185  0.65D-06  0.21D-06110380.99
   11     2     2     1.15242830    -0.19759902   -30.48642961    -0.00000436    -0.00000185  0.65D-06  0.21D-06110380.99
   11     3     3     1.15242738    -0.19759902   -30.48642960    -0.00000437    -0.00000185  0.66D-06  0.21D-06110380.99
   11     4     4     1.15242704    -0.19759899   -30.48642958    -0.00000437    -0.00000186  0.66D-06  0.21D-06110380.99
   11     5     5     1.15242757    -0.19759899   -30.48642958    -0.00000437    -0.00000186  0.66D-06  0.21D-06110380.99
   11     6     6     1.06692215    -0.16415486   -30.45298545    -0.00000025    -0.00000011  0.33D-07  0.12D-07110380.99
   11     7     7     1.07575092    -0.15464529   -30.41455310    -0.00001354    -0.00000666  0.18D-05  0.65D-06110380.99
   11     8     8     1.07575329    -0.15464528   -30.41455310    -0.00001356    -0.00000665  0.17D-05  0.65D-06110380.99
   11     9     9     1.07575310    -0.15464528   -30.41455310    -0.00001356    -0.00000665  0.17D-05  0.65D-06110380.99
   12     1     1     1.15272310    -0.18713441   -30.48643181    -0.00000220    -0.00000095  0.21D-06  0.12D-06120180.10
   12     2     2     1.15272286    -0.19760122   -30.48643181    -0.00000220    -0.00000095  0.21D-06  0.12D-06120180.10
   12     3     3     1.15272210    -0.19760122   -30.48643181    -0.00000220    -0.00000095  0.21D-06  0.12D-06120180.10
   12     4     4     1.15272135    -0.19760120   -30.48643179    -0.00000221    -0.00000095  0.21D-06  0.12D-06120180.10
   12     5     5     1.15272009    -0.19760120   -30.48643179    -0.00000221    -0.00000095  0.21D-06  0.12D-06120180.10
   12     6     6     1.06692296    -0.16415499   -30.45298558    -0.00000013    -0.00000006  0.16D-07  0.65D-08120180.10
   12     7     7     1.07616947    -0.15465289   -30.41456070    -0.00000760    -0.00000269  0.51D-06  0.36D-06120180.10
   12     8     8     1.07617132    -0.15465288   -30.41456070    -0.00000760    -0.00000269  0.50D-06  0.36D-06120180.10
   12     9     9     1.07617127    -0.15465288   -30.41456070    -0.00000760    -0.00000269  0.50D-06  0.36D-06120180.10
   13     1     1     1.15291662    -0.18713572   -30.48643312    -0.00000131    -0.00000062  0.16D-06  0.65D-07129984.06
   13     2     2     1.15291643    -0.19760253   -30.48643312    -0.00000131    -0.00000062  0.16D-06  0.65D-07129984.06
   13     3     3     1.15291567    -0.19760253   -30.48643312    -0.00000131    -0.00000062  0.16D-06  0.65D-07129984.06
   13     4     4     1.15291666    -0.19760251   -30.48643310    -0.00000131    -0.00000062  0.16D-06  0.65D-07129984.06
   13     5     5     1.15291576    -0.19760251   -30.48643310    -0.00000131    -0.00000062  0.16D-06  0.65D-07129984.06
   13     6     6     1.06693091    -0.16415506   -30.45298565    -0.00000007    -0.00000003  0.99D-08  0.37D-08129984.06
   13     7     7     1.07655134    -0.15465665   -30.41456447    -0.00000376    -0.00000187  0.39D-06  0.24D-06129984.06
   13     8     8     1.07655278    -0.15465665   -30.41456446    -0.00000377    -0.00000187  0.39D-06  0.24D-06129984.06
   13     9     9     1.07655268    -0.15465665   -30.41456446    -0.00000377    -0.00000187  0.39D-06  0.24D-06129984.06
   14     1     1     1.15294788    -0.18713645   -30.48643385    -0.00000073    -0.00000033  0.11D-06  0.37D-07139780.72
   14     2     2     1.15294789    -0.19760326   -30.48643385    -0.00000073    -0.00000033  0.11D-06  0.37D-07139780.72
   14     3     3     1.15294750    -0.19760326   -30.48643385    -0.00000073    -0.00000033  0.11D-06  0.37D-07139780.72
   14     4     4     1.15294754    -0.19760324   -30.48643383    -0.00000073    -0.00000033  0.11D-06  0.37D-07139780.72
   14     5     5     1.15294737    -0.19760324   -30.48643383    -0.00000073    -0.00000033  0.11D-06  0.37D-07139780.72
   14     6     6     1.06691968    -0.16415510   -30.45298569    -0.00000004    -0.00000002  0.61D-08  0.21D-08139780.72
   14     7     7     1.07675691    -0.15465932   -30.41456714    -0.00000267    -0.00000140  0.42D-06  0.13D-06139780.72
   14     8     8     1.07675784    -0.15465932   -30.41456714    -0.00000267    -0.00000140  0.42D-06  0.13D-06139780.72
   14     9     9     1.07675775    -0.15465932   -30.41456714    -0.00000267    -0.00000140  0.42D-06  0.13D-06139780.72
   15     1     1     1.15305624    -0.18713682   -30.48643423    -0.00000038    -0.00000017  0.43D-07  0.21D-07149485.86
   15     2     2     1.15305613    -0.19760364   -30.48643423    -0.00000038    -0.00000017  0.43D-07  0.21D-07149485.86
   15     3     3     1.15305584    -0.19760364   -30.48643423    -0.00000038    -0.00000017  0.43D-07  0.21D-07149485.86
   15     4     4     1.15305494    -0.19760362   -30.48643421    -0.00000038    -0.00000017  0.43D-07  0.21D-07149485.86
   15     5     5     1.15305550    -0.19760362   -30.48643421    -0.00000038    -0.00000017  0.43D-07  0.21D-07149485.86
   15     6     6     1.06691968    -0.16415510   -30.45298569    -0.00000000    -0.00000002  0.61D-08  0.21D-08149485.86
   15     7     7     1.07758893    -0.15466286   -30.41457067    -0.00000353    -0.00000020  0.46D-07  0.15D-07149485.86
   15     8     8     1.07695056    -0.15466087   -30.41456869    -0.00000155    -0.00000058  0.11D-06  0.76D-07149485.86
   15     9     9     1.07695155    -0.15466087   -30.41456869    -0.00000155    -0.00000058  0.11D-06  0.76D-07149485.86
   16     1     1     1.15312268    -0.18713706   -30.48643446    -0.00000023    -0.00000011  0.32D-07  0.12D-07159197.94
   16     2     2     1.15312277    -0.19760387   -30.48643446    -0.00000023    -0.00000011  0.32D-07  0.12D-07159197.94
   16     3     3     1.15312246    -0.19760387   -30.48643446    -0.00000023    -0.00000011  0.32D-07  0.12D-07159197.94
   16     4     4     1.15312308    -0.19760386   -30.48643444    -0.00000023    -0.00000011  0.32D-07  0.12D-07159197.94
   16     5     5     1.15312255    -0.19760385   -30.48643444    -0.00000023    -0.00000011  0.32D-07  0.12D-07159197.94
   16     6     6     1.06691968    -0.16415510   -30.45298569    -0.00000000    -0.00000002  0.61D-08  0.21D-08159197.94
   16     7     7     1.07756995    -0.15466303   -30.41457084    -0.00000017    -0.00000001  0.13D-08  0.25D-08159197.94
   16     8     8     1.07754507    -0.15466293   -30.41457074    -0.00000205    -0.00000016  0.40D-07  0.84D-08159197.94
   16     9     9     1.07711172    -0.15466168   -30.41456949    -0.00000081    -0.00000040  0.82D-07  0.51D-07159197.94
   17     1     1     1.15313092    -0.18713719   -30.48643459    -0.00000013    -0.00000006  0.21D-07  0.71D-08168844.15
   17     2     2     1.15313093    -0.19760401   -30.48643459    -0.00000013    -0.00000006  0.21D-07  0.71D-08168844.15
   17     3     3     1.15313079    -0.19760401   -30.48643459    -0.00000013    -0.00000006  0.21D-07  0.71D-08168844.15
   17     4     4     1.15313078    -0.19760399   -30.48643458    -0.00000013    -0.00000006  0.21D-07  0.71D-08168844.15
   17     5     5     1.15313072    -0.19760399   -30.48643458    -0.00000013    -0.00000006  0.21D-07  0.71D-08168844.15
   17     6     6     1.06691968    -0.16415510   -30.45298569    -0.00000000    -0.00000002  0.61D-08  0.21D-08168844.15
   17     7     7     1.07755984    -0.15466306   -30.41457087    -0.00000003    -0.00000001  0.91D-09  0.14D-08168844.15
   17     8     8     1.07757004    -0.15466303   -30.41457084    -0.00000010    -0.00000001  0.13D-08  0.25D-08168844.15
   17     9     9     1.07719017    -0.15466225   -30.41457006    -0.00000057    -0.00000031  0.10D-06  0.29D-07168844.15
   18     1     1     1.15317453    -0.18713726   -30.48643467    -0.00000007    -0.00000003  0.92D-08  0.40D-08178433.23
   18     2     2     1.15317448    -0.19760408   -30.48643467    -0.00000007    -0.00000003  0.92D-08  0.40D-08178433.23
   18     3     3     1.15317435    -0.19760408   -30.48643467    -0.00000007    -0.00000003  0.92D-08  0.41D-08178433.23
   18     4     4     1.15317392    -0.19760406   -30.48643465    -0.00000007    -0.00000003  0.91D-08  0.41D-08178433.23
   18     5     5     1.15317417    -0.19760406   -30.48643465    -0.00000007    -0.00000003  0.92D-08  0.41D-08178433.23
   18     6     6     1.06691968    -0.16415510   -30.45298569    -0.00000000    -0.00000002  0.61D-08  0.21D-08178433.23
   18     7     7     1.07756952    -0.15466306   -30.41457087    -0.00000000    -0.00000003  0.71D-08  0.21D-08178433.23
   18     8     8     1.07755989    -0.15466306   -30.41457087    -0.00000003    -0.00000001  0.90D-09  0.14D-08178433.23
   18     9     9     1.07757004    -0.15466303   -30.41457084    -0.00000078    -0.00000001  0.13D-08  0.25D-08178433.23
   19     1     1     1.15325585    -0.18713736   -30.48643476    -0.00000010    -0.00000001  0.17D-08  0.21D-09187948.63
   19     2     2     1.15325585    -0.19760418   -30.48643476    -0.00000010    -0.00000001  0.17D-08  0.21D-09187948.63
   19     3     3     1.15325589    -0.19760418   -30.48643476    -0.00000010    -0.00000001  0.17D-08  0.21D-09187948.63
   19     4     4     1.15325600    -0.19760416   -30.48643475    -0.00000010    -0.00000001  0.17D-08  0.20D-09187948.63
   19     5     5     1.15325590    -0.19760416   -30.48643475    -0.00000010    -0.00000001  0.17D-08  0.21D-09187948.63
   19     6     6     1.06691968    -0.16415510   -30.45298569    -0.00000000    -0.00000002  0.61D-08  0.21D-08187948.63
   19     7     7     1.07756955    -0.15466306   -30.41457087    -0.00000000    -0.00000003  0.70D-08  0.21D-08187948.63
   19     8     8     1.07755990    -0.15466306   -30.41457087    -0.00000000    -0.00000001  0.90D-09  0.14D-08187948.63
   19     9     9     1.07757004    -0.15466303   -30.41457084    -0.00000000    -0.00000001  0.13D-08  0.25D-08187948.63


 =====================================
 Analysis of CPU times by interactions
 =====================================

       I      S      P

 I   0.3%
 S   0.4%   1.5%
 P   1.2%  20.0%  69.9%

 Initialization:   6.4%
 Other:            0.3%

 Total CPU:   187948.6 seconds
 =====================================



 Wavefunction saved on  5203.2

 Reference coefficients greater than 0.0500000
 =============================================
 2//00000222000           0.0000000   0.0000000  -0.0000000  -0.0000000  -0.0000000   0.9539604  -0.0000000   0.0000000
                         -0.0000000
 20000000222//0           0.0000000   0.0000000  -0.0000000   0.0000000   0.0000000  -0.0000000  -0.0000000   0.9355226
                         -0.0000000
 200000002220//           0.0000000  -0.0000000   0.0000000  -0.0000000  -0.0000000   0.0000000   0.9355202   0.0000000
                         -0.0000000
 20000000222/0/          -0.0000000  -0.0000000   0.0000000   0.0000000   0.0000000   0.0000000   0.0000000   0.0000000
                          0.9355135
 2/0/0000222000           0.0000000   0.9180722  -0.0000000  -0.0000210  -0.0000236  -0.0000000   0.0000000  -0.0000000
                         -0.0000000
 2/00/000222000           0.9180621  -0.0000000  -0.0043001  -0.0000000  -0.0000000  -0.0000000   0.0000000  -0.0000000
                          0.0000000
 2/000/00222000           0.0043001   0.0000000   0.9180621   0.0000000  -0.0000000   0.0000000   0.0000000   0.0000000
                         -0.0000000
 2/00000/222000           0.0000000   0.0000223   0.0000000  -0.0547976   0.9164353   0.0000000   0.0000000  -0.0000000
                          0.0000000
 2/0000/0222000           0.0000000   0.0000224  -0.0000000   0.9164353   0.0547976  -0.0000000   0.0000000  -0.0000000
                         -0.0000000
 20000/0/222000           0.0000000   0.0000000   0.0000000   0.0000000   0.0000000  -0.0000000  -0.1461798  -0.0000000
                          0.0000000
 200/00/0222000          -0.0000000  -0.0000000   0.0000000  -0.0000000  -0.0000000  -0.0000000  -0.0000000   0.0000000
                          0.1266211
 2000/0/0222000          -0.0000000   0.0000000   0.0000000   0.0000000   0.0000000   0.0000000   0.0000000   0.1266032
                          0.0000000
 2000//00222000           0.0000000  -0.0000000  -0.0000000   0.0000000  -0.0000000   0.0000000  -0.0000000  -0.0000000
                         -0.0731048
 200/000/222000           0.0000000  -0.0000000  -0.0000000   0.0000000  -0.0000000   0.0000000  -0.0000000  -0.0000000
                         -0.0731048
 200/0/00222000           0.0000000  -0.0000000   0.0000000  -0.0000000  -0.0000000  -0.0000000  -0.0000000  -0.0730944
                         -0.0000000
 2000/00/222000           0.0000000   0.0000000   0.0000000   0.0000000   0.0000000   0.0000000   0.0000000   0.0730944
                          0.0000000
 200//000222000          -0.0000000  -0.0000000   0.0000000  -0.0000000  -0.0000000   0.0000000   0.0730899   0.0000000
                         -0.0000000

 Coefficients of singly external configurations greater than 0.0500000
 =====================================================================

 2/000000222000  23.1    -0.0000000   0.1982411   0.0000000  -0.0000045  -0.0000051  -0.0000000  -0.0000000   0.0000000
                          0.0000001
 2/000000222000  24.1     0.0009285  -0.0000000   0.1982389   0.0000000   0.0000000   0.0000000  -0.0000000  -0.0000000
                         -0.0000000
 2/000000222000  22.1     0.1982389  -0.0000000  -0.0009285   0.0000000  -0.0000000  -0.0000000   0.0000000   0.0000002
                         -0.0000000
 2/000000222000  25.1     0.0000000   0.0000048  -0.0000000   0.1978878   0.0118326   0.0000001  -0.0000000   0.0000000
                         -0.0000000
 2/000000222000  21.1     0.0000000   0.0000048  -0.0000000  -0.0118326   0.1978877   0.0000000  -0.0000000   0.0000000
                          0.0000000
 2/000000222000  17.1     0.0000000   0.1598703  -0.0000000  -0.0000037  -0.0000041  -0.0000000   0.0000000   0.0000000
                         -0.0000000
 2/000000222000  19.1     0.0007488   0.0000000   0.1598686  -0.0000000  -0.0000000   0.0000000  -0.0000000  -0.0000000
                          0.0000000
 2/000000222000  18.1     0.1598686  -0.0000000  -0.0007488   0.0000000  -0.0000000   0.0000000  -0.0000000   0.0000000
                         -0.0000000
 2/000000222000  15.1    -0.0000000   0.0000039  -0.0000000   0.1595855   0.0095423  -0.0000000  -0.0000000   0.0000000
                          0.0000000
 2/000000222000  16.1     0.0000000   0.0000039   0.0000000  -0.0095423   0.1595854  -0.0000000  -0.0000000   0.0000000
                         -0.0000000
 2/000000222000  26.1     0.0000000  -0.1029341  -0.0000000   0.0000024   0.0000026  -0.0000000  -0.0000000  -0.0000000
                          0.0000000
 2/000000222000  29.1    -0.0004821   0.0000000  -0.1029330  -0.0000000  -0.0000000  -0.0000000  -0.0000000  -0.0000000
                          0.0000000
 2/000000222000  27.1    -0.1029329   0.0000000   0.0004821   0.0000000   0.0000000   0.0000000   0.0000000  -0.0000001
                         -0.0000000
 2/000000222000  30.1    -0.0000000  -0.0000025  -0.0000000  -0.1027506  -0.0061439  -0.0000001  -0.0000000   0.0000000
                          0.0000000
 2/000000222000  28.1    -0.0000000  -0.0000025   0.0000000   0.0061439  -0.1027506  -0.0000000  -0.0000000  -0.0000000
                         -0.0000000
 20/00000222000  20.1    -0.0000000  -0.0000000   0.0000000   0.0000000   0.0000000  -0.0913316   0.0000000   0.0000000
                          0.0000000
 20/00000222000  14.1     0.0000000   0.0000000  -0.0000000   0.0000000   0.0000000   0.0734926  -0.0000000  -0.0000000
                          0.0000000
 2000000/222000  19.1    -0.0000000   0.0000000  -0.0000000  -0.0000000  -0.0000000   0.0000000   0.0680902   0.0000000
                         -0.0000000
 20000/00222000  16.1     0.0000000  -0.0000000  -0.0000000   0.0000000   0.0000000  -0.0000000  -0.0680901  -0.0000000
                          0.0000000
 2000000/222000  24.1    -0.0000000   0.0000000   0.0000000  -0.0000000  -0.0000000   0.0000000   0.0642531  -0.0000000
                         -0.0000000
 20000/00222000  21.1     0.0000000  -0.0000000  -0.0000000   0.0000000   0.0000000  -0.0000000  -0.0642529   0.0000000
                          0.0000000
 200/0000222000  15.1     0.0000000   0.0014227   0.0000000  -0.0000000  -0.0000000  -0.0000000   0.0000000   0.0000000
                          0.0589800
 200000/0222000  17.1    -0.0000000   0.0014226  -0.0000000  -0.0000000  -0.0000000   0.0000000  -0.0000000  -0.0000000
                         -0.0589797
 200000/0222000  18.1     0.0014227  -0.0000000  -0.0000067  -0.0000000  -0.0000000  -0.0000000  -0.0000000  -0.0589626
                         -0.0000000
 2000/000222000  15.1     0.0014226   0.0000000  -0.0000067   0.0000000   0.0000000   0.0000000   0.0000000   0.0589622
                          0.0000000
 2/000000222000  11.1    -0.0000000  -0.0575839   0.0000000   0.0000013   0.0000015   0.0000000  -0.0000000  -0.0000000
                         -0.0000001
 2/000000222000  13.1    -0.0002697  -0.0000000  -0.0575833   0.0000000   0.0000000   0.0000000   0.0000000   0.0000000
                         -0.0000000
 2/000000222000  10.1    -0.0575833  -0.0000000   0.0002697  -0.0000000  -0.0000000  -0.0000000   0.0000000  -0.0000000
                          0.0000000
 2/000000222000   9.1     0.0000000  -0.0000014   0.0000000  -0.0574815  -0.0034371   0.0000001   0.0000000  -0.0000000
                         -0.0000000
 2/000000222000  12.1    -0.0000000  -0.0000014  -0.0000000   0.0034371  -0.0574814   0.0000000   0.0000000  -0.0000000
                          0.0000000
 200/0000222000  25.1    -0.0000000   0.0022116   0.0000000  -0.0000001  -0.0000001  -0.0000000   0.0000000   0.0000000
                          0.0556560
 200000/0222000  23.1     0.0000000   0.0022116  -0.0000000  -0.0000001  -0.0000001   0.0000000  -0.0000000  -0.0000000
                         -0.0556559
 200000/0222000  22.1     0.0022116  -0.0000000  -0.0000104  -0.0000000  -0.0000000  -0.0000000  -0.0000000  -0.0556450
                         -0.0000000
 2000/000222000  25.1     0.0022115   0.0000000  -0.0000104   0.0000000   0.0000000   0.0000000   0.0000000   0.0556448
                          0.0000000

 Coefficients of fixed reference functions:
 ==========================================

 State      Coefficients
 1           0.000000    0.000000    0.927954    0.004346    0.000000    0.000000    0.000000   -0.000000    0.000000
 2           0.000000    0.927964   -0.000000    0.000000    0.000023    0.000023    0.000000    0.000000   -0.000000
 3          -0.000000   -0.000000   -0.004346    0.927954   -0.000000    0.000000   -0.000000    0.000000    0.000000
 4          -0.000000   -0.000021   -0.000000    0.000000    0.926310   -0.055374   -0.000000    0.000000   -0.000000
 5          -0.000000   -0.000024   -0.000000   -0.000000    0.055374    0.926310    0.000000   -0.000000   -0.000000
 6           0.967614   -0.000000   -0.000000    0.000000   -0.000000    0.000000   -0.000000    0.000000    0.000000
 7          -0.000000    0.000000    0.000000    0.000000    0.000000    0.000000   -0.000000    0.000000    0.955297
 8           0.000000   -0.000000   -0.000000    0.000000   -0.000000   -0.000000    0.955300    0.000000    0.000000
 9          -0.000000   -0.000000    0.000000   -0.000000   -0.000000    0.000000   -0.000000    0.955293   -0.000000

 Coefficients of rotated reference functions:
 ============================================

 State      Coefficients
 1           0.927964   -0.000000   -0.000000   -0.000000    0.000000    0.000000    0.000000    0.000000    0.000000
 2          -0.000000    0.927964   -0.000000   -0.000000   -0.000000    0.000000   -0.000000   -0.000000   -0.000000
 3          -0.000000   -0.000000    0.927964    0.000000    0.000000   -0.000000    0.000000   -0.000000   -0.000000
 4          -0.000000   -0.000000    0.000000    0.927964   -0.000000   -0.000000    0.000000   -0.000000    0.000000
 5           0.000000   -0.000000    0.000000   -0.000000    0.927964   -0.000000    0.000000   -0.000000    0.000000
 6           0.000000    0.000000   -0.000000   -0.000000   -0.000000    0.967614   -0.000000   -0.000000    0.000000
 7           0.000000   -0.000000    0.000000    0.000000    0.000000   -0.000000    0.955297   -0.000000    0.000000
 8           0.000000   -0.000000   -0.000000   -0.000000   -0.000000   -0.000000   -0.000000    0.955300   -0.000000
 9           0.000000   -0.000000   -0.000000    0.000000    0.000000    0.000000    0.000000   -0.000000    0.955293


 RESULTS FOR STATE 1.1
 =====================

 Maximum overlap with reference state  3

 Coefficient of reference function:   C(0) = 0.92795369 (fixed)   0.93065200 (relaxed)   0.92796387 (rotated)

 Energy contributions of configuration classes

 CLASS          SQ.NORM        ECORR1        ECORR2
 +++++++++++++++++++++++++++++++++++++++++++++++++++
 Internals    0.00695997   -0.00323412   -0.06074036
 Singles      0.13301176   -0.11790311   -0.12296304
 Pairs        0.02131074    0.00000000   -0.00343396
 Total        1.16128247   -0.12113723   -0.18713736
 +++++++++++++++++++++++++++++++++++++++++++++++++++


 Reference energy                     -30.28883059
 Nuclear energy                         0.00000000
 Kinetic energy                         9.96308100
 One electron energy                  -50.21940569
 Two electron energy                   19.73297093
 Virial quotient                       -3.05994047
 Correlation energy                    -0.19760418
 !MRCI STATE 1.1 Energy               -30.486434764981

 Properties without orbital relaxation:

 !MRCI STATE 1.1 Dipole moment          0.00000000     0.00000000     0.00000000
 Dipole moment /Debye                   0.00000000     0.00000000     0.00000000

 Cluster corrected energies           -30.51830485 (Davidson, fixed reference)
 Cluster corrected energies           -30.51698112 (Davidson, relaxed reference)
 Cluster corrected energies           -30.51830485 (Davidson, rotated reference)

 Cluster corrected energies           -30.51228562 (Pople, fixed reference)
 Cluster corrected energies           -30.51113429 (Pople, relaxed reference)
 Cluster corrected energies           -30.51228562 (Pople, rotated reference)



 RESULTS FOR STATE 2.1
 =====================

 Coefficient of reference function:   C(0) = 0.92796386 (fixed)   0.93065200 (relaxed)   0.92796386 (rotated)

 Energy contributions of configuration classes

 CLASS          SQ.NORM        ECORR1        ECORR2
 +++++++++++++++++++++++++++++++++++++++++++++++++++
 Internals    0.00695997   -0.00323412   -0.06981625
 Singles      0.13301177   -0.11790311   -0.12416189
 Pairs        0.02131074    0.00000000   -0.00362604
 Total        1.16128247   -0.12113723   -0.19760418
 +++++++++++++++++++++++++++++++++++++++++++++++++++


 Reference energy                     -30.28883059
 Nuclear energy                         0.00000000
 Kinetic energy                         9.96308102
 One electron energy                  -50.21940571
 Two electron energy                   19.73297094
 Virial quotient                       -3.05994046
 Correlation energy                    -0.19760418
 !MRCI STATE 2.1 Energy               -30.486434764941

 Properties without orbital relaxation:

 !MRCI STATE 2.1 Dipole moment          0.00000000     0.00000000     0.00000000
 Dipole moment /Debye                   0.00000000     0.00000000     0.00000000

 Cluster corrected energies           -30.51830486 (Davidson, fixed reference)
 Cluster corrected energies           -30.51698112 (Davidson, relaxed reference)
 Cluster corrected energies           -30.51830486 (Davidson, rotated reference)

 Cluster corrected energies           -30.51228562 (Pople, fixed reference)
 Cluster corrected energies           -30.51113429 (Pople, relaxed reference)
 Cluster corrected energies           -30.51228562 (Pople, rotated reference)



 RESULTS FOR STATE 3.1
 =====================

 Maximum overlap with reference state  4

 Coefficient of reference function:   C(0) = 0.92795367 (fixed)   0.93065198 (relaxed)   0.92796385 (rotated)

 Energy contributions of configuration classes

 CLASS          SQ.NORM        ECORR1        ECORR2
 +++++++++++++++++++++++++++++++++++++++++++++++++++
 Internals    0.00695997   -0.00323412   -0.06981622
 Singles      0.13301182   -0.11790314   -0.12416189
 Pairs        0.02131073    0.00000000   -0.00362606
 Total        1.16128251   -0.12113725   -0.19760418
 +++++++++++++++++++++++++++++++++++++++++++++++++++


 Reference energy                     -30.28883059
 Nuclear energy                         0.00000000
 Kinetic energy                         9.96308081
 One electron energy                  -50.21940560
 Two electron energy                   19.73297084
 Virial quotient                       -3.05994053
 Correlation energy                    -0.19760418
 !MRCI STATE 3.1 Energy               -30.486434764845

 Properties without orbital relaxation:

 !MRCI STATE 3.1 Dipole moment          0.00000000     0.00000000     0.00000000
 Dipole moment /Debye                   0.00000000     0.00000000     0.00000000

 Cluster corrected energies           -30.51830486 (Davidson, fixed reference)
 Cluster corrected energies           -30.51698113 (Davidson, relaxed reference)
 Cluster corrected energies           -30.51830486 (Davidson, rotated reference)

 Cluster corrected energies           -30.51228563 (Pople, fixed reference)
 Cluster corrected energies           -30.51113430 (Pople, relaxed reference)
 Cluster corrected energies           -30.51228563 (Pople, rotated reference)



 RESULTS FOR STATE 4.1
 =====================

 Maximum overlap with reference state  5

 Coefficient of reference function:   C(0) = 0.92631017 (fixed)   0.93065194 (relaxed)   0.92796382 (rotated)

 Energy contributions of configuration classes

 CLASS          SQ.NORM        ECORR1        ECORR2
 +++++++++++++++++++++++++++++++++++++++++++++++++++
 Internals    0.00695993   -0.00323411   -0.06981619
 Singles      0.13301194   -0.11790315   -0.12416188
 Pairs        0.02131072    0.00000000   -0.00362610
 Total        1.16128258   -0.12113725   -0.19760416
 +++++++++++++++++++++++++++++++++++++++++++++++++++


 Reference energy                     -30.28883059
 Nuclear energy                         0.00000000
 Kinetic energy                         9.96308047
 One electron energy                  -50.21940559
 Two electron energy                   19.73297084
 Virial quotient                       -3.05994063
 Correlation energy                    -0.19760416
 !MRCI STATE 4.1 Energy               -30.486434747837

 Properties without orbital relaxation:

 !MRCI STATE 4.1 Dipole moment          0.00000000     0.00000000     0.00000000
 Dipole moment /Debye                   0.00000000     0.00000000     0.00000000

 Cluster corrected energies           -30.51830486 (Davidson, fixed reference)
 Cluster corrected energies           -30.51698113 (Davidson, relaxed reference)
 Cluster corrected energies           -30.51830486 (Davidson, rotated reference)

 Cluster corrected energies           -30.51228562 (Pople, fixed reference)
 Cluster corrected energies           -30.51113430 (Pople, relaxed reference)
 Cluster corrected energies           -30.51228562 (Pople, rotated reference)



 RESULTS FOR STATE 5.1
 =====================

 Maximum overlap with reference state  6

 Coefficient of reference function:   C(0) = 0.92631020 (fixed)   0.93065199 (relaxed)   0.92796385 (rotated)

 Energy contributions of configuration classes

 CLASS          SQ.NORM        ECORR1        ECORR2
 +++++++++++++++++++++++++++++++++++++++++++++++++++
 Internals    0.00695995   -0.00323411   -0.06981621
 Singles      0.13301183   -0.11790313   -0.12416187
 Pairs        0.02131072    0.00000000   -0.00362608
 Total        1.16128250   -0.12113724   -0.19760416
 +++++++++++++++++++++++++++++++++++++++++++++++++++


 Reference energy                     -30.28883059
 Nuclear energy                         0.00000000
 Kinetic energy                         9.96308060
 One electron energy                  -50.21940563
 Two electron energy                   19.73297089
 Virial quotient                       -3.05994059
 Correlation energy                    -0.19760416
 !MRCI STATE 5.1 Energy               -30.486434746824

 Properties without orbital relaxation:

 !MRCI STATE 5.1 Dipole moment          0.00000000     0.00000000     0.00000000
 Dipole moment /Debye                   0.00000000     0.00000000     0.00000000

 Cluster corrected energies           -30.51830484 (Davidson, fixed reference)
 Cluster corrected energies           -30.51698111 (Davidson, relaxed reference)
 Cluster corrected energies           -30.51830484 (Davidson, rotated reference)

 Cluster corrected energies           -30.51228560 (Pople, fixed reference)
 Cluster corrected energies           -30.51113428 (Pople, relaxed reference)
 Cluster corrected energies           -30.51228560 (Pople, rotated reference)



 RESULTS FOR STATE 6.1
 =====================

 Maximum overlap with reference state  1

 Coefficient of reference function:   C(0) = 0.96761408 (fixed)   0.96771747 (relaxed)   0.96761408 (rotated)

 Energy contributions of configuration classes

 CLASS          SQ.NORM        ECORR1        ECORR2
 +++++++++++++++++++++++++++++++++++++++++++++++++++
[...]

 21  1     3    1  |1 1>-      -0.00000000 -0.00000000
                                0.00034590 -0.00000096

 22  1     4    1  |1 1>-       0.00000000 -0.00000000
                                0.00000000 -0.00000000

 23  1     5    1  |1 1>-       0.00000000 -0.00000000
                                0.00000000 -0.00000000

 24  1     6    1  |1 1>-      -0.00000000  0.00000000
                                0.00000000 -0.00000000

 25  1     7    1  |1 1>-       0.00000023  0.00000000
                               -0.70685805 -0.00000144

 26  1     8    1  |1 1>-      -0.00000000  0.00000629
                               -0.00000161  0.77986197

 27  1     9    1  |1 1>-      -0.00000000  0.00000000
                                0.00000578 -0.00000134

 28  1     1    1  |0 0>       -0.00000000  0.00000122
                                0.00000000 -0.00000000

 29  1     2    1  |0 0>        0.00000195 -0.00564574
                                0.00000000  0.00000005

 30  1     3    1  |0 0>        0.00000874  0.00426446
                                0.00000000 -0.00000003

 31  1     4    1  |0 0>        0.00000763  0.00002722
                                0.00000000 -0.00000000

 32  1     5    1  |0 0>        0.00005091 -0.00001122
                                0.00000000  0.00000000

 33  1     6    1  |0 0>        0.00707487 -0.00000366
                                0.00000000  0.00000000

 34  1     7    1  |0 0>        0.00000000 -0.00000055
                               -0.00000000  0.00000000



 Composition of spin-orbit eigenvectors
 ======================================
   Total
 Nr Sym  State Sym Spin / Nr.      1        2        3        4        5        6        7        8

  1  1     1    1  |1 1>+         0.00%   30.00%    0.00%    0.00%    0.00%    0.00%    0.00%    0.45%
  2  1     2    1  |1 1>+         0.00%    0.00%    0.00%    0.00%    0.00%    0.00%   20.20%   44.97%
  3  1     3    1  |1 1>+         0.00%    0.00%   30.00%    0.00%    0.00%   16.61%    0.00%    0.00%
  4  1     4    1  |1 1>+         0.00%    0.00%    0.00%    8.01%   53.14%    0.00%    0.00%    0.00%
  5  1     5    1  |1 1>+         0.00%    0.00%    0.00%   31.99%   13.30%    0.00%    0.00%    0.00%
  6  1     6    1  |1 1>+         0.00%    0.00%    0.00%    0.00%    0.00%    0.00%    0.00%    0.00%
  7  1     7    1  |1 1>+         0.00%    0.00%    0.00%    0.00%    0.00%    0.00%    0.00%    0.00%
  8  1     8    1  |1 1>+         0.00%    0.00%    0.00%    0.00%    0.00%    0.00%    0.00%    0.00%
  9  1     9    1  |1 1>+         0.00%    0.00%    0.00%    0.00%    0.00%    0.00%    0.00%    0.00%
 10  1     1    1  |1 0>          0.00%    0.00%    0.00%   30.00%   16.61%    0.00%    0.00%    0.00%
 11  1     2    1  |1 0>          0.00%    0.00%   30.00%    0.00%    0.00%   16.61%    0.00%    0.00%
 12  1     3    1  |1 0>          0.00%    0.00%    0.00%    0.00%    0.00%    0.00%   66.20%    0.24%
 13  1     4    1  |1 0>          0.00%   39.86%    0.00%    0.00%    0.00%    0.00%    0.00%    0.01%
 14  1     5    1  |1 0>          0.00%    0.14%    0.00%    0.00%    0.00%    0.00%    0.00%    1.81%
 15  1     6    1  |1 0>          0.00%    0.00%    0.00%    0.00%    0.00%    0.00%    0.00%    0.00%
 16  1     7    1  |1 0>          0.00%    0.00%    0.00%    0.00%    0.00%    0.00%    0.00%    0.00%
 17  1     8    1  |1 0>          0.00%    0.00%    0.00%    0.00%    0.00%    0.00%    0.00%    0.00%
 18  1     9    1  |1 0>          0.00%    0.00%    0.00%    0.00%    0.00%    0.00%    0.00%    0.00%
 19  1     1    1  |1 1>-         0.00%    0.00%    0.00%    0.00%    0.00%    0.00%   13.26%   51.74%
 20  1     2    1  |1 1>-         0.00%   30.00%    0.00%    0.00%    0.00%    0.00%    0.00%    0.45%
 21  1     3    1  |1 1>-         0.00%    0.00%    0.00%   30.00%   16.61%    0.00%    0.00%    0.00%
 22  1     4    1  |1 1>-         0.00%    0.00%   12.14%    0.00%    0.00%   46.29%    0.00%    0.00%
 23  1     5    1  |1 1>-         0.00%    0.00%   27.86%    0.00%    0.00%   20.16%    0.00%    0.00%
 24  1     6    1  |1 1>-         0.00%    0.00%    0.00%    0.00%    0.00%    0.00%    0.00%    0.00%
 25  1     7    1  |1 1>-         0.00%    0.00%    0.00%    0.00%    0.00%    0.00%    0.00%    0.00%
 26  1     8    1  |1 1>-         0.00%    0.00%    0.00%    0.00%    0.00%    0.00%    0.00%    0.00%
 27  1     9    1  |1 1>-         0.00%    0.00%    0.00%    0.00%    0.00%    0.00%    0.00%    0.00%
 28  1     1    1  |0 0>        100.00%    0.00%    0.00%    0.00%    0.00%    0.00%    0.00%    0.00%
 29  1     2    1  |0 0>          0.00%    0.00%    0.00%    0.00%    0.00%    0.00%    0.33%    0.00%
 30  1     3    1  |0 0>          0.00%    0.00%    0.00%    0.00%    0.00%    0.00%    0.00%    0.32%
 31  1     4    1  |0 0>          0.00%    0.00%    0.00%    0.00%    0.00%    0.00%    0.00%    0.01%
 32  1     5    1  |0 0>          0.00%    0.00%    0.00%    0.00%    0.00%    0.33%    0.00%    0.00%
 33  1     6    1  |0 0>          0.00%    0.00%    0.00%    0.00%    0.33%    0.00%    0.00%    0.00%
 34  1     7    1  |0 0>          0.00%    0.00%    0.00%    0.00%    0.00%    0.00%    0.00%    0.00%

   Total
 Nr Sym  State Sym Spin / Nr.      9       10       11       12       13       14       15       16

  1  1     1    1  |1 1>+        16.16%    0.00%    0.00%    0.00%   14.83%    0.14%   38.36%    0.00%
  2  1     2    1  |1 1>+         1.28%   33.33%    0.00%    0.00%    0.00%    0.00%    0.00%    0.00%
  3  1     3    1  |1 1>+         0.00%    0.00%   18.66%    0.00%    0.00%   34.54%    0.13%    0.00%
  4  1     4    1  |1 1>+         0.00%    0.00%    0.00%   31.70%    0.00%    0.00%    0.00%    6.97%
  5  1     5    1  |1 1>+         0.00%    0.00%    0.00%    2.25%    0.00%    0.00%    0.00%   52.42%
  6  1     6    1  |1 1>+         0.00%    0.00%    0.00%    0.00%    0.00%    0.00%    0.00%    0.00%
  7  1     7    1  |1 1>+         0.00%    0.00%    0.00%    0.00%    0.00%    0.00%    0.00%    0.00%
  8  1     8    1  |1 1>+         0.00%    0.00%    0.00%    0.00%    0.00%    0.00%    0.00%    0.00%
  9  1     9    1  |1 1>+         0.00%    0.00%    0.00%    0.00%    0.00%    0.00%    0.00%    0.00%
 10  1     1    1  |1 0>          0.00%    0.00%    0.00%   40.79%    0.00%    0.00%    0.00%   12.54%
 11  1     2    1  |1 0>          0.00%    0.00%   45.98%    0.00%    0.01%    7.32%    0.03%    0.00%
 12  1     3    1  |1 0>          0.00%   33.33%    0.00%    0.00%    0.00%    0.00%    0.00%    0.00%
 13  1     4    1  |1 0>          0.23%    0.00%    0.01%    0.00%   59.69%    0.00%    0.21%    0.00%
 14  1     5    1  |1 0>         64.40%    0.00%    0.00%    0.00%    0.02%    0.14%   33.27%    0.00%
 15  1     6    1  |1 0>          0.00%    0.00%    0.00%    0.00%    0.00%    0.00%    0.00%    0.00%
 16  1     7    1  |1 0>          0.00%    0.00%    0.00%    0.00%    0.00%    0.00%    0.00%    0.00%
 17  1     8    1  |1 0>          0.00%    0.00%    0.00%    0.00%    0.00%    0.00%    0.00%    0.00%
 18  1     9    1  |1 0>          0.00%    0.00%    0.00%    0.00%    0.00%    0.00%    0.00%    0.00%
 19  1     1    1  |1 1>-         1.44%   33.33%    0.00%    0.00%    0.00%    0.00%    0.00%    0.00%
 20  1     2    1  |1 1>-        16.16%    0.00%    0.00%    0.00%   25.45%    0.12%   27.75%    0.00%
 21  1     3    1  |1 1>-         0.00%    0.00%    0.00%   25.26%    0.00%    0.00%    0.00%   28.07%
 22  1     4    1  |1 1>-         0.00%    0.00%   33.72%    0.00%    0.00%    7.67%    0.03%    0.00%
 23  1     5    1  |1 1>-         0.00%    0.00%    1.63%    0.00%    0.00%   50.06%    0.22%    0.00%
 24  1     6    1  |1 1>-         0.00%    0.00%    0.00%    0.00%    0.00%    0.00%    0.00%    0.00%
 25  1     7    1  |1 1>-         0.00%    0.00%    0.00%    0.00%    0.00%    0.00%    0.00%    0.00%
 26  1     8    1  |1 1>-         0.00%    0.00%    0.00%    0.00%    0.00%    0.00%    0.00%    0.00%
 27  1     9    1  |1 1>-         0.00%    0.00%    0.00%    0.00%    0.00%    0.00%    0.00%    0.00%
 28  1     1    1  |0 0>          0.00%    0.00%    0.00%    0.00%    0.00%    0.00%    0.00%    0.00%
 29  1     2    1  |0 0>          0.00%    0.00%    0.00%    0.00%    0.00%    0.00%    0.00%    0.00%
 30  1     3    1  |0 0>          0.01%    0.00%    0.00%    0.00%    0.00%    0.00%    0.00%    0.00%
 31  1     4    1  |0 0>          0.32%    0.00%    0.00%    0.00%    0.00%    0.00%    0.00%    0.00%
 32  1     5    1  |0 0>          0.00%    0.00%    0.00%    0.00%    0.00%    0.00%    0.00%    0.00%
 33  1     6    1  |0 0>          0.00%    0.00%    0.00%    0.00%    0.00%    0.00%    0.00%    0.00%
 34  1     7    1  |0 0>          0.00%    0.00%    0.00%    0.00%    0.00%    0.00%    0.00%    0.00%

   Total
 Nr Sym  State Sym Spin / Nr.     17       18       19       20       21       22       23       24

  1  1     1    1  |1 1>+         0.06%    0.00%    0.00%    0.00%    0.00%    0.00%    0.00%    0.00%
  2  1     2    1  |1 1>+         0.00%    0.00%    0.00%    0.09%    0.13%    0.00%    0.00%    0.00%
  3  1     3    1  |1 1>+         0.00%    0.06%    0.00%    0.00%    0.00%    0.00%    0.00%    0.00%
  4  1     4    1  |1 1>+         0.00%    0.00%    0.18%    0.00%    0.00%    0.00%    0.00%    0.00%
  5  1     5    1  |1 1>+         0.00%    0.00%    0.04%    0.00%    0.00%    0.00%    0.00%    0.00%
  6  1     6    1  |1 1>+         0.00%    0.00%    0.00%    0.00%    0.00%    0.00%    0.00%  100.00%
  7  1     7    1  |1 1>+         0.00%    0.00%    0.00%    0.00%    0.00%    0.00%    0.00%    0.00%
  8  1     8    1  |1 1>+         0.00%    0.00%    0.00%    0.00%    0.00%    0.00%    0.00%    0.00%
  9  1     9    1  |1 1>+         0.00%    0.00%    0.00%    0.00%    0.00%    0.00%    0.00%    0.00%
 10  1     1    1  |1 0>          0.00%    0.00%    0.06%    0.00%    0.00%    0.00%    0.00%    0.00%
 11  1     2    1  |1 0>          0.00%    0.06%    0.00%    0.00%    0.00%    0.00%    0.00%    0.00%
 12  1     3    1  |1 0>          0.00%    0.00%    0.00%    0.22%    0.01%    0.00%    0.00%    0.00%
 13  1     4    1  |1 0>          0.00%    0.00%    0.00%    0.00%    0.00%    0.00%    0.00%    0.00%
 14  1     5    1  |1 0>          0.22%    0.00%    0.00%    0.00%    0.00%    0.00%    0.00%    0.00%
 15  1     6    1  |1 0>          0.00%    0.00%    0.00%    0.00%    0.00%    0.00%  100.00%    0.00%
 16  1     7    1  |1 0>          0.00%    0.00%    0.00%    0.00%    0.00%    0.00%    0.00%    0.00%
 17  1     8    1  |1 0>          0.00%    0.00%    0.00%    0.00%    0.00%    0.00%    0.00%    0.00%
 18  1     9    1  |1 0>          0.00%    0.00%    0.00%    0.00%    0.00%    0.00%    0.00%    0.00%
 19  1     1    1  |1 1>-         0.00%    0.00%    0.00%    0.03%    0.20%    0.00%    0.00%    0.00%
 20  1     2    1  |1 1>-         0.06%    0.00%    0.00%    0.00%    0.00%    0.00%    0.00%    0.00%
 21  1     3    1  |1 1>-         0.00%    0.00%    0.06%    0.00%    0.00%    0.00%    0.00%    0.00%
 22  1     4    1  |1 1>-         0.00%    0.16%    0.00%    0.00%    0.00%    0.00%    0.00%    0.00%
 23  1     5    1  |1 1>-         0.00%    0.07%    0.00%    0.00%    0.00%    0.00%    0.00%    0.00%
 24  1     6    1  |1 1>-         0.00%    0.00%    0.00%    0.00%    0.00%  100.00%    0.00%    0.00%
 25  1     7    1  |1 1>-         0.00%    0.00%    0.00%    0.00%    0.00%    0.00%    0.00%    0.00%
 26  1     8    1  |1 1>-         0.00%    0.00%    0.00%    0.00%    0.00%    0.00%    0.00%    0.00%
 27  1     9    1  |1 1>-         0.00%    0.00%    0.00%    0.00%    0.00%    0.00%    0.00%    0.00%
 28  1     1    1  |0 0>          0.00%    0.00%    0.00%    0.00%    0.00%    0.00%    0.00%    0.00%
 29  1     2    1  |0 0>          0.00%    0.00%    0.00%   99.66%    0.00%    0.00%    0.00%    0.00%
 30  1     3    1  |0 0>          0.00%    0.00%    0.00%    0.00%   99.66%    0.00%    0.00%    0.00%
 31  1     4    1  |0 0>         99.66%    0.00%    0.00%    0.00%    0.00%    0.00%    0.00%    0.00%
 32  1     5    1  |0 0>          0.00%   99.66%    0.00%    0.00%    0.00%    0.00%    0.00%    0.00%
 33  1     6    1  |0 0>          0.00%    0.00%   99.66%    0.00%    0.00%    0.00%    0.00%    0.00%
 34  1     7    1  |0 0>          0.00%    0.00%    0.00%    0.00%    0.00%    0.00%    0.00%    0.00%

   Total
 Nr Sym  State Sym Spin / Nr.     25       26       27       28       29       30       31       32

  1  1     1    1  |1 1>+         0.00%    0.00%    0.00%    0.00%    0.00%    0.00%    0.00%    0.00%
  2  1     2    1  |1 1>+         0.00%    0.00%    0.00%    0.00%    0.00%    0.00%    0.00%    0.00%
  3  1     3    1  |1 1>+         0.00%    0.00%    0.00%    0.00%    0.00%    0.00%    0.00%    0.00%
  4  1     4    1  |1 1>+         0.00%    0.00%    0.00%    0.00%    0.00%    0.00%    0.00%    0.00%
  5  1     5    1  |1 1>+         0.00%    0.00%    0.00%    0.00%    0.00%    0.00%    0.00%    0.00%
  6  1     6    1  |1 1>+         0.00%    0.00%    0.00%    0.00%    0.00%    0.00%    0.00%    0.00%
  7  1     7    1  |1 1>+         0.00%    0.00%   49.95%    0.00%    0.00%    0.00%   50.04%    0.00%
  8  1     8    1  |1 1>+         0.00%    0.00%    0.00%   49.92%    0.00%    0.00%    0.00%   50.08%
  9  1     9    1  |1 1>+         0.00%   33.37%    0.00%    0.00%    0.00%   63.39%    0.00%    0.00%
 10  1     1    1  |1 0>          0.00%    0.00%    0.00%    0.00%    0.00%    0.00%    0.00%    0.00%
 11  1     2    1  |1 0>          0.00%    0.00%    0.00%    0.00%    0.00%    0.00%    0.00%    0.00%
 12  1     3    1  |1 0>          0.00%    0.00%    0.00%    0.00%    0.00%    0.00%    0.00%    0.00%
 13  1     4    1  |1 0>          0.00%    0.00%    0.00%    0.00%    0.00%    0.00%    0.00%    0.00%
 14  1     5    1  |1 0>          0.00%    0.00%    0.00%    0.00%    0.00%    0.00%    0.00%    0.00%
 15  1     6    1  |1 0>          0.00%    0.00%    0.00%    0.00%    0.00%    0.00%    0.00%    0.00%
 16  1     7    1  |1 0>          0.00%   33.33%    0.00%    0.00%    0.00%   30.73%    0.00%    0.00%
 17  1     8    1  |1 0>          0.00%    0.00%    0.00%    0.00%   49.97%    0.00%    0.00%    0.00%
 18  1     9    1  |1 0>          0.00%    0.00%   50.05%    0.00%    0.00%    0.00%   49.95%    0.00%
 19  1     1    1  |1 1>-         0.00%    0.00%    0.00%    0.00%    0.00%    0.00%    0.00%    0.00%
 20  1     2    1  |1 1>-         0.00%    0.00%    0.00%    0.00%    0.00%    0.00%    0.00%    0.00%
 21  1     3    1  |1 1>-         0.00%    0.00%    0.00%    0.00%    0.00%    0.00%    0.00%    0.00%
 22  1     4    1  |1 1>-         0.00%    0.00%    0.00%    0.00%    0.00%    0.00%    0.00%    0.00%
 23  1     5    1  |1 1>-         0.00%    0.00%    0.00%    0.00%    0.00%    0.00%    0.00%    0.00%
 24  1     6    1  |1 1>-         0.00%    0.00%    0.00%    0.00%    0.00%    0.00%    0.00%    0.00%
 25  1     7    1  |1 1>-         0.00%    0.00%    0.00%    0.00%   50.03%    0.00%    0.00%    0.00%
 26  1     8    1  |1 1>-         0.00%   33.30%    0.00%    0.00%    0.00%    5.88%    0.00%    0.00%
 27  1     9    1  |1 1>-         0.00%    0.00%    0.00%   50.08%    0.00%    0.00%    0.00%   49.92%
 28  1     1    1  |0 0>          0.00%    0.00%    0.00%    0.00%    0.00%    0.00%    0.00%    0.00%
 29  1     2    1  |0 0>          0.00%    0.00%    0.00%    0.00%    0.00%    0.00%    0.00%    0.00%
 30  1     3    1  |0 0>          0.00%    0.00%    0.00%    0.00%    0.00%    0.00%    0.00%    0.00%
 31  1     4    1  |0 0>          0.00%    0.00%    0.00%    0.00%    0.00%    0.00%    0.00%    0.01%
 32  1     5    1  |0 0>          0.00%    0.00%    0.00%    0.00%    0.00%    0.00%    0.01%    0.00%
 33  1     6    1  |0 0>          0.00%    0.00%    0.00%    0.00%    0.00%    0.00%    0.00%    0.00%
 34  1     7    1  |0 0>        100.00%    0.00%    0.00%    0.00%    0.00%    0.00%    0.00%    0.00%

   Total
 Nr Sym  State Sym Spin / Nr.     33       34

  1  1     1    1  |1 1>+         0.00%    0.00%
  2  1     2    1  |1 1>+         0.00%    0.00%
  3  1     3    1  |1 1>+         0.00%    0.00%
  4  1     4    1  |1 1>+         0.00%    0.00%
  5  1     5    1  |1 1>+         0.00%    0.00%
  6  1     6    1  |1 1>+         0.00%    0.00%
  7  1     7    1  |1 1>+         0.00%    0.00%
  8  1     8    1  |1 1>+         0.00%    0.00%
  9  1     9    1  |1 1>+         0.00%    3.24%
 10  1     1    1  |1 0>          0.00%    0.00%
 11  1     2    1  |1 0>          0.00%    0.00%
 12  1     3    1  |1 0>          0.00%    0.00%
 13  1     4    1  |1 0>          0.00%    0.00%
 14  1     5    1  |1 0>          0.00%    0.00%
 15  1     6    1  |1 0>          0.00%    0.00%
 16  1     7    1  |1 0>          0.00%   35.94%
 17  1     8    1  |1 0>         50.03%    0.00%
 18  1     9    1  |1 0>          0.00%    0.00%
 19  1     1    1  |1 1>-         0.00%    0.00%
 20  1     2    1  |1 1>-         0.00%    0.00%
 21  1     3    1  |1 1>-         0.00%    0.00%
 22  1     4    1  |1 1>-         0.00%    0.00%
 23  1     5    1  |1 1>-         0.00%    0.00%
 24  1     6    1  |1 1>-         0.00%    0.00%
 25  1     7    1  |1 1>-        49.96%    0.00%
 26  1     8    1  |1 1>-         0.00%   60.82%
 27  1     9    1  |1 1>-         0.00%    0.00%
 28  1     1    1  |0 0>          0.00%    0.00%
 29  1     2    1  |0 0>          0.00%    0.00%
 30  1     3    1  |0 0>          0.00%    0.00%
 31  1     4    1  |0 0>          0.00%    0.00%
 32  1     5    1  |0 0>          0.00%    0.00%
 33  1     6    1  |0 0>          0.01%    0.00%
 34  1     7    1  |0 0>          0.00%    0.00%


 No matrix element <i|DMX|i> larger than 5E-7
 No matrix element <i|DMX|1> larger than 5E-7

 No matrix element <i|DMY|i> larger than 5E-7
 No matrix element <i|DMY|1> larger than 5E-7

 No matrix element <i|DMZ|i> larger than 5E-7
 No matrix element <i|DMZ|1> larger than 5E-7


 **********************************************************************************************************************************
 DATASETS  * FILE   NREC   LENGTH (MB)   RECORD NAMES
              1      21       32.76       500      610      700      900      950      970     1000      129      960     1100   
                                          VAR    BASINP    GEOM    SYMINP    ZMAT    AOBASIS   BASIS     P2S    ABASIS      S 
                                         1400     1410     1420     1200     1210     1080     1700     1600     1650     1380   
                                           T        V       ECP      H0       H01     AOSYM    OPER      SMH    MOLCAS    JKOP   
                                         1700(1)
                                         OPER   

              2       7     5936.08       700     1000      520     2100     2140     5203     5201   
                                         GEOM     BASIS   MCVARS     RHF     MCSCF    MRCI     MRCI   

 PROGRAMS   *        TOTAL        CI        CI        CI     MULTI   RHF-SCF       INT
 CPU TIMES  *   1069363.72 795191.16  70908.87 203183.42     79.28      0.02      0.73
 REAL TIME  *   1075503.42 SEC
 DISK USED  *         5.83 GB (local),       93.33 GB (total)
 SF USED    *        43.50 GB
 GA USED    *         0.00 MB       (max)       0.00 MB       (current)
 **********************************************************************************************************************************

 CI/aug-cc-pWCVTZ-PP energy=    -30.428546444493

              CI              CI           MULTI         RHF-SCF
    -30.44479208    -30.41457084    -30.28735424    -30.34122430
 **********************************************************************************************************************************
 Molpro calculation terminated
