
 Working directory              : /wrk/irikura/molpro.kGve2BMUAJ/
 Global scratch directory       : /wrk/irikura/molpro.kGve2BMUAJ/
 Wavefunction directory         : /home/irikura/wfu/
 Main file repository           : /wrk/irikura/molpro.kGve2BMUAJ/

 id        : nistki

 Nodes            nprocs
 pn125343.nist.gov   24
 GA implementation: MPI file
 GA implementation (serial work in mppx): MPI file

 Using customized tuning parameters: mindgm=1; mindgv=20; mindgc=4; mindgr=1; noblas=0; minvec=7
 default implementation of scratch files=sf  


 Variables initialized (1025), CPU time= 0.02 sec
 ***,Ba SO-CI
 memory,900,M;
 
 gprint,orbitals,civector;
 
 symmetry,xyz
 geometry={Ba};
 
 basis=aug-cc-pwCV5Z-PP
 
 {rhf;wf,sym=1,spin=0}
 
 NSING=12
 NTRIP=16
 
                                                                                 ! active space (2/10)
 {multi
     closed,1,3
     occ,8,9
     wf,sym=1,spin=0;state,NSING;
     wf,sym=1,spin=2;state,NTRIP;
     expec2,lxx,lyy,lzz;
 }
 table, energy, ll
 title, Energies and &lt;L**2&gt; values
 
 core,0,0
 
 {ci;wf,sym=1,spin=0;state,NSING; save,5101.2}
 hlsdiag = energd4
 {ci;wf,sym=1,spin=2;state,NTRIP; save,5103.2}
 hlsdiag(NSING+1) = energd4
 
 table,hlsdiag
 
 {ci;hlsmat,ecp,5101.2,5103.2;print,vls=0,hls=0}                                 !compute and diagonalize SO matrix
 Commands initialized (840), CPU time= 0.02 sec, 684 directives.
 Default parameters read. Elapsed time= 0.19 sec

 Checking input...
 Passed
1


                                         ***  PROGRAM SYSTEM MOLPRO  ***
                                       Copyright, TTI GmbH Stuttgart, 2015
                                    Version 2022.3 linked Wed Nov 30 06:40:34 2022


 **********************************************************************************************************************************
 LABEL *   Ba SO-                                                                        
  64 bit mpp version                                                                     DATE: 02-May-24          TIME: 15:36:53  
 **********************************************************************************************************************************

 SHA1:             e31ec9a5ea85254ab76f59d122cbdd51c71cf98b
 **********************************************************************************************************************************

 Memory per process:       900 MW
 Total memory per node:  21600 MW

 GA preallocation disabled
 GA check disabled

 Variable memory set to 900.0 MW


 ZSYMEL=XYZ

 SETTING BASIS          =    AUG-CC-PWCV5Z-PP


 Recomputing integrals since basis changed


 Using spherical harmonics

 Library entry Ba   ECP ECP46MDF                 selected for group  1
 Library entry BA     S aug-cc-pwCV5Z-PP     selected for orbital group  1
 Library entry BA     P aug-cc-pwCV5Z-PP     selected for orbital group  1
 Library entry BA     D aug-cc-pwCV5Z-PP     selected for orbital group  1
 Library entry BA     F aug-cc-pwCV5Z-PP     selected for orbital group  1
 Library entry BA     G aug-cc-pwCV5Z-PP     selected for orbital group  1
 Library entry BA     H aug-cc-pwCV5Z-PP     selected for orbital group  1


 PROGRAM * SEWARD (Integral evaluation for generally contracted gaussian basis sets)     Author: Roland Lindh, 1990

 Geometry written to block  1 of record 700

 Orientation using atomic masses  
 Molecule type: Atom
 User-specified symmetry elements: XYZ
 Symmetry elements: XYZ
 Rotational constants:       0.0000000      0.0000000      0.0000000 GHz  (calculated with average atomic masses)

 Point group  Ci  



 ATOMIC COORDINATES

 NR  ATOM    CHARGE       X              Y              Z

   1  BA     10.00    0.000000000    0.000000000    0.000000000

 NUCLEAR CHARGE:                   10
 NUMBER OF PRIMITIVE AOS:         337
 NUMBER OF SYMMETRY AOS:          247
 NUMBER OF CONTRACTIONS:          213   (  101Ag  +  112Au  )
 NUMBER OF INNER CORE ORBITALS:     0   (    0Ag  +    0Au  )
 NUMBER OF OUTER CORE ORBITALS:     4   (    1Ag  +    3Au  )
 NUMBER OF VALENCE ORBITALS:        1   (    1Ag  +    0Au  )


 LX: Ag           LY: Ag           LZ: Ag 


 NUCLEAR REPULSION ENERGY    0.00000000

 EXTRA SYMMETRY OF AOS IN SYMMETRY 1:   1 1 1 1 1 1 1 1 1 1   1 2 3 4 5 6 2 3 4 5   6 2 3 4 5 6 2 3 4 5   6 2 3 4 5 6 2 3 4 5
                                        6 2 3 4 5 6 2 3 4 5   6 2 3 4 5 6 7 8 910  1112131415 7 8 91011  12131415 7 8 9101112
                                       131415 7 8 910111213  1415 7 8 91011121314  15
 EXTRA SYMMETRY OF AOS IN SYMMETRY 2:   1 2 3 1 2 3 1 2 3 1   2 3 1 2 3 1 2 3 1 2   3 1 2 3 1 2 3 1 2 3   4 5 6 7 8 910 4 5 6
                                        7 8 910 4 5 6 7 8 9  10 4 5 6 7 8 910 4 5   6 7 8 910 4 5 6 7 8   910 4 5 6 7 8 91011
                                       12131415161718192021  11121314151617181920  21111213141516171819  2021


 Eigenvalues of metric

         1 0.375E-04 0.266E-03 0.784E-03 0.784E-03 0.784E-03 0.784E-03 0.784E-03 0.135E-02
         2 0.408E-03 0.408E-03 0.408E-03 0.110E-02 0.110E-02 0.110E-02 0.398E-02 0.398E-02


 Contracted 2-electron integrals neglected if value below      1.0D-12
 AO integral compression algorithm  1   Integral accuracy      1.0D-12

     248.513 MB (compressed) written to integral file ( 13.7%)

     Node minimum: 5.767 MB, node maximum: 15.729 MB


 NUMBER OF SORTED TWO-ELECTRON INTEGRALS:    5449443.     BUFFER LENGTH:  32768
 NUMBER OF SEGMENTS:   1  SEGMENT LENGTH:    5449443      RECORD LENGTH: 524288

 Memory used in sort:       6.01 MW

 SORT1 READ   226482739. AND WROTE      906112. INTEGRALS IN      3 RECORDS. CPU TIME:     1.20 SEC, REAL TIME:     1.24 SEC
 SORT2 READ    23241716. AND WROTE   131080516. INTEGRALS IN    696 RECORDS. CPU TIME:     0.11 SEC, REAL TIME:     0.13 SEC

 Node minimum:     5446104.  Node maximum:     5472081. integrals

 OPERATOR DM      FOR CENTER  0  COORDINATES:    0.000000    0.000000    0.000000


 **********************************************************************************************************************************
 DATASETS  * FILE   NREC   LENGTH (MB)   RECORD NAMES
              1      19       29.77       500      610      700      900      950      970     1000      129      960     1100   
                                          VAR    BASINP    GEOM    SYMINP    ZMAT    AOBASIS   BASIS     P2S    ABASIS      S 
                                         1400     1410     1420     1200     1210     1080     1700     1600     1650   
                                           T        V       ECP      H0       H01     AOSYM    OPER      SMH    MOLCAS    

 PROGRAMS   *        TOTAL       INT
 CPU TIMES  *         3.62      3.24
 REAL TIME  *         4.67 SEC
 DISK USED  *        30.09 MB (local),        1.16 GB (total)
 GA USED    *         0.00 MB       (max)       0.00 MB       (current)
 **********************************************************************************************************************************


 Program * Restricted Hartree-Fock

 Orbital guess generated from atomic densities. Full valence occupancy:    2   3

 Initial occupancy:   2   3

 NELEC=   10   SYM=1   MS2= 0   THRE=1.0D-08   THRD=3.2D-06   THRG=3.2D-06  HFMA2=F  DIIS_START=2   DIIS_MAX=10   DIIS_INCORE=F

 Level shifts:    0.00 (CLOSED)    0.00 (OPEN)    0.30 (GAP_MIN)

 ITER           ETOT              DE          GRAD        DDIFF     DIIS  NEXP   TIME(IT)  TIME(TOT)  DIAG
   1      -24.68510439     -24.68510439     0.00D+00     0.26D+00     0     0       0.03      0.06    start
   2      -24.96654727      -0.28144287     0.17D-01     0.15D+00     1     0       0.03      0.09    diag
   3      -25.03741811      -0.07087085     0.39D-02     0.67D-01     2     0       0.03      0.12    diag
   4      -25.08903752      -0.05161941     0.26D-02     0.47D-01     3     0       0.04      0.16    diag
   5      -25.09491156      -0.00587404     0.86D-03     0.77D-02     4     0       0.03      0.19    diag
   6      -25.09500726      -0.00009570     0.12D-03     0.13D-02     5     0       0.03      0.22    diag
   7      -25.09501691      -0.00000965     0.39D-04     0.13D-02     6     0       0.04      0.26    diag
   8      -25.09501760      -0.00000069     0.12D-04     0.30D-03     7     0       0.03      0.29    fixocc
   9      -25.09501761      -0.00000001     0.17D-05     0.19D-04     8     0       0.04      0.33    diag
  10      -25.09501761      -0.00000000     0.38D-06     0.44D-05     9     0       0.03      0.36    diag/orth
  11      -25.09501761      -0.00000000     0.96D-07     0.25D-05     9     0       0.03      0.39    diag
  12      -25.09501761      -0.00000000     0.10D-07     0.84D-07     0     0       0.03      0.42    diag

 Final occupancy:   2   3

 !RHF STATE 1.1 Energy                -25.095017612110
  RHF One-electron energy             -41.272199558957
  RHF Two-electron energy              16.177181946847
  RHF Kinetic energy                    6.695439484744
  RHF Nuclear energy                    0.000000000000
  RHF Virial quotient                  -3.748076234471

 !RHF STATE 1.1 Dipole moment           0.00000000     0.00000000     0.00000000
 Dipole moment /Debye                   0.00000000     0.00000000     0.00000000

 ELECTRON ORBITALS
 =================

  Orbital  Occupation    Energy    Cen Mu Typ  Coefficients
    1.1     2.00000    -1.60487     1  1  s    0.99988
    2.1     2.00000    -0.16318     1  1  s   -0.31509    1  4  s    0.47981    1  5  s    0.61878
    1.2     2.00000    -0.89696     1  1  pz   0.99995
    2.2     2.00000    -0.89696     1  1  py   0.99995
    3.2     2.00000    -0.89696     1  1  px   0.99995


 HOMO      2.1    -0.163179 =      -4.4403eV
 LUMO      4.2     0.006813 =       0.1854eV
 LUMO-HOMO         0.169992 =       4.6257eV

 Orbitals saved in record  2100.2


 **********************************************************************************************************************************
 DATASETS  * FILE   NREC   LENGTH (MB)   RECORD NAMES
              1      19       29.77       500      610      700      900      950      970     1000      129      960     1100   
                                          VAR    BASINP    GEOM    SYMINP    ZMAT    AOBASIS   BASIS     P2S    ABASIS      S 
                                         1400     1410     1420     1200     1210     1080     1700     1600     1650   
                                           T        V       ECP      H0       H01     AOSYM    OPER      SMH    MOLCAS    

              2       4        0.73       700     1000      520     2100   
                                         GEOM     BASIS   MCVARS     RHF  

 PROGRAMS   *        TOTAL   RHF-SCF       INT
 CPU TIMES  *         4.06      0.44      3.24
 REAL TIME  *         5.17 SEC
 DISK USED  *        32.15 MB (local),        1.20 GB (total)
 GA USED    *         0.00 MB       (max)       0.00 MB       (current)
 **********************************************************************************************************************************
 SETTING NSING          =        12.00000000                                  
 SETTING NTRIP          =        16.00000000                                  

 PROGRAM * MULTI (Direct Multiconfiguration SCF)       Authors: P.J. Knowles, H.-J. Werner (1984)
                                                                D.A. Kreplin, P.J. Knowles, H.-J. Werner (2019)

 Number of closed-shell orbitals:   4 (    1    3)
 Number of active  orbitals:       13 (    7    6)
 Number of external orbitals:     196 (   93  103)

 State symmetry 1

 Number of active electrons:   2    Spin symmetry=Singlet   Space symmetry=1
 Number of states:            12
 Number of CSFs:              49   (85 determinants, 169 intermediate states)

 State symmetry 2

 Number of active electrons:   2    Spin symmetry=Triplet   Space symmetry=1
 Number of states:            16
 Number of CSFs:              36   (36 determinants, 78 intermediate states)

 Molecular orbitals read from record     2100.2  Type=RHF/CANONICAL  
 *** IN SYMMETRY 1 ORBITAL  5 SYMMETRY CONTAMINATION OF 0.224D+00 HAS BEEN REMOVED
 *** IN SYMMETRY 1 ORBITAL  6 SYMMETRY CONTAMINATION OF 0.392D+00 HAS BEEN REMOVED
 *** IN SYMMETRY 1 ORBITAL  7 SYMMETRY CONTAMINATION OF 0.558D+00 HAS BEEN REMOVED
 *** IN SYMMETRY 1 ORBITAL  8 SYMMETRY CONTAMINATION OF 0.484D+00 HAS BEEN REMOVED

 EXTRA SYMMETRY OF MOS IN SYMMETRY 1:   1 1 1 2 4 6 5 3 2 6   4 3 5 1 2 6 4 5 3 8  12 911 714151310 1 2   4 6 3 5 1 2 4 6 3 5
                                       11 9 81213101514 7 2   4 6 3 5 111 912 814  15 71310 2 3 4 6 5 9  1112 81514 71310 111
                                        912 81514 71310 3 4   6 5 2 6 3 4 5 2 1 1   1
 *** IN SYMMETRY 2 ORBITAL  1 SYMMETRY CONTAMINATION OF 0.115D-02 HAS BEEN REMOVED
 *** IN SYMMETRY 2 ORBITAL  2 SYMMETRY CONTAMINATION OF 0.113D-02 HAS BEEN REMOVED
 *** IN SYMMETRY 2 ORBITAL  3 SYMMETRY CONTAMINATION OF 0.290D-04 HAS BEEN REMOVED
 *** IN SYMMETRY 2 ORBITAL  5 SYMMETRY CONTAMINATION OF 0.709D-01 HAS BEEN REMOVED
 *** IN SYMMETRY 2 ORBITAL  6 SYMMETRY CONTAMINATION OF 0.709D-01 HAS BEEN REMOVED
 *** IN SYMMETRY 2 ORBITAL  7 SYMMETRY CONTAMINATION OF 0.131D-02 HAS BEEN REMOVED
 *** IN SYMMETRY 2 ORBITAL  9 SYMMETRY CONTAMINATION OF 0.131D-02 HAS BEEN REMOVED
 EXTRA SYMMETRY OF MOS IN SYMMETRY 2:   3 2 1 1 2 3 3 1 2 3   1 2 5 4 6 810 9 7 3   1 21211151719211314  161820 3 1 2 810 5 4
                                        6 9 7 7 9 810 5 4 6   3 2 1 6 5 410 8 9 7  19132116141517111218  20 3 2 1 810 9 7 5 4
                                        6 3 2 1111219201816  1415172113 5 410 8 6   9 7 9 7 5 410 8 6 3   1 2

 Wavefunction dump at record             2140.2

 Convergence thresholds  0.10E-04 (gradient)  0.10E-05 (energy)

 Weight factors for state symmetry  1:    0.03571   0.03571   0.03571   0.03571   0.03571   0.03571   0.03571   0.03571
                                          0.03571   0.03571   0.03571   0.03571
 Weight factors for state symmetry  2:    0.03571   0.03571   0.03571   0.03571   0.03571   0.03571   0.03571   0.03571
                                          0.03571   0.03571   0.03571   0.03571   0.03571   0.03571   0.03571   0.03571
 
 Number of orbital rotations:  1696  ( 25 closed/active, 402 closed/virtual, 0 active/active, 1269 active/virtual )
 Total number of variables:    3292
 
 Second-order MCSCF: L-BFGS accelerated
 
 ITER  MIC  NCI  NEG     ENERGY(VAR)    ENERGY(PROJ) ENERGY CHANGE       GRAD(0)  GRAD(ORB)   GRAD(CI)      STEP      TIME
   1   14   26    5    -24.93788351     -25.04449567   -0.10661216    0.05363768 0.00011949 0.00000000  0.26E+01      1.94
   2    8   14    0    -25.01826414     -25.02598074   -0.00771660    0.04812052 0.00010056 0.00000000  0.58E+00      3.56
   3    8   14    0    -25.02605992     -25.02606617   -0.00000625    0.00107469 0.00000018 0.00000000  0.15E-01      5.18
   4    5   10    0    -25.02606618     -25.02606618   -0.00000000    0.00000245 0.00000001 0.00000000  0.33E-04      6.48

 CONVERGENCE REACHED!  Final gradient:    0.00000001 ( 0.79E-08)
                       Final energy:    -25.02606618
 
 Results for state 1.1 Singlet
 =============================
 !MCSCF STATE 1.1 Singlet Energy               -25.117274333389
 Nuclear energy                                  0.00000000
 Kinetic energy                                  6.63394703
 One electron energy                           -41.20243299
 Two electron energy                            16.08515866
 Virial ratio                                    4.78617349
 
 !MCSCF STATE 1.1 Singlet Dipole moment          0.00000000     0.00000000     0.00000000
 Dipole moment /Debye                            0.00000000     0.00000000     0.00000000
 
 Results for state 2.1 Singlet
 =============================
 !MCSCF STATE 2.1 Singlet Energy               -25.054515074453
 Nuclear energy                                  0.00000000
 Kinetic energy                                  6.82369368
 One electron energy                           -41.43179172
 Two electron energy                            16.37727665
 Virial ratio                                    4.67169399
 
 !MCSCF STATE 2.1 Singlet Dipole moment          0.00000000     0.00000000     0.00000000
 Dipole moment /Debye                            0.00000000     0.00000000     0.00000000
 
 Results for state 3.1 Singlet
 =============================
 !MCSCF STATE 3.1 Singlet Energy               -25.054515074390
 Nuclear energy                                  0.00000000
 Kinetic energy                                  6.82369368
 One electron energy                           -41.43179172
 Two electron energy                            16.37727664
 Virial ratio                                    4.67169399
 
 !MCSCF STATE 3.1 Singlet Dipole moment          0.00000000     0.00000000     0.00000000
 Dipole moment /Debye                            0.00000000     0.00000000     0.00000000
 
 Results for state 4.1 Singlet
 =============================
 !MCSCF STATE 4.1 Singlet Energy               -25.054515074244
 Nuclear energy                                  0.00000000
 Kinetic energy                                  6.82369367
 One electron energy                           -41.43179171
 Two electron energy                            16.37727663
 Virial ratio                                    4.67169399
 
 !MCSCF STATE 4.1 Singlet Dipole moment          0.00000000     0.00000000     0.00000000
 Dipole moment /Debye                            0.00000000     0.00000000     0.00000000
 
 Results for state 5.1 Singlet
 =============================
 !MCSCF STATE 5.1 Singlet Energy               -25.054515073983
 Nuclear energy                                  0.00000000
 Kinetic energy                                  6.82369367
 One electron energy                           -41.43179169
 Two electron energy                            16.37727662
 Virial ratio                                    4.67169400
 
 !MCSCF STATE 5.1 Singlet Dipole moment          0.00000000     0.00000000     0.00000000
 Dipole moment /Debye                            0.00000000     0.00000000     0.00000000
 
 Results for state 6.1 Singlet
 =============================
 !MCSCF STATE 6.1 Singlet Energy               -25.054515073884
 Nuclear energy                                  0.00000000
 Kinetic energy                                  6.82369366
 One electron energy                           -41.43179168
 Two electron energy                            16.37727661
 Virial ratio                                    4.67169400
 
 !MCSCF STATE 6.1 Singlet Dipole moment          0.00000000     0.00000000     0.00000000
 Dipole moment /Debye                            0.00000000     0.00000000     0.00000000
 
 Results for state 7.1 Singlet
 =============================
 !MCSCF STATE 7.1 Singlet Energy               -25.000006503613
 Nuclear energy                                  0.00000000
 Kinetic energy                                  6.96462275
 One electron energy                           -41.57556031
 Two electron energy                            16.57555380
 Virial ratio                                    4.58957080
 
 !MCSCF STATE 7.1 Singlet Dipole moment          0.00000000     0.00000000     0.00000000
 Dipole moment /Debye                            0.00000000     0.00000000     0.00000000
 
 Results for state 8.1 Singlet
 =============================
 !MCSCF STATE 8.1 Singlet Energy               -25.000006503536
 Nuclear energy                                  0.00000000
 Kinetic energy                                  6.96462276
 One electron energy                           -41.57556031
 Two electron energy                            16.57555381
 Virial ratio                                    4.58957080
 
 !MCSCF STATE 8.1 Singlet Dipole moment          0.00000000     0.00000000     0.00000000
 Dipole moment /Debye                            0.00000000     0.00000000     0.00000000
 
 Results for state 9.1 Singlet
 =============================
 !MCSCF STATE 9.1 Singlet Energy               -25.000006503420
 Nuclear energy                                  0.00000000
 Kinetic energy                                  6.96462276
 One electron energy                           -41.57556032
 Two electron energy                            16.57555382
 Virial ratio                                    4.58957080
 
 !MCSCF STATE 9.1 Singlet Dipole moment          0.00000000     0.00000000     0.00000000
 Dipole moment /Debye                            0.00000000     0.00000000     0.00000000
 
 Results for state 10.1 Singlet
 ==============================
 !MCSCF STATE 10.1 Singlet Energy              -25.000006503419
 Nuclear energy                                  0.00000000
 Kinetic energy                                  6.96462276
 One electron energy                           -41.57556032
 Two electron energy                            16.57555382
 Virial ratio                                    4.58957080
 
 !MCSCF STATE 10.1 Singlet Dipole moment         0.00000000     0.00000000     0.00000000
 Dipole moment /Debye                            0.00000000     0.00000000     0.00000000
 
 Results for state 11.1 Singlet
 ==============================
 !MCSCF STATE 11.1 Singlet Energy              -25.000006503344
 Nuclear energy                                  0.00000000
 Kinetic energy                                  6.96462276
 One electron energy                           -41.57556032
 Two electron energy                            16.57555382
 Virial ratio                                    4.58957080
 
 !MCSCF STATE 11.1 Singlet Dipole moment         0.00000000     0.00000000     0.00000000
 Dipole moment /Debye                            0.00000000     0.00000000     0.00000000
 
 Results for state 12.1 Singlet
 ==============================
 !MCSCF STATE 12.1 Singlet Energy              -24.998520469613
 Nuclear energy                                  0.00000000
 Kinetic energy                                  6.62333439
 One electron energy                           -40.45982306
 Two electron energy                            15.46130259
 Virial ratio                                    4.77431049
 
 !MCSCF STATE 12.1 Singlet Dipole moment         0.00000000     0.00000000     0.00000000
 Dipole moment /Debye                            0.00000000     0.00000000     0.00000000
 
 Results for state 1.1 Triplet
 =============================
 !MCSCF STATE 1.1 Triplet Energy               -25.061177929925
 Nuclear energy                                  0.00000000
 Kinetic energy                                  6.83352046
 One electron energy                           -41.52227264
 Two electron energy                            16.46109471
 Virial ratio                                    4.66738902
 
 !MCSCF STATE 1.1 Triplet Dipole moment          0.00000000     0.00000000     0.00000000
 Dipole moment /Debye                            0.00000000     0.00000000     0.00000000
 
 Results for state 2.1 Triplet
 =============================
 !MCSCF STATE 2.1 Triplet Energy               -25.061177929883
 Nuclear energy                                  0.00000000
 Kinetic energy                                  6.83352046
 One electron energy                           -41.52227264
 Two electron energy                            16.46109471
 Virial ratio                                    4.66738902
 
 !MCSCF STATE 2.1 Triplet Dipole moment          0.00000000     0.00000000     0.00000000
 Dipole moment /Debye                            0.00000000     0.00000000     0.00000000
 
 Results for state 3.1 Triplet
 =============================
 !MCSCF STATE 3.1 Triplet Energy               -25.061177929679
 Nuclear energy                                  0.00000000
 Kinetic energy                                  6.83352046
 One electron energy                           -41.52227263
 Two electron energy                            16.46109470
 Virial ratio                                    4.66738903
 
 !MCSCF STATE 3.1 Triplet Dipole moment          0.00000000     0.00000000     0.00000000
 Dipole moment /Debye                            0.00000000     0.00000000     0.00000000
 
 Results for state 4.1 Triplet
 =============================
 !MCSCF STATE 4.1 Triplet Energy               -25.061177929358
 Nuclear energy                                  0.00000000
 Kinetic energy                                  6.83352045
 One electron energy                           -41.52227261
 Two electron energy                            16.46109468
 Virial ratio                                    4.66738903
 
 !MCSCF STATE 4.1 Triplet Dipole moment          0.00000000     0.00000000     0.00000000
 Dipole moment /Debye                            0.00000000     0.00000000     0.00000000
 
 Results for state 5.1 Triplet
 =============================
 !MCSCF STATE 5.1 Triplet Energy               -25.061177929256
 Nuclear energy                                  0.00000000
 Kinetic energy                                  6.83352045
 One electron energy                           -41.52227261
 Two electron energy                            16.46109468
 Virial ratio                                    4.66738903
 
 !MCSCF STATE 5.1 Triplet Dipole moment          0.00000000     0.00000000     0.00000000
 Dipole moment /Debye                            0.00000000     0.00000000     0.00000000
 
 Results for state 6.1 Triplet
 =============================
 !MCSCF STATE 6.1 Triplet Energy               -25.004467717750
 Nuclear energy                                  0.00000000
 Kinetic energy                                  7.06533416
 One electron energy                           -41.89027737
 Two electron energy                            16.88580965
 Virial ratio                                    4.53903540
 
 !MCSCF STATE 6.1 Triplet Dipole moment          0.00000000     0.00000000     0.00000000
 Dipole moment /Debye                            0.00000000     0.00000000     0.00000000
 
 Results for state 7.1 Triplet
 =============================
 !MCSCF STATE 7.1 Triplet Energy               -25.004467717726
 Nuclear energy                                  0.00000000
 Kinetic energy                                  7.06533416
 One electron energy                           -41.89027736
 Two electron energy                            16.88580964
 Virial ratio                                    4.53903540
 
 !MCSCF STATE 7.1 Triplet Dipole moment          0.00000000     0.00000000     0.00000000
 Dipole moment /Debye                            0.00000000     0.00000000     0.00000000
 
 Results for state 8.1 Triplet
 =============================
 !MCSCF STATE 8.1 Triplet Energy               -25.004467717718
 Nuclear energy                                  0.00000000
 Kinetic energy                                  7.06533415
 One electron energy                           -41.89027736
 Two electron energy                            16.88580964
 Virial ratio                                    4.53903541
 
 !MCSCF STATE 8.1 Triplet Dipole moment          0.00000000     0.00000000     0.00000000
 Dipole moment /Debye                            0.00000000     0.00000000     0.00000000
 
 Results for state 9.1 Triplet
 =============================
 !MCSCF STATE 9.1 Triplet Energy               -25.004467717705
 Nuclear energy                                  0.00000000
 Kinetic energy                                  7.06533415
 One electron energy                           -41.89027736
 Two electron energy                            16.88580964
 Virial ratio                                    4.53903541
 
 !MCSCF STATE 9.1 Triplet Dipole moment          0.00000000     0.00000000     0.00000000
 Dipole moment /Debye                            0.00000000     0.00000000     0.00000000
 
 Results for state 10.1 Triplet
 ==============================
 !MCSCF STATE 10.1 Triplet Energy              -25.004467717655
 Nuclear energy                                  0.00000000
 Kinetic energy                                  7.06533415
 One electron energy                           -41.89027735
 Two electron energy                            16.88580963
 Virial ratio                                    4.53903541
 
 !MCSCF STATE 10.1 Triplet Dipole moment         0.00000000     0.00000000     0.00000000
 Dipole moment /Debye                            0.00000000     0.00000000     0.00000000
 
 Results for state 11.1 Triplet
 ==============================
 !MCSCF STATE 11.1 Triplet Energy              -25.004467717643
 Nuclear energy                                  0.00000000
 Kinetic energy                                  7.06533414
 One electron energy                           -41.89027733
 Two electron energy                            16.88580961
 Virial ratio                                    4.53903541
 
 !MCSCF STATE 11.1 Triplet Dipole moment         0.00000000     0.00000000     0.00000000
 Dipole moment /Debye                            0.00000000     0.00000000     0.00000000
 
 Results for state 12.1 Triplet
 ==============================
 !MCSCF STATE 12.1 Triplet Energy              -25.004467717593
 Nuclear energy                                  0.00000000
 Kinetic energy                                  7.06533413
 One electron energy                           -41.89027731
 Two electron energy                            16.88580959
 Virial ratio                                    4.53903541
 
 !MCSCF STATE 12.1 Triplet Dipole moment         0.00000000     0.00000000     0.00000000
 Dipole moment /Debye                            0.00000000     0.00000000     0.00000000
 
 Results for state 13.1 Triplet
 ==============================
 !MCSCF STATE 13.1 Triplet Energy              -25.003628748697
 Nuclear energy                                  0.00000000
 Kinetic energy                                  6.54115535
 One electron energy                           -40.18982262
 Two electron energy                            15.18619387
 Virial ratio                                    4.82250954
 
 !MCSCF STATE 13.1 Triplet Dipole moment         0.00000000     0.00000000     0.00000000
 Dipole moment /Debye                            0.00000000     0.00000000     0.00000000
 
 Results for state 14.1 Triplet
 ==============================
 !MCSCF STATE 14.1 Triplet Energy              -25.000219296525
 Nuclear energy                                  0.00000000
 Kinetic energy                                  6.92265231
 One electron energy                           -41.45568359
 Two electron energy                            16.45546430
 Virial ratio                                    4.61136429
 
 !MCSCF STATE 14.1 Triplet Dipole moment         0.00000000     0.00000000     0.00000000
 Dipole moment /Debye                            0.00000000     0.00000000     0.00000000
 
 Results for state 15.1 Triplet
 ==============================
 !MCSCF STATE 15.1 Triplet Energy              -25.000219296518
 Nuclear energy                                  0.00000000
 Kinetic energy                                  6.92265231
 One electron energy                           -41.45568360
 Two electron energy                            16.45546430
 Virial ratio                                    4.61136428
 
 !MCSCF STATE 15.1 Triplet Dipole moment         0.00000000     0.00000000     0.00000000
 Dipole moment /Debye                            0.00000000     0.00000000     0.00000000
 
 Results for state 16.1 Triplet
 ==============================
 !MCSCF STATE 16.1 Triplet Energy              -25.000219296447
 Nuclear energy                                  0.00000000
 Kinetic energy                                  6.92265231
 One electron energy                           -41.45568360
 Two electron energy                            16.45546430
 Virial ratio                                    4.61136428
 
 !MCSCF STATE 16.1 Triplet Dipole moment         0.00000000     0.00000000     0.00000000
 Dipole moment /Debye                            0.00000000     0.00000000     0.00000000
 
 State-averaged charge density matrix saved on record 2140.2 (density set 1)
 
 No non-zero expectation values
 
 Expectation values for two-electron operators:
 
 !MCSCF expec      <1.1 Singlet|LXLX|1.1 Singlet>     0.000000000000
 !MCSCF expec      <2.1 Singlet|LXLX|2.1 Singlet>     3.999999999998
 !MCSCF expec      <3.1 Singlet|LXLX|3.1 Singlet>     1.000000000000
 !MCSCF expec      <4.1 Singlet|LXLX|4.1 Singlet>     1.134857227096
 !MCSCF expec      <5.1 Singlet|LXLX|5.1 Singlet>     1.000000000039
 !MCSCF expec      <6.1 Singlet|LXLX|6.1 Singlet>     2.865142067381
 !MCSCF expec      <7.1 Singlet|LXLX|7.1 Singlet>     3.767108117196
 !MCSCF expec      <8.1 Singlet|LXLX|8.1 Singlet>     1.000000000015
 !MCSCF expec      <9.1 Singlet|LXLX|9.1 Singlet>     3.999999993318
 !MCSCF expec    <10.1 Singlet|LXLX|10.1 Singlet>     0.232889249571
 !MCSCF expec    <11.1 Singlet|LXLX|11.1 Singlet>     1.000000000000
 !MCSCF expec    <12.1 Singlet|LXLX|12.1 Singlet>     0.000000000000
 !MCSCF expec      <1.1 Triplet|LXLX|1.1 Triplet>     1.000000000000
 !MCSCF expec      <2.1 Triplet|LXLX|2.1 Triplet>     4.000000000000
 !MCSCF expec      <3.1 Triplet|LXLX|3.1 Triplet>     0.534406060127
 !MCSCF expec      <4.1 Triplet|LXLX|4.1 Triplet>     1.000000000002
 !MCSCF expec      <5.1 Triplet|LXLX|5.1 Triplet>     3.465594117321
 !MCSCF expec      <6.1 Triplet|LXLX|6.1 Triplet>     4.563546551948
 !MCSCF expec      <7.1 Triplet|LXLX|7.1 Triplet>     1.759440729539
 !MCSCF expec      <8.1 Triplet|LXLX|8.1 Triplet>     3.201470416480
 !MCSCF expec      <9.1 Triplet|LXLX|9.1 Triplet>     0.798530085360
 !MCSCF expec    <10.1 Triplet|LXLX|10.1 Triplet>     8.240555903495
 !MCSCF expec    <11.1 Triplet|LXLX|11.1 Triplet>     3.999999999982
 !MCSCF expec    <12.1 Triplet|LXLX|12.1 Triplet>     5.436454747537
 !MCSCF expec    <13.1 Triplet|LXLX|13.1 Triplet>     0.000000000000
 !MCSCF expec    <14.1 Triplet|LXLX|14.1 Triplet>     1.000000000000
 !MCSCF expec    <15.1 Triplet|LXLX|15.1 Triplet>     1.000000000000
 !MCSCF expec    <16.1 Triplet|LXLX|16.1 Triplet>     0.000000000001
 
 !MCSCF expec      <1.1 Singlet|LYLY|1.1 Singlet>     0.000000000000
 !MCSCF expec      <2.1 Singlet|LYLY|2.1 Singlet>     1.000000000002
 !MCSCF expec      <3.1 Singlet|LYLY|3.1 Singlet>     4.000000000000
 !MCSCF expec      <4.1 Singlet|LYLY|4.1 Singlet>     0.870954920457
 !MCSCF expec      <5.1 Singlet|LYLY|5.1 Singlet>     1.000000000005
 !MCSCF expec      <6.1 Singlet|LYLY|6.1 Singlet>     3.129045725409
 !MCSCF expec      <7.1 Singlet|LYLY|7.1 Singlet>     1.927615884500
 !MCSCF expec      <8.1 Singlet|LYLY|8.1 Singlet>     1.000000000012
 !MCSCF expec      <9.1 Singlet|LYLY|9.1 Singlet>     1.000000001901
 !MCSCF expec    <10.1 Singlet|LYLY|10.1 Singlet>     2.072389774211
 !MCSCF expec    <11.1 Singlet|LYLY|11.1 Singlet>     4.000000000000
 !MCSCF expec    <12.1 Singlet|LYLY|12.1 Singlet>     0.000000000000
 !MCSCF expec      <1.1 Triplet|LYLY|1.1 Triplet>     4.000000000000
 !MCSCF expec      <2.1 Triplet|LYLY|2.1 Triplet>     1.000000000000
 !MCSCF expec      <3.1 Triplet|LYLY|3.1 Triplet>     1.554227581841
 !MCSCF expec      <4.1 Triplet|LYLY|4.1 Triplet>     1.000000000000
 !MCSCF expec      <5.1 Triplet|LYLY|5.1 Triplet>     2.445772163937
 !MCSCF expec      <6.1 Triplet|LYLY|6.1 Triplet>     7.306826253601
 !MCSCF expec      <7.1 Triplet|LYLY|7.1 Triplet>     3.540312409192
 !MCSCF expec      <8.1 Triplet|LYLY|8.1 Triplet>     7.495513836106
 !MCSCF expec      <9.1 Triplet|LYLY|9.1 Triplet>     2.504485182905
 !MCSCF expec    <10.1 Triplet|LYLY|10.1 Triplet>     0.459685759100
 !MCSCF expec    <11.1 Triplet|LYLY|11.1 Triplet>     4.000000000037
 !MCSCF expec    <12.1 Triplet|LYLY|12.1 Triplet>     2.693172678378
 !MCSCF expec    <13.1 Triplet|LYLY|13.1 Triplet>     0.000000000000
 !MCSCF expec    <14.1 Triplet|LYLY|14.1 Triplet>     1.000000000000
 !MCSCF expec    <15.1 Triplet|LYLY|15.1 Triplet>     0.000000000000
 !MCSCF expec    <16.1 Triplet|LYLY|16.1 Triplet>     1.000000000000
 
 !MCSCF expec      <1.1 Singlet|LZLZ|1.1 Singlet>    -0.000000000000
 !MCSCF expec      <2.1 Singlet|LZLZ|2.1 Singlet>     1.000000000000
 !MCSCF expec      <3.1 Singlet|LZLZ|3.1 Singlet>     1.000000000000
 !MCSCF expec      <4.1 Singlet|LZLZ|4.1 Singlet>     3.994187852448
 !MCSCF expec      <5.1 Singlet|LZLZ|5.1 Singlet>     3.999999999956
 !MCSCF expec      <6.1 Singlet|LZLZ|6.1 Singlet>     0.005812207209
 !MCSCF expec      <7.1 Singlet|LZLZ|7.1 Singlet>     0.305275998304
 !MCSCF expec      <8.1 Singlet|LZLZ|8.1 Singlet>     3.999999999973
 !MCSCF expec      <9.1 Singlet|LZLZ|9.1 Singlet>     1.000000004781
 !MCSCF expec    <10.1 Singlet|LZLZ|10.1 Singlet>     3.694720976218
 !MCSCF expec    <11.1 Singlet|LZLZ|11.1 Singlet>     1.000000000000
 !MCSCF expec    <12.1 Singlet|LZLZ|12.1 Singlet>    -0.000000000000
 !MCSCF expec      <1.1 Triplet|LZLZ|1.1 Triplet>     1.000000000000
 !MCSCF expec      <2.1 Triplet|LZLZ|2.1 Triplet>     1.000000000000
 !MCSCF expec      <3.1 Triplet|LZLZ|3.1 Triplet>     3.911366358032
 !MCSCF expec      <4.1 Triplet|LZLZ|4.1 Triplet>     3.999999999998
 !MCSCF expec      <5.1 Triplet|LZLZ|5.1 Triplet>     0.088633718742
 !MCSCF expec      <6.1 Triplet|LZLZ|6.1 Triplet>     0.129627194451
 !MCSCF expec      <7.1 Triplet|LZLZ|7.1 Triplet>     6.700246861270
 !MCSCF expec      <8.1 Triplet|LZLZ|8.1 Triplet>     1.303015747414
 !MCSCF expec      <9.1 Triplet|LZLZ|9.1 Triplet>     8.696984731735
 !MCSCF expec    <10.1 Triplet|LZLZ|10.1 Triplet>     3.299758337406
 !MCSCF expec    <11.1 Triplet|LZLZ|11.1 Triplet>     3.999999999981
 !MCSCF expec    <12.1 Triplet|LZLZ|12.1 Triplet>     3.870372574084
 !MCSCF expec    <13.1 Triplet|LZLZ|13.1 Triplet>    -0.000000000000
 !MCSCF expec    <14.1 Triplet|LZLZ|14.1 Triplet>     0.000000000000
 !MCSCF expec    <15.1 Triplet|LZLZ|15.1 Triplet>     1.000000000000
 !MCSCF expec    <16.1 Triplet|LZLZ|16.1 Triplet>     0.999999999999
 
 !MCSCF expec      <1.1 Singlet|L**2|1.1 Singlet>    -0.000000000000
 !MCSCF expec      <2.1 Singlet|L**2|2.1 Singlet>     6.000000000000
 !MCSCF expec      <3.1 Singlet|L**2|3.1 Singlet>     6.000000000000
 !MCSCF expec      <4.1 Singlet|L**2|4.1 Singlet>     6.000000000000
 !MCSCF expec      <5.1 Singlet|L**2|5.1 Singlet>     6.000000000000
 !MCSCF expec      <6.1 Singlet|L**2|6.1 Singlet>     6.000000000000
 !MCSCF expec      <7.1 Singlet|L**2|7.1 Singlet>     6.000000000000
 !MCSCF expec      <8.1 Singlet|L**2|8.1 Singlet>     6.000000000000
 !MCSCF expec      <9.1 Singlet|L**2|9.1 Singlet>     6.000000000000
 !MCSCF expec    <10.1 Singlet|L**2|10.1 Singlet>     6.000000000000
 !MCSCF expec    <11.1 Singlet|L**2|11.1 Singlet>     6.000000000000
 !MCSCF expec    <12.1 Singlet|L**2|12.1 Singlet>     0.000000000000
 !MCSCF expec      <1.1 Triplet|L**2|1.1 Triplet>     6.000000000000
 !MCSCF expec      <2.1 Triplet|L**2|2.1 Triplet>     6.000000000000
 !MCSCF expec      <3.1 Triplet|L**2|3.1 Triplet>     6.000000000000
 !MCSCF expec      <4.1 Triplet|L**2|4.1 Triplet>     6.000000000000
 !MCSCF expec      <5.1 Triplet|L**2|5.1 Triplet>     6.000000000000
 !MCSCF expec      <6.1 Triplet|L**2|6.1 Triplet>    12.000000000000
 !MCSCF expec      <7.1 Triplet|L**2|7.1 Triplet>    12.000000000000
 !MCSCF expec      <8.1 Triplet|L**2|8.1 Triplet>    12.000000000000
 !MCSCF expec      <9.1 Triplet|L**2|9.1 Triplet>    12.000000000000
 !MCSCF expec    <10.1 Triplet|L**2|10.1 Triplet>    12.000000000000
 !MCSCF expec    <11.1 Triplet|L**2|11.1 Triplet>    12.000000000000
 !MCSCF expec    <12.1 Triplet|L**2|12.1 Triplet>    12.000000000000
 !MCSCF expec    <13.1 Triplet|L**2|13.1 Triplet>    -0.000000000000
 !MCSCF expec    <14.1 Triplet|L**2|14.1 Triplet>     2.000000000000
 !MCSCF expec    <15.1 Triplet|L**2|15.1 Triplet>     2.000000000000
 !MCSCF expec    <16.1 Triplet|L**2|16.1 Triplet>     2.000000000000
 
 EXTRA SYMMETRY OF MOS IN SYMMETRY 1:   1 1 6 3 5 2 4 1 2 3   6 5 4 1 6 5 4 3 211  12 71415 81310 9 1 6   4 5 3 2 1 6 4 2 5 3
                                        9 71211 815141310 4   2 6 5 3 1 9 712 811  15141310 4 2 5 6 3 9   712 81115141310 1 9
                                        712 81114151310 4 2   5 3 6 4 2 5 3 6 1 1   1
 EXTRA SYMMETRY OF MOS IN SYMMETRY 2:   2 3 1 1 3 2 1 3 2 2   3 1 2 3 1 5 7 9 8 6  10 41213141619151721  112018 3 2 1 5 810 6
                                        7 9 4 4 6 510 8 9 7   3 1 2 4 610 5 8 7 9  11191321121416151718  20 3 1 2 4 610 8 5 9
                                        7 3 1 2111913211416  1215172018 4 610 8 5   9 7 4 610 8 5 9 7 3   1 2
 
  NATURAL ORBITALS (STATE AVERAGED)
  =================================

  Orbital  Occupation    Energy    Cen Mu Typ  Coefficients
    1.1     2.00000    -1.55872     1  1  s    0.99306
    2.1     0.45614    -0.03439     1  1  s   -0.31311    1  4  s    0.48663    1  5  s    0.65062
    3.1     0.25579     0.05486     1  1  d1-  0.25537    1  2  d1-  0.33919    1  3  d1-  0.36398
    4.1     0.25579     0.05486     1  1  d2-  0.25537    1  2  d2-  0.33919    1  3  d2-  0.36398
    5.1     0.25579     0.05486     1  1  d2+  0.25537    1  2  d2+  0.33919    1  3  d2+  0.36398
    6.1     0.25579     0.05486     1  1  d0   0.25537    1  2  d0   0.33919    1  3  d0   0.36398
    7.1     0.25579     0.05486     1  1  d1+  0.25537    1  2  d1+  0.33919    1  3  d1+  0.36398
    8.1     0.06706     0.04120     1  4  s   -0.69189    1  5  s   -0.82341    1  6  s    0.53064    1 11  s    1.01961
    1.2     2.00000    -0.86042     1  1  py   0.99179
    2.2     2.00000    -0.86042     1  1  pz   0.99179
    3.2     2.00000    -0.86042     1  1  px   0.99179
    4.2     0.06490     0.04956     1  1  px  -0.34943    1  2  px   0.25854    1  3  px   0.45984    1  4  px   0.38659
    5.2     0.06490     0.04956     1  1  pz  -0.34943    1  2  pz   0.25854    1  3  pz   0.45984    1  4  pz   0.38659
    6.2     0.06490     0.04956     1  1  py  -0.34943    1  2  py   0.25854    1  3  py   0.45984    1  4  py   0.38659
    7.2     0.00105     0.11209     1  1  px   0.35043    1  2  px  -0.74141    1  3  px  -0.71258    1  4  px   0.65774
                                    1  5  px   0.71948
    8.2     0.00105     0.11209     1  1  pz   0.35043    1  2  pz  -0.74141    1  3  pz  -0.71258    1  4  pz   0.65774
                                    1  5  pz   0.71948
    9.2     0.00105     0.11209     1  1  py   0.35043    1  2  py  -0.74141    1  3  py  -0.71258    1  4  py   0.65774
                                    1  5  py   0.71948
 
 Natural orbital dump (state averaged) at molpro section 2140.2 (Orbital set 2)
 
 Transform the CI vectors
 
 CI Coefficients of symmetry 1 (Singlet)
 =======================================

 State:                   1               2               3               4               5               6               7
 2000000 000000      0.95595963     -0.00000000     -0.00000000     -0.00000000      0.00000000     -0.00000000     -0.00000000
 a0000b0 000000      0.00000000     -0.00000047      0.64819874     -0.00000000      0.00000000      0.00000000      0.00000000
 b0000a0 000000     -0.00000000      0.00000047     -0.64819874      0.00000000     -0.00000000     -0.00000000     -0.00000000
 ba00000 000000     -0.00000000     -0.64819874     -0.00000047      0.00000021     -0.00000012      0.00000006     -0.00000000
 ab00000 000000      0.00000000      0.64819874      0.00000047     -0.00000021      0.00000012     -0.00000006      0.00000000
 b0a0000 000000      0.00000000      0.00000012      0.00000000     -0.00000105     -0.64819874     -0.00000211      0.00000005
 a0b0000 000000     -0.00000000     -0.00000012     -0.00000000      0.00000105      0.64819874      0.00000211     -0.00000005
 a00b000 000000      0.00000000      0.00000021      0.00000000      0.64772764     -0.00000096     -0.02470851     -0.01163650
 b00a000 000000     -0.00000000     -0.00000021     -0.00000000     -0.64772764      0.00000096      0.02470851      0.01163650
 a000b00 000000      0.00000000      0.00000007     -0.00000000      0.02470851     -0.00000215      0.64772764     -0.04048246
 b000a00 000000     -0.00000000     -0.00000007      0.00000000     -0.02470851      0.00000215     -0.64772764      0.04048246
 a00000b 000000     -0.03921747      0.00000000      0.00000000     -0.00000000      0.00000000     -0.00000000      0.00000000
 b00000a 000000      0.03921747     -0.00000000     -0.00000000      0.00000000     -0.00000000      0.00000000     -0.00000000
 00b0a00 000000     -0.00000000      0.00000002      0.00000000     -0.00000020     -0.12576341     -0.00000041     -0.00000061
 00a0b00 000000      0.00000000     -0.00000002     -0.00000000      0.00000020      0.12576341      0.00000041      0.00000061
 0200000 000000     -0.04250101      0.00000003      0.00000000      0.10643818      0.00000005     -0.06698768     -0.11290953
 0000200 000000     -0.04250101     -0.00000001      0.00000000     -0.00479394      0.00000042     -0.12567201     -0.44972234
 0020000 000000     -0.04250101      0.00000001     -0.00000000      0.00479394     -0.00000042      0.12567201      0.44972234
 000ab00 000000      0.00000000      0.00000004      0.00000000      0.12567201     -0.00000019     -0.00479394      0.12927061
 000ba00 000000     -0.00000000     -0.00000004     -0.00000000     -0.12567201      0.00000019      0.00479394     -0.12927061
 0002000 000000     -0.04250101      0.00000001     -0.00000000      0.00479394     -0.00000042      0.12567201      0.44972233
 00b00a0 000000      0.00000000      0.10891431      0.00000008     -0.00000004      0.00000002     -0.00000001     -0.00000002
 00a00b0 000000     -0.00000000     -0.10891431     -0.00000008      0.00000004     -0.00000002      0.00000001      0.00000002
 0ba0000 000000     -0.00000000     -0.00000008      0.10891431     -0.00000000      0.00000000      0.00000000     -0.00000003
 0ab0000 000000      0.00000000      0.00000008     -0.10891431      0.00000000     -0.00000000     -0.00000000      0.00000003
 000b0a0 000000     -0.00000000     -0.00000008      0.10891431     -0.00000000      0.00000000      0.00000000     -0.00000003
 000a0b0 000000      0.00000000      0.00000008     -0.10891431      0.00000000     -0.00000000     -0.00000000      0.00000003
 0b0a000 000000     -0.00000000     -0.10891431     -0.00000008      0.00000004     -0.00000002      0.00000001      0.00000002
 0a0b000 000000      0.00000000      0.10891431      0.00000008     -0.00000004      0.00000002     -0.00000001     -0.00000002
 0b000a0 000000     -0.00000000     -0.00000002     -0.00000000      0.00000018      0.10891431      0.00000035      0.00000053
 0a000b0 000000      0.00000000      0.00000002      0.00000000     -0.00000018     -0.10891431     -0.00000035     -0.00000053
 0000000 200000     -0.15158222     -0.00000006     -0.00000000     -0.21980171     -0.00000010      0.13833388     -0.09054589
 0000000 020000     -0.15158222     -0.00000003      0.00000000     -0.00989980      0.00000086     -0.25952081      0.36064718
 0000020 000000     -0.04250101     -0.00000004     -0.00000000     -0.11123212      0.00000037     -0.05868433     -0.33681279
 0000000 b0a000     -0.00000000     -0.00000004     -0.00000000      0.00000036      0.22491507      0.00000073     -0.00000042
 0000000 a0b000      0.00000000      0.00000004      0.00000000     -0.00000036     -0.22491507     -0.00000073      0.00000042
 0000000 ba0000      0.00000000     -0.00000016      0.22491507     -0.00000000      0.00000000      0.00000000      0.00000003
 0000000 ab0000     -0.00000000      0.00000016     -0.22491507      0.00000000     -0.00000000     -0.00000000     -0.00000003
 0000000 0ab000     -0.00000000     -0.22491507     -0.00000016      0.00000007     -0.00000004      0.00000002     -0.00000002
 0000000 0ba000      0.00000000      0.22491507      0.00000016     -0.00000007      0.00000004     -0.00000002      0.00000002
 0000000 002000     -0.15158222      0.00000009      0.00000000      0.22970151     -0.00000077      0.12118693     -0.27010130
 0000ba0 000000      0.00000000     -0.00000005      0.06288171     -0.00000000      0.00000000      0.00000000     -0.00000002
 0000ab0 000000     -0.00000000      0.00000005     -0.06288171      0.00000000     -0.00000000     -0.00000000      0.00000002
 0b00a00 000000      0.00000000      0.06288171      0.00000005     -0.00000002      0.00000001     -0.00000001     -0.00000001
 0a00b00 000000     -0.00000000     -0.06288171     -0.00000005      0.00000002     -0.00000001      0.00000001      0.00000001
 0000002 000000     -0.01749178      0.00000000      0.00000000      0.00000000     -0.00000000      0.00000000     -0.00000000
 0a0000b 000000      0.00000000      0.02855734      0.00000002     -0.00000001      0.00000001     -0.00000000      0.00000000
 0b0000a 000000     -0.00000000     -0.02855734     -0.00000002      0.00000001     -0.00000001      0.00000000     -0.00000000
 00000ba 000000      0.00000000      0.00000002     -0.02855734      0.00000000     -0.00000000     -0.00000000     -0.00000001
 00000ab 000000     -0.00000000     -0.00000002      0.02855734     -0.00000000      0.00000000      0.00000000      0.00000001
 00a000b 000000     -0.00000000     -0.00000001     -0.00000000      0.00000005      0.02855734      0.00000009     -0.00000013
 00b000a 000000      0.00000000      0.00000001      0.00000000     -0.00000005     -0.02855734     -0.00000009      0.00000013
 000b00a 000000     -0.00000000     -0.00000001     -0.00000000     -0.02853659      0.00000004      0.00108857      0.02677309
 000a00b 000000      0.00000000      0.00000001      0.00000000      0.02853659     -0.00000004     -0.00108857     -0.02677309
 0000a0b 000000      0.00000000      0.00000000     -0.00000000      0.00108857     -0.00000009      0.02853658     -0.09314149
 0000b0a 000000     -0.00000000     -0.00000000      0.00000000     -0.00108857      0.00000009     -0.02853658      0.09314149
 0000000 00b00a     -0.02753527      0.00000001      0.00000000      0.01923062     -0.00000006      0.01014578      0.00375274
 0000000 00a00b      0.02753527     -0.00000001     -0.00000000     -0.01923062      0.00000006     -0.01014578     -0.00375274
 0000000 a00b00      0.02753527      0.00000000      0.00000000      0.01840181      0.00000001     -0.01158132     -0.00125803
 0000000 b00a00     -0.02753527     -0.00000000     -0.00000000     -0.01840181     -0.00000001      0.01158132      0.00125803
 0000000 0b00a0     -0.02753527     -0.00000000      0.00000000     -0.00082881      0.00000007     -0.02172710     -0.00501077
 0000000 0a00b0      0.02753527      0.00000000     -0.00000000      0.00082881     -0.00000007      0.02172710      0.00501077
 
 Energy:           -25.11727433    -25.05451507    -25.05451507    -25.05451507    -25.05451507    -25.05451507    -25.00000650

 State:                   8               9              10              11              12
 2000000 000000     -0.00000000     -0.00000000     -0.00000000      0.00000000      0.01982435
 a0000b0 000000      0.00000000     -0.00000000      0.00000003      0.04212170     -0.00000000
 b0000a0 000000     -0.00000000      0.00000000     -0.00000003     -0.04212170      0.00000000
 ba00000 000000     -0.00000001      0.04212170     -0.00000177      0.00000000      0.00000000
 ab00000 000000      0.00000001     -0.04212170      0.00000177     -0.00000000     -0.00000000
 b0a0000 000000      0.04212170      0.00000001     -0.00000002     -0.00000000      0.00000000
 a0b0000 000000     -0.04212170     -0.00000001      0.00000002      0.00000000     -0.00000000
 a00b000 000000     -0.00000001     -0.00000171     -0.04048246      0.00000003     -0.00000000
 b00a000 000000      0.00000001      0.00000171      0.04048246     -0.00000003      0.00000000
 a000b00 000000      0.00000006      0.00000049      0.01163649     -0.00000001      0.00000000
 b000a00 000000     -0.00000006     -0.00000049     -0.01163649      0.00000001     -0.00000000
 a00000b 000000     -0.00000000     -0.00000000     -0.00000002      0.00000000      0.61491456
 b00000a 000000      0.00000000      0.00000000      0.00000002     -0.00000000     -0.61491456
 00b0a00 000000     -0.46793276     -0.00000012      0.00000027      0.00000000     -0.00000000
 00a0b00 000000      0.46793276      0.00000012     -0.00000027     -0.00000000      0.00000000
 0200000 000000      0.00000041      0.00001912      0.45410625     -0.00000033      0.14648706
 0000200 000000      0.00000066      0.00000542      0.12927060     -0.00000006      0.14648707
 0020000 000000     -0.00000066     -0.00000542     -0.12927061      0.00000006      0.14648705
 000ab00 000000      0.00000009      0.00001894      0.44972234     -0.00000035      0.00000001
 000ba00 000000     -0.00000009     -0.00001894     -0.44972234      0.00000035     -0.00000001
 0002000 000000     -0.00000066     -0.00000542     -0.12927061      0.00000006      0.14648705
 00b00a0 000000     -0.00000010      0.40524166     -0.00001706      0.00000000      0.00000000
 00a00b0 000000      0.00000010     -0.40524166      0.00001706     -0.00000000     -0.00000000
 0ba0000 000000     -0.00000000      0.00000000     -0.00000031     -0.40524165      0.00000000
 0ab0000 000000      0.00000000     -0.00000000      0.00000031      0.40524165     -0.00000000
 000b0a0 000000     -0.00000000      0.00000000     -0.00000031     -0.40524165      0.00000000
 000a0b0 000000      0.00000000     -0.00000000      0.00000031      0.40524165     -0.00000000
 0b0a000 000000      0.00000010     -0.40524165      0.00001706     -0.00000000     -0.00000000
 0a0b000 000000     -0.00000010      0.40524165     -0.00001706      0.00000000      0.00000000
 0b000a0 000000      0.40524165      0.00000010     -0.00000023     -0.00000000      0.00000000
 0a000b0 000000     -0.40524165     -0.00000010      0.00000023      0.00000000     -0.00000000
 0000000 200000      0.00000033      0.00001533      0.36416281     -0.00000027     -0.15621893
 0000000 020000     -0.00000053     -0.00000435     -0.10366636      0.00000005     -0.15621894
 0000020 000000      0.00000025     -0.00001370     -0.32483566      0.00000027      0.14648704
 0000000 b0a000     -0.32497666     -0.00000008      0.00000019      0.00000000     -0.00000000
 0000000 a0b000      0.32497666      0.00000008     -0.00000019     -0.00000000      0.00000000
 0000000 ba0000      0.00000000     -0.00000000      0.00000025      0.32497666     -0.00000000
 0000000 ab0000     -0.00000000      0.00000000     -0.00000025     -0.32497666      0.00000000
 0000000 0ab000     -0.00000008      0.32497666     -0.00001368      0.00000000      0.00000000
 0000000 0ba000      0.00000008     -0.32497666      0.00001368     -0.00000000     -0.00000000
 0000000 002000      0.00000020     -0.00001098     -0.26049643      0.00000022     -0.15621895
 0000ba0 000000     -0.00000000      0.00000000     -0.00000018     -0.23396638      0.00000000
 0000ab0 000000      0.00000000     -0.00000000      0.00000018      0.23396638     -0.00000000
 0b00a00 000000     -0.00000006      0.23396638     -0.00000985      0.00000000      0.00000000
 0a00b00 000000      0.00000006     -0.23396638      0.00000985     -0.00000000     -0.00000000
 0000002 000000      0.00000000      0.00000000      0.00000000     -0.00000000     -0.15915409
 0a0000b 000000      0.00000002     -0.09691303      0.00000408     -0.00000000     -0.00000000
 0b0000a 000000     -0.00000002      0.09691303     -0.00000408      0.00000000      0.00000000
 00000ba 000000     -0.00000000      0.00000000     -0.00000007     -0.09691303      0.00000000
 00000ab 000000      0.00000000     -0.00000000      0.00000007      0.09691303     -0.00000000
 00a000b 000000     -0.09691303     -0.00000002      0.00000006      0.00000000     -0.00000000
 00b000a 000000      0.09691303      0.00000002     -0.00000006     -0.00000000      0.00000000
 000b00a 000000      0.00000002      0.00000392      0.09314149     -0.00000007      0.00000000
 000a00b 000000     -0.00000002     -0.00000392     -0.09314149      0.00000007     -0.00000000
 0000a0b 000000      0.00000014      0.00000112      0.02677309     -0.00000001      0.00000000
 0000b0a 000000     -0.00000014     -0.00000112     -0.02677309      0.00000001     -0.00000000
 0000000 00b00a     -0.00000000      0.00000015      0.00361929     -0.00000000      0.07727323
 0000000 00a00b      0.00000000     -0.00000015     -0.00361929      0.00000000     -0.07727323
 0000000 a00b00      0.00000000      0.00000021      0.00505962     -0.00000000     -0.07727323
 0000000 b00a00     -0.00000000     -0.00000021     -0.00505962      0.00000000      0.07727323
 0000000 0b00a0      0.00000001      0.00000006      0.00144032     -0.00000000      0.07727323
 0000000 0a00b0     -0.00000001     -0.00000006     -0.00144032      0.00000000     -0.07727323
 
 Energy:           -25.00000650    -25.00000650    -25.00000650    -25.00000650    -24.99852047
 
 
 CI Coefficients of symmetry 1 (Triplet)
 =======================================

 State:                   1               2               3               4               5               6               7
 000aa00 000000      0.00000000     -0.00000000     -0.00000000     -0.00000000      0.00000000      0.00000105      0.00000016
 a0a0000 000000     -0.00000000     -0.00000005     -0.00000003      0.99999235      0.00000080     -0.00000000      0.00000000
 a0000a0 000000      0.99999235     -0.00000000     -0.00000000     -0.00000000      0.00000000     -0.00000000     -0.00000000
 aa00000 000000      0.00000000      0.99999235      0.00000007      0.00000005      0.00000021     -0.00000000     -0.00000000
 a000a00 000000      0.00000000     -0.00000019     -0.14885587     -0.00000080      0.98885116     -0.00000000     -0.00000000
 a00a000 000000      0.00000000     -0.00000010      0.98885116     -0.00000009      0.14885587      0.00000000     -0.00000000
 00a0a00 000000      0.00000000     -0.00000000      0.00000000     -0.00000000     -0.00000000      0.18001888      0.00000019
 a00000a 000000      0.00000000      0.00000000     -0.00000000      0.00000000     -0.00000000      0.00000000      0.00000000
 000a0a0 000000      0.00000000      0.00000000      0.00000000     -0.00000000     -0.00000000      0.00000015      0.89054748
 0a000a0 000000      0.00000000      0.00000000     -0.00000000      0.00000000      0.00000000      0.87981506     -0.00000019
 0aa0000 000000      0.00000000      0.00000000     -0.00000000     -0.00000000     -0.00000000      0.00000011      0.30321200
 00a00a0 000000     -0.00000000     -0.00000000      0.00000000     -0.00000000     -0.00000000     -0.00000491      0.00000000
 00aa000 000000     -0.00000000      0.00000000      0.00000000     -0.00000000     -0.00000000     -0.43990756      0.00000010
 0a0a000 000000     -0.00000000     -0.00000000      0.00000000     -0.00000000     -0.00000000     -0.00000437      0.00000000
 0a00a00 000000     -0.00000000      0.00000000     -0.00000000     -0.00000000      0.00000000      0.00000536     -0.00000000
 0000aa0 000000     -0.00000000     -0.00000000      0.00000000      0.00000000      0.00000000      0.00000003      0.33909830
 0000000 0aa000     -0.00000000     -0.00000000      0.00000000     -0.00000000     -0.00000000      0.00000000      0.00000000
 0000000 a0a000      0.00000000     -0.00000000     -0.00000000     -0.00000000      0.00000000     -0.00000002     -0.00000000
 0000000 aa0000     -0.00000000      0.00000000     -0.00000000      0.00000000     -0.00000000      0.00000000      0.00000000
 0000000 a00a00     -0.00000000      0.00000000      0.00068807      0.00000000     -0.00027020     -0.00000000     -0.00000000
 0000000 0a00a0      0.00000000     -0.00000000     -0.00011004     -0.00000000      0.00073099     -0.00000000     -0.00000000
 0000000 00a00a      0.00000000      0.00000000     -0.00057803      0.00000000     -0.00046079     -0.00000000     -0.00000000
 
 Energy:           -25.06117793    -25.06117793    -25.06117793    -25.06117793    -25.06117793    -25.00446772    -25.00446772

 State:                   8               9              10              11              12              13              14
 000aa00 000000      0.00000310      0.00000066     -0.00000038      1.00000000      0.00000250     -0.00000000      0.00000000
 a0a0000 000000     -0.00000000     -0.00000000      0.00000000     -0.00000000      0.00000000     -0.00000000      0.00000000
 a0000a0 000000      0.00000000     -0.00000000     -0.00000000      0.00000000      0.00000000      0.00000000      0.00000000
 aa00000 000000      0.00000000     -0.00000000      0.00000000     -0.00000000      0.00000000      0.00000000     -0.00000000
 a000a00 000000     -0.00000000     -0.00000000      0.00000000     -0.00000000     -0.00000000      0.00000000     -0.00000000
 a00a000 000000      0.00000000      0.00000000      0.00000000      0.00000000      0.00000000      0.00000000      0.00000000
 00a0a00 000000      0.00000051     -0.00000056     -0.00000054     -0.00000265      0.98366315      0.00000000      0.00000001
 a00000a 000000     -0.00000000     -0.00000000      0.00000000      0.00000000     -0.00000000      0.98230660     -0.00000000
 000a0a0 000000      0.00000004     -0.00000006     -0.08321763     -0.00000018     -0.00000025     -0.00000000     -0.00000006
 0a000a0 000000      0.00000740      0.00000193      0.00000003     -0.00000052     -0.16101379     -0.00000000      0.36693011
 0aa0000 000000     -0.00000044      0.00000061      0.84146448      0.00000027      0.00000038     -0.00000000      0.00000006
 00a00a0 000000      0.39963222      0.80018379     -0.00000037     -0.00000177      0.00000115      0.00000000     -0.00000012
 00aa000 000000     -0.00000370     -0.00000096     -0.00000001      0.00000026      0.08050689      0.00000000      0.73386015
 0a0a000 000000      0.67486655     -0.58698818      0.00000078     -0.00000170      0.00000011     -0.00000000     -0.00000012
 0a00a00 000000     -0.62036217     -0.12308852     -0.00000024      0.00000200     -0.00000073     -0.00000000     -0.00000021
 0000aa0 000000      0.00000028     -0.00000039     -0.53386549     -0.00000026     -0.00000036      0.00000000      0.00000011
 0000000 0aa000     -0.00000001      0.00000001      0.00000000      0.00000000      0.00000000     -0.00000000     -0.00000019
 0000000 a0a000     -0.00000000     -0.00000000      0.00000000      0.00000000     -0.00000000      0.00000000      0.57155741
 0000000 aa0000      0.00000000     -0.00000000     -0.00000001      0.00000000      0.00000000      0.00000000      0.00000009
 0000000 a00a00      0.00000000      0.00000000     -0.00000000      0.00000000      0.00000000     -0.10812607     -0.00000000
 0000000 0a00a0      0.00000000      0.00000000     -0.00000000     -0.00000000      0.00000000     -0.10812607      0.00000000
 0000000 00a00a      0.00000000      0.00000000     -0.00000000     -0.00000000      0.00000000     -0.10812607      0.00000000
 
 Energy:           -25.00446772    -25.00446772    -25.00446772    -25.00446772    -25.00446772    -25.00362875    -25.00021930

 State:                  15              16
 000aa00 000000     -0.00000000     -0.00000000
 a0a0000 000000     -0.00000000      0.00000000
 a0000a0 000000      0.00000000      0.00000000
 aa00000 000000      0.00000000      0.00000000
 a000a00 000000     -0.00000000      0.00000000
 a00a000 000000      0.00000000     -0.00000000
 00a0a00 000000     -0.00000000      0.00000000
 a00000a 000000     -0.00000000      0.00000000
 000a0a0 000000     -0.36693009      0.00000000
 0a000a0 000000     -0.00000006      0.00000012
 0aa0000 000000      0.36693010     -0.00000000
 00a00a0 000000      0.00000000      0.36693007
 00aa000 000000     -0.00000012      0.00000024
 0a0a000 000000      0.00000000      0.36693010
 0a00a00 000000      0.00000000      0.63554154
 0000aa0 000000      0.63554153     -0.00000000
 0000000 0aa000      0.00000000      0.57155741
 0000000 a0a000     -0.00000009      0.00000019
 0000000 aa0000      0.57155740     -0.00000000
 0000000 a00a00      0.00000000     -0.00000000
 0000000 0a00a0      0.00000000     -0.00000000
 0000000 00a00a      0.00000000      0.00000000
 
 Energy:           -25.00021930    -25.00021930
 


 **********************************************************************************************************************************
 DATASETS  * FILE   NREC   LENGTH (MB)   RECORD NAMES
              1      21       70.70       500      610      700      900      950      970     1000      129      960     1100   
                                          VAR    BASINP    GEOM    SYMINP    ZMAT    AOBASIS   BASIS     P2S    ABASIS      S 
                                         1400     1410     1420     1200     1210     1080     1700     1600     1650     1380   
                                           T        V       ECP      H0       H01     AOSYM    OPER      SMH    MOLCAS    JKOP   
                                         1700(1)
                                         OPER   

              2       5        1.70       700     1000      520     2100     2140   
                                         GEOM     BASIS   MCVARS     RHF     MCSCF   

 PROGRAMS   *        TOTAL     MULTI   RHF-SCF       INT
 CPU TIMES  *         9.66      5.60      0.44      3.24
 REAL TIME  *        12.88 SEC
 DISK USED  *        72.48 MB (local),        2.15 GB (total)
 SF USED    *       132.56 MB
 GA USED    *         0.00 MB       (max)       0.00 MB       (current)
 **********************************************************************************************************************************

 Energies and &lt;L**2&gt; values

        ENERGY       LL
    -25.11727433   -0.0
    -25.05451507    6.0
    -25.05451507    6.0
    -25.05451507    6.0
    -25.05451507    6.0
    -25.05451507    6.0
    -25.00000650    6.0
    -25.00000650    6.0
    -25.00000650    6.0
    -25.00000650    6.0
    -25.00000650    6.0
    -24.99852047    0.0
    -25.06117793    6.0
    -25.06117793    6.0
    -25.06117793    6.0
    -25.06117793    6.0
    -25.06117793    6.0
    -25.00446772   12.0
    -25.00446772   12.0
    -25.00446772   12.0
    -25.00446772   12.0
    -25.00446772   12.0
    -25.00446772   12.0
    -25.00446772   12.0
    -25.00362875   -0.0
    -25.00021930    2.0
    -25.00021930    2.0
    -25.00021930    2.0
                                                  


 PROGRAM * CI (Multireference internally contracted CI)     Authors: H.-J. Werner, P.J. Knowles, 1987


 Convergence thresholds:  THRVAR = 1.00D-08  THRDEN = 1.00D-06

 Number of optimized states: 12  Roots:   1   2   3   4   5   6   7   8   9  10  11  12
 Number of reference states: 12  Roots:   1   2   3   4   5   6   7   8   9  10  11  12

 Reference symmetry:                   1   Singlet 
 Number of electrons:                 10
 Maximum number of shells:             5
 Maximum number of spin couplings:    14

 Reference space:       49 conf       49 CSFs
 N elec internal:    18369 conf    44681 CSFs
 N-1 el internal:     4797 conf    14053 CSFs
 N-2 el internal:      543 conf     1681 CSFs

 Number of electrons in valence space:                     10
 Maximum number of open shell orbitals in reference space:  2
 Maximum number of open shell orbitals in internal spaces:  8


 Number of closed-shell orbitals:   4 (   1   3 )
 Number of active  orbitals:       13 (   7   6 )
 Number of external orbitals:     196 (  93 103 )

 Molecular orbitals read from record     2140.2  Type=MCSCF/NATURAL (state averaged)

 Valence orbitals related to previous ones by unitary transformation. Operators transformed.


 Number of p-space configurations:  49

 Reference wavefunction optimized for reference space (refopt=1)

 State     Reference Energy 
     1       -25.11727433
     2       -25.05451507
     3       -25.05451507
     4       -25.05451507
     5       -25.05451507
     6       -25.05451507
     7       -25.00000650
     8       -25.00000650
     9       -25.00000650
    10       -25.00000650
    11       -25.00000650
    12       -24.99852047

 Number of blocks in overlap matrix:   249   Smallest eigenvalue:  0.31D+00
 Number of N-2 electron functions:     297
 Number of N-1 electron functions:   14053

 Number of internal configurations:                22428
 Number of singly external configurations:       1377199
 Number of doubly external configurations:       2858315
 Total number of contracted configurations:      4257942
 Total number of uncontracted configurations:   17546986

 Diagonal Coupling coefficients finished.               Storage:13922065 words, CPU-Time:      2.11 seconds.
 Energy denominators for pairs finished in 1 passes.    Storage: 2058872 words, CPU-time:      0.35 seconds.

  ITER. STATE  ROOT     SQ.NORM     CORR.ENERGY   TOTAL ENERGY   ENERGY CHANGE       DEN1      VAR(S)    VAR(P)      TIME
    1     1     1     1.00000000     0.00000000   -25.11727433     0.00000000    -0.24197317  0.37D-01  0.44D-01     5.29
    1     2     2     1.00000000     0.00000000   -25.05451507     0.00000000    -0.26239003  0.51D-01  0.52D-01     5.29
    1     3     3     1.00000000     0.00000000   -25.05451507     0.00000000    -0.26265417  0.51D-01  0.52D-01     5.29
    1     4     4     1.00000000     0.00000000   -25.05451507    -0.00000000    -0.26233695  0.51D-01  0.52D-01     5.29
    1     5     5     1.00000000     0.00000000   -25.05451507    -0.00000000    -0.26246136  0.51D-01  0.52D-01     5.29
    1     6     6     1.00000000     0.00000000   -25.05451507     0.00000000    -0.26231445  0.51D-01  0.52D-01     5.29
    1     7     7     1.00000000     0.00000000   -25.00000650     0.00000000    -0.27032499  0.45D-01  0.62D-01     5.29
    1     8     8     1.00000000     0.00000000   -25.00000650    -0.00000000    -0.27136589  0.46D-01  0.62D-01     5.29
    1     9     9     1.00000000     0.00000000   -25.00000650     0.00000000    -0.27131753  0.46D-01  0.62D-01     5.29
    1    10    10     1.00000000     0.00000000   -25.00000650     0.00000000    -0.27072117  0.45D-01  0.62D-01     5.29
    1    11    11     1.00000000     0.00000000   -25.00000650    -0.00000000    -0.27135037  0.46D-01  0.62D-01     5.29
    1    12    12     1.00000000     0.00000000   -24.99852047     0.00000000    -0.23914367  0.37D-01  0.45D-01     5.29
    2     1     1     1.06926118    -0.24677862   -25.36405295    -0.24677862    -0.00600489  0.16D-02  0.75D-03    56.49
    2     2     2     1.08241511    -0.25183325   -25.30634832    -0.25183325    -0.00770806  0.28D-02  0.12D-02    56.49
    2     3     3     1.08245928    -0.25181707   -25.30633215    -0.25181707    -0.00773213  0.28D-02  0.12D-02    56.49
    2     4     4     1.08248259    -0.25179219   -25.30630726    -0.25179219    -0.00776612  0.29D-02  0.12D-02    56.49
    2     5     5     1.08250580    -0.25179198   -25.30630705    -0.25179198    -0.00776639  0.29D-02  0.12D-02    56.49
    2     6     6     1.08252111    -0.25176458   -25.30627965    -0.25176458    -0.00779455  0.29D-02  0.12D-02    56.49
    2     7     7     1.08333169    -0.25252008   -25.25252659    -0.25252008    -0.00797089  0.31D-02  0.16D-02    56.49
    2     8     8     1.08343587    -0.25240751   -25.25241402    -0.25240751    -0.00812546  0.33D-02  0.17D-02    56.49
    2     9     9     1.08352443    -0.25228219   -25.25228869    -0.25228219    -0.00829766  0.35D-02  0.17D-02    56.49
    2    10    10     1.08353175    -0.25227599   -25.25228250    -0.25227599    -0.00830498  0.35D-02  0.17D-02    56.49
    2    11    11     1.08351327    -0.25227330   -25.25227980    -0.25227330    -0.00830845  0.35D-02  0.17D-02    56.49
    2    12    12     1.07080033    -0.24418906   -25.24270953    -0.24418906    -0.00597974  0.18D-02  0.91D-03    56.49
    3     1     1     1.07258678    -0.25303347   -25.37030780    -0.00625485    -0.00026081  0.57D-04  0.38D-04   107.43
    3     2     2     1.08426633    -0.25940956   -25.31392464    -0.00757631    -0.00043595  0.14D-03  0.77D-04   107.43
    3     3     3     1.08428093    -0.25940823   -25.31392331    -0.00759116    -0.00043790  0.14D-03  0.78D-04   107.43
    3     4     4     1.08428401    -0.25940571   -25.31392078    -0.00761352    -0.00044027  0.14D-03  0.78D-04   107.43
    3     5     5     1.08427963    -0.25940463   -25.31391971    -0.00761266    -0.00044115  0.15D-03  0.78D-04   107.43
    3     6     6     1.08428099    -0.25940438   -25.31391945    -0.00763980    -0.00044141  0.15D-03  0.78D-04   107.43
    3     7     7     1.08321130    -0.26019947   -25.26020598    -0.00767939    -0.00042376  0.91D-04  0.11D-03   107.43
    3     8     8     1.08323542    -0.26019410   -25.26020060    -0.00778658    -0.00043223  0.91D-04  0.12D-03   107.43
    3     9     9     1.08325474    -0.26019096   -25.26019747    -0.00790878    -0.00043827  0.91D-04  0.12D-03   107.43
    3    10    10     1.08325373    -0.26019084   -25.26019734    -0.00791485    -0.00043823  0.91D-04  0.12D-03   107.43
    3    11    11     1.08324502    -0.26018990   -25.26019640    -0.00791660    -0.00043887  0.91D-04  0.12D-03   107.43
    3    12    12     1.07351185    -0.25030441   -25.24882488    -0.00611535    -0.00031709  0.47D-04  0.91D-04   107.43
    4     1     1     1.07377060    -0.25330990   -25.37058424    -0.00027643    -0.00001459  0.74D-05  0.18D-05   157.14
    4     2     2     1.08685879    -0.25988556   -25.31440063    -0.00047599    -0.00004230  0.29D-04  0.58D-05   157.14
    4     3     3     1.08685922    -0.25988555   -25.31440062    -0.00047732    -0.00004234  0.29D-04  0.57D-05   157.14
    4     4     4     1.08685329    -0.25988521   -25.31440029    -0.00047950    -0.00004255  0.29D-04  0.57D-05   157.14
    4     5     5     1.08685347    -0.25988506   -25.31440014    -0.00048043    -0.00004266  0.29D-04  0.58D-05   157.14
    4     6     6     1.08684982    -0.25988490   -25.31439997    -0.00048052    -0.00004277  0.29D-04  0.58D-05   157.14
    4     7     7     1.08491100    -0.26065365   -25.26066015    -0.00045418    -0.00003306  0.20D-04  0.56D-05   157.14
    4     8     8     1.08491168    -0.26065362   -25.26066012    -0.00045952    -0.00003306  0.20D-04  0.56D-05   157.14
    4     9     9     1.08490831    -0.26065350   -25.26066000    -0.00046253    -0.00003314  0.20D-04  0.56D-05   157.14
    4    10    10     1.08491427    -0.26065254   -25.26065904    -0.00046170    -0.00003351  0.20D-04  0.57D-05   157.14
    4    11    11     1.08491352    -0.26065132   -25.26065782    -0.00046142    -0.00003395  0.20D-04  0.58D-05   157.14
    4    12    12     1.07473901    -0.25061511   -25.24913558    -0.00031070    -0.00002550  0.84D-05  0.70D-05   157.14
    5     1     1     1.07409792    -0.25332616   -25.37060049    -0.00001625    -0.00000126  0.61D-06  0.18D-06   207.20
    5     2     2     1.08810270    -0.25993968   -25.31445475    -0.00005412    -0.00000660  0.31D-05  0.10D-05   207.20
    5     3     3     1.08810163    -0.25993967   -25.31445474    -0.00005412    -0.00000660  0.31D-05  0.10D-05   207.20
    5     4     4     1.08809995    -0.25993961   -25.31445468    -0.00005439    -0.00000664  0.32D-05  0.10D-05   207.20
    5     5     5     1.08809901    -0.25993958   -25.31445465    -0.00005452    -0.00000666  0.32D-05  0.10D-05   207.20
    5     6     6     1.08809948    -0.25993956   -25.31445464    -0.00005467    -0.00000668  0.32D-05  0.10D-05   207.20
    5     7     7     1.08553112    -0.26069270   -25.26069921    -0.00003906    -0.00000393  0.21D-05  0.69D-06   207.20
    5     8     8     1.08553136    -0.26069269   -25.26069919    -0.00003907    -0.00000394  0.21D-05  0.69D-06   207.20
    5     9     9     1.08553053    -0.26069268   -25.26069918    -0.00003918    -0.00000395  0.21D-05  0.69D-06   207.20
    5    10    10     1.08553193    -0.26069244   -25.26069894    -0.00003990    -0.00000412  0.21D-05  0.72D-06   207.20
    5    11    11     1.08553199    -0.26069212   -25.26069862    -0.00004080    -0.00000435  0.22D-05  0.77D-06   207.20
    5    12    12     1.07503045    -0.25063953   -25.24916000    -0.00002442    -0.00000287  0.13D-05  0.70D-06   207.20
    6     1     1     1.07415478    -0.25332761   -25.37060195    -0.00000145    -0.00000012  0.37D-07  0.20D-07   255.79
    6     2     2     1.08837829    -0.25994772   -25.31446279    -0.00000804    -0.00000078  0.32D-06  0.12D-06   255.79
    6     3     3     1.08837817    -0.25994772   -25.31446279    -0.00000805    -0.00000078  0.32D-06  0.12D-06   255.79
    6     4     4     1.08837831    -0.25994771   -25.31446278    -0.00000810    -0.00000079  0.33D-06  0.12D-06   255.79
    6     5     5     1.08837781    -0.25994770   -25.31446278    -0.00000812    -0.00000079  0.33D-06  0.12D-06   255.79
    6     6     6     1.08837766    -0.25994770   -25.31446278    -0.00000814    -0.00000079  0.33D-06  0.12D-06   255.79
    6     7     7     1.08560558    -0.26069735   -25.26070386    -0.00000465    -0.00000043  0.93D-07  0.11D-06   255.79
    6     8     8     1.08560507    -0.26069735   -25.26070386    -0.00000467    -0.00000044  0.94D-07  0.11D-06   255.79
    6     9     9     1.08560548    -0.26069735   -25.26070386    -0.00000468    -0.00000044  0.94D-07  0.11D-06   255.79
    6    10    10     1.08560435    -0.26069733   -25.26070383    -0.00000489    -0.00000046  0.98D-07  0.12D-06   255.79
    6    11    11     1.08560253    -0.26069729   -25.26070380    -0.00000517    -0.00000048  0.10D-06  0.12D-06   255.79
    6    12    12     1.07509832    -0.25064267   -25.24916314    -0.00000314    -0.00000038  0.77D-07  0.11D-06   255.79
    7     1     1     1.07416967    -0.25332774   -25.37060208    -0.00000013    -0.00000001  0.40D-08  0.13D-08   304.85
    7     2     2     1.08845929    -0.25994854   -25.31446361    -0.00000082    -0.00000009  0.69D-07  0.12D-07   304.85
    7     3     3     1.08845924    -0.25994854   -25.31446361    -0.00000082    -0.00000009  0.70D-07  0.12D-07   304.85
    7     4     4     1.08845901    -0.25994854   -25.31446361    -0.00000083    -0.00000009  0.70D-07  0.13D-07   304.85
    7     5     5     1.08845891    -0.25994854   -25.31446361    -0.00000083    -0.00000009  0.71D-07  0.13D-07   304.85
    7     6     6     1.08845871    -0.25994854   -25.31446361    -0.00000083    -0.00000009  0.71D-07  0.13D-07   304.85
    7     7     7     1.08561791    -0.26069781   -25.26070431    -0.00000046    -0.00000005  0.31D-07  0.11D-07   304.85
    7     8     8     1.08561795    -0.26069781   -25.26070431    -0.00000046    -0.00000005  0.32D-07  0.11D-07   304.85
    7     9     9     1.08561780    -0.26069781   -25.26070431    -0.00000046    -0.00000005  0.32D-07  0.11D-07   304.85
    7    10    10     1.08561749    -0.26069781   -25.26070431    -0.00000048    -0.00000005  0.33D-07  0.12D-07   304.85
    7    11    11     1.08561688    -0.26069780   -25.26070431    -0.00000051    -0.00000005  0.35D-07  0.13D-07   304.85
    7    12    12     1.07511471    -0.25064310   -25.24916357    -0.00000043    -0.00000005  0.24D-07  0.11D-07   304.85
    8     1     1     1.07417083    -0.25332774   -25.37060208    -0.00000000    -0.00000001  0.31D-08  0.11D-08   350.43
    8     2     2     1.08849578    -0.25994864   -25.31446371    -0.00000010    -0.00000002  0.89D-08  0.29D-08   350.43
[...]
 47  1     3    1  |1 1>-         0.00%    0.00%    0.00%    0.00%    0.00%    0.00%    0.00%    0.00%
 48  1     4    1  |1 1>-         0.00%    0.00%    0.00%    0.00%    0.00%    0.00%    0.00%    0.00%
 49  1     5    1  |1 1>-         0.00%    0.00%    0.00%    0.00%    0.00%    0.00%    0.00%    0.00%
 50  1     6    1  |1 1>-         0.00%    0.00%    0.00%   38.22%    0.00%    0.00%    0.00%    4.61%
 51  1     7    1  |1 1>-         0.00%   48.56%    0.00%    0.00%    0.00%    0.04%    0.00%    0.00%
 52  1     8    1  |1 1>-         2.27%    0.00%   47.71%    0.00%    0.00%    0.00%    5.81%    0.00%
 53  1     9    1  |1 1>-         0.00%    0.00%    0.00%    0.00%   36.74%    0.00%    0.00%    0.00%
 54  1    10    1  |1 1>-         0.00%    1.21%    0.00%    0.00%    0.00%   28.57%    0.00%    0.00%
 55  1    11    1  |1 1>-        47.83%    0.00%    2.29%    0.00%    0.00%    0.00%   22.78%    0.00%
 56  1    12    1  |1 1>-         0.00%    0.00%    0.00%    0.03%    0.00%    0.00%    0.00%   35.71%
 57  1    13    1  |1 1>-         0.00%    0.00%    0.00%    0.00%    0.00%    0.00%    0.00%    0.00%
 58  1    14    1  |1 1>-         0.00%    0.00%    0.00%    0.00%    0.00%    0.00%    0.00%    0.00%
 59  1    15    1  |1 1>-         0.00%    0.00%    0.00%    0.00%    0.00%    0.00%    0.00%    0.00%
 60  1    16    1  |1 1>-         0.00%    0.00%    0.00%    0.00%    0.00%    0.00%    0.00%    0.00%

   Total
 Nr Sym  State Sym Spin / Nr.     41       42       43       44       45       46       47       48

  1  1     1    1  |0 0>          0.00%    0.00%    0.00%    0.00%    0.00%    0.00%    0.00%    0.01%
  2  1     2    1  |0 0>          0.00%    0.00%    0.00%    0.00%    0.00%    0.00%    0.00%    0.00%
  3  1     3    1  |0 0>          0.00%    0.00%    0.00%    0.00%    0.00%    0.00%    0.00%    0.00%
  4  1     4    1  |0 0>          0.00%    0.00%    0.00%    0.00%    0.00%    0.00%    0.00%    0.00%
  5  1     5    1  |0 0>          0.00%    0.00%    0.00%    0.00%    0.00%    0.00%    0.00%    0.00%
  6  1     6    1  |0 0>          0.00%    0.00%    0.00%    0.00%    0.00%    0.00%    0.00%    0.00%
  7  1     7    1  |0 0>          0.00%    0.00%    0.00%    0.00%   86.09%    0.00%    0.00%    0.00%
  8  1     8    1  |0 0>          0.00%    0.00%    0.00%    0.00%    0.00%   86.09%    0.00%    0.00%
  9  1     9    1  |0 0>          0.00%    0.00%    0.00%    0.00%    0.00%    0.00%   86.09%    0.00%
 10  1    10    1  |0 0>          0.00%    0.00%    1.28%   84.81%    0.00%    0.00%    0.00%    0.00%
 11  1    11    1  |0 0>          0.00%    0.00%   84.79%    1.28%    0.00%    0.00%    0.00%    0.00%
 12  1    12    1  |0 0>          0.00%    0.00%    0.00%    0.00%    0.00%    0.00%    0.00%    0.72%
 13  1     1    1  |1 1>+         0.00%    0.00%    0.00%    0.00%    0.00%    0.00%    0.00%    0.00%
 14  1     2    1  |1 1>+         0.00%    0.00%    0.00%    0.00%    0.00%    0.00%    0.00%    0.00%
 15  1     3    1  |1 1>+         0.00%    0.00%    0.00%    0.00%    0.00%    0.00%    0.00%    0.00%
 16  1     4    1  |1 1>+         0.00%    0.00%    0.00%    0.00%    0.00%    0.00%    0.00%    0.00%
 17  1     5    1  |1 1>+         0.00%    0.00%    0.00%    0.00%    0.00%    0.00%    0.00%    0.00%
 18  1     6    1  |1 1>+         4.61%    0.00%    0.00%    0.00%    0.00%    0.00%    0.23%    0.00%
 19  1     7    1  |1 1>+         0.00%    0.00%    0.00%    0.00%    0.37%    0.00%    0.00%    0.00%
 20  1     8    1  |1 1>+         0.00%    0.13%    0.02%    0.28%    0.00%    0.00%    0.00%    0.00%
 21  1     9    1  |1 1>+         0.00%    0.00%    0.00%    0.00%    0.00%    0.23%    0.00%    0.00%
 22  1    10    1  |1 1>+         0.00%    0.00%    0.00%    0.00%    0.00%    0.00%    0.00%    0.00%
 23  1    11    1  |1 1>+         0.00%   21.54%    0.24%    0.10%    0.00%    0.00%    0.00%    0.00%
 24  1    12    1  |1 1>+        35.71%    0.00%    0.00%    0.00%    0.00%    0.00%    0.14%    0.00%
 25  1    13    1  |1 1>+         0.00%    0.00%    1.59%    7.04%    0.00%    0.00%    0.00%   33.09%
 26  1    14    1  |1 1>+         0.00%    0.00%    0.00%    0.00%    6.47%    0.00%    0.00%    0.00%
 27  1    15    1  |1 1>+         0.00%    0.00%    0.00%    0.00%    0.00%    0.00%    6.46%    0.00%
 28  1    16    1  |1 1>+         0.00%    0.00%    0.00%    0.00%    0.00%    0.00%    0.00%    0.00%
 29  1     1    1  |1 0>          0.00%    0.00%    0.00%    0.00%    0.00%    0.00%    0.00%    0.00%
 30  1     2    1  |1 0>          0.00%    0.00%    0.00%    0.00%    0.00%    0.00%    0.00%    0.00%
 31  1     3    1  |1 0>          0.00%    0.00%    0.00%    0.00%    0.00%    0.00%    0.00%    0.00%
 32  1     4    1  |1 0>          0.00%    0.00%    0.00%    0.00%    0.00%    0.00%    0.00%    0.00%
 33  1     5    1  |1 0>          0.00%    0.00%    0.00%    0.00%    0.00%    0.00%    0.00%    0.00%
 34  1     6    1  |1 0>          0.00%    0.00%    0.00%    0.23%    0.00%    0.00%    0.00%    0.00%
 35  1     7    1  |1 0>          0.00%    0.00%    0.00%    0.00%    0.00%    0.02%    0.00%    0.00%
 36  1     8    1  |1 0>          2.87%    0.00%    0.00%    0.00%    0.00%    0.00%    0.02%    0.00%
 37  1     9    1  |1 0>          0.00%    0.00%    0.00%    0.00%    0.23%    0.00%    0.00%    0.00%
 38  1    10    1  |1 0>          0.00%    0.00%    0.00%    0.00%    0.00%    0.35%    0.00%    0.00%
 39  1    11    1  |1 0>         50.68%    0.00%    0.00%    0.00%    0.00%    0.00%    0.35%    0.00%
 40  1    12    1  |1 0>          0.00%   56.69%    0.42%    0.00%    0.00%    0.00%    0.00%    0.00%
 41  1    13    1  |1 0>          0.00%    0.00%    0.00%    0.00%    0.00%    0.00%    6.47%    0.00%
 42  1    14    1  |1 0>          0.00%    0.00%    0.00%    0.00%    0.00%    6.47%    0.00%    0.00%
 43  1    15    1  |1 0>          0.00%    0.00%    8.57%    0.06%    0.00%    0.00%    0.00%   33.09%
 44  1    16    1  |1 0>          0.00%    0.00%    0.00%    0.00%    0.00%    0.00%    0.00%    0.00%
 45  1     1    1  |1 1>-         0.00%    0.00%    0.00%    0.00%    0.00%    0.00%    0.00%    0.00%
 46  1     2    1  |1 1>-         0.00%    0.00%    0.00%    0.00%    0.00%    0.00%    0.00%    0.00%
 47  1     3    1  |1 1>-         0.00%    0.00%    0.00%    0.00%    0.00%    0.00%    0.00%    0.00%
 48  1     4    1  |1 1>-         0.00%    0.00%    0.00%    0.00%    0.00%    0.00%    0.00%    0.00%
 49  1     5    1  |1 1>-         0.00%    0.00%    0.00%    0.00%    0.00%    0.00%    0.00%    0.00%
 50  1     6    1  |1 1>-         0.00%    0.00%    0.00%    0.00%    0.00%    0.23%    0.00%    0.00%
 51  1     7    1  |1 1>-         0.00%    0.13%    0.00%    0.30%    0.00%    0.00%    0.00%    0.00%
 52  1     8    1  |1 1>-         0.00%    0.00%    0.00%    0.00%    0.37%    0.00%    0.00%    0.00%
 53  1     9    1  |1 1>-         6.14%    0.00%    0.00%    0.00%    0.00%    0.00%    0.23%    0.00%
 54  1    10    1  |1 1>-         0.00%   21.51%    0.29%    0.05%    0.00%    0.00%    0.00%    0.00%
 55  1    11    1  |1 1>-         0.00%    0.00%    0.00%    0.00%    0.00%    0.00%    0.00%    0.00%
 56  1    12    1  |1 1>-         0.00%    0.00%    0.00%    0.00%    0.00%    0.14%    0.00%    0.00%
 57  1    13    1  |1 1>-         0.00%    0.00%    0.00%    0.00%    6.47%    0.00%    0.00%    0.00%
 58  1    14    1  |1 1>-         0.00%    0.00%    2.79%    5.84%    0.00%    0.00%    0.00%   33.09%
 59  1    15    1  |1 1>-         0.00%    0.00%    0.00%    0.00%    0.00%    6.46%    0.00%    0.00%
 60  1    16    1  |1 1>-         0.00%    0.00%    0.00%    0.00%    0.00%    0.00%    0.00%    0.00%

   Total
 Nr Sym  State Sym Spin / Nr.     49       50       51       52       53       54       55       56

  1  1     1    1  |0 0>          0.00%    0.00%    0.00%    0.00%    0.00%    0.00%    0.00%    0.00%
  2  1     2    1  |0 0>          0.00%    0.00%    0.00%    0.00%    0.00%    0.00%    0.00%    0.00%
  3  1     3    1  |0 0>          0.00%    0.00%    0.00%    0.00%    0.00%    0.00%    0.00%    0.00%
  4  1     4    1  |0 0>          0.00%    0.00%    0.00%    0.00%    0.00%    0.00%    0.00%    0.00%
  5  1     5    1  |0 0>          0.00%    0.00%    0.00%    0.00%    0.00%    0.00%    0.00%    0.00%
  6  1     6    1  |0 0>          0.00%    0.00%    0.00%    0.00%    0.00%    0.00%    0.00%    0.00%
  7  1     7    1  |0 0>          0.00%    0.00%    0.00%   12.88%    0.00%    0.00%    0.00%    0.00%
  8  1     8    1  |0 0>          0.00%    0.00%    0.00%    0.00%   12.87%    0.00%    0.00%    0.00%
  9  1     9    1  |0 0>          0.00%    0.00%    0.00%    0.00%    0.00%   12.87%    0.00%    0.00%
 10  1    10    1  |0 0>          0.00%    0.00%    0.00%    0.00%    0.00%    0.00%   12.86%    0.02%
 11  1    11    1  |0 0>          0.00%    0.00%    0.00%    0.00%    0.00%    0.00%    0.02%   12.87%
 12  1    12    1  |0 0>          0.00%    0.00%    0.00%    0.00%    0.00%    0.00%    0.00%    0.00%
 13  1     1    1  |1 1>+         0.00%    0.00%    0.00%    0.00%    0.00%    0.00%    0.00%    0.00%
 14  1     2    1  |1 1>+         0.00%    0.00%    0.00%    0.00%    0.00%    0.00%    0.00%    0.00%
 15  1     3    1  |1 1>+         0.00%    0.00%    0.00%    0.00%    0.00%    0.00%    0.00%    0.00%
 16  1     4    1  |1 1>+         0.00%    0.00%    0.00%    0.00%    0.00%    0.00%    0.00%    0.00%
 17  1     5    1  |1 1>+         0.00%    0.00%    0.00%    0.00%    0.00%    0.00%    0.00%    0.00%
 18  1     6    1  |1 1>+         0.00%    0.00%    0.00%    0.00%    0.00%    0.02%    0.00%    0.00%
 19  1     7    1  |1 1>+         0.00%    0.00%    0.00%    0.03%    0.00%    0.00%    0.00%    0.00%
 20  1     8    1  |1 1>+         0.00%    0.00%    0.00%    0.00%    0.00%    0.00%    0.02%    0.00%
 21  1     9    1  |1 1>+         0.00%    0.00%    0.00%    0.00%    0.02%    0.00%    0.00%    0.00%
 22  1    10    1  |1 1>+         0.00%    0.00%    0.00%    0.00%    0.00%    0.00%    0.00%    0.00%
 23  1    11    1  |1 1>+         0.00%    0.00%    0.00%    0.00%    0.00%    0.00%    0.01%    0.02%
 24  1    12    1  |1 1>+         0.00%    0.00%    0.00%    0.00%    0.00%    0.01%    0.00%    0.00%
 25  1    13    1  |1 1>+         0.00%    0.00%    0.00%    0.00%    0.00%    0.00%   43.40%   14.63%
 26  1    14    1  |1 1>+        49.96%    0.00%    0.00%   43.53%    0.00%    0.00%    0.00%    0.00%
 27  1    15    1  |1 1>+         0.00%    0.00%   49.96%    0.00%    0.00%   43.53%    0.00%    0.00%
 28  1    16    1  |1 1>+         0.00%    0.07%    0.00%    0.00%    0.00%    0.00%    0.00%    0.00%
 29  1     1    1  |1 0>          0.00%    0.00%    0.00%    0.00%    0.00%    0.00%    0.00%    0.00%
 30  1     2    1  |1 0>          0.00%    0.00%    0.00%    0.00%    0.00%    0.00%    0.00%    0.00%
 31  1     3    1  |1 0>          0.00%    0.00%    0.00%    0.00%    0.00%    0.00%    0.00%    0.00%
 32  1     4    1  |1 0>          0.00%    0.00%    0.00%    0.00%    0.00%    0.00%    0.00%    0.00%
 33  1     5    1  |1 0>          0.00%    0.00%    0.00%    0.00%    0.00%    0.00%    0.00%    0.00%
 34  1     6    1  |1 0>          0.00%    0.00%    0.00%    0.00%    0.00%    0.00%    0.02%    0.00%
 35  1     7    1  |1 0>          0.00%    0.00%    0.00%    0.00%    0.00%    0.00%    0.00%    0.00%
 36  1     8    1  |1 0>          0.00%    0.00%    0.00%    0.00%    0.00%    0.00%    0.00%    0.00%
 37  1     9    1  |1 0>          0.00%    0.00%    0.00%    0.02%    0.00%    0.00%    0.00%    0.00%
 38  1    10    1  |1 0>          0.00%    0.00%    0.00%    0.00%    0.03%    0.00%    0.00%    0.00%
 39  1    11    1  |1 0>          0.00%    0.00%    0.00%    0.00%    0.00%    0.03%    0.00%    0.00%
 40  1    12    1  |1 0>          0.00%    0.00%    0.00%    0.00%    0.00%    0.00%    0.00%    0.03%
 41  1    13    1  |1 0>          0.00%    0.00%   49.97%    0.00%    0.00%   43.52%    0.00%    0.00%
 42  1    14    1  |1 0>          0.00%   49.97%    0.00%    0.00%   43.52%    0.00%    0.00%    0.00%
 43  1    15    1  |1 0>          0.00%    0.00%    0.00%    0.00%    0.00%    0.00%    0.00%   58.03%
 44  1    16    1  |1 0>          0.07%    0.00%    0.00%    0.00%    0.00%    0.00%    0.00%    0.00%
 45  1     1    1  |1 1>-         0.00%    0.00%    0.00%    0.00%    0.00%    0.00%    0.00%    0.00%
 46  1     2    1  |1 1>-         0.00%    0.00%    0.00%    0.00%    0.00%    0.00%    0.00%    0.00%
 47  1     3    1  |1 1>-         0.00%    0.00%    0.00%    0.00%    0.00%    0.00%    0.00%    0.00%
 48  1     4    1  |1 1>-         0.00%    0.00%    0.00%    0.00%    0.00%    0.00%    0.00%    0.00%
 49  1     5    1  |1 1>-         0.00%    0.00%    0.00%    0.00%    0.00%    0.00%    0.00%    0.00%
 50  1     6    1  |1 1>-         0.00%    0.00%    0.00%    0.00%    0.02%    0.00%    0.00%    0.00%
 51  1     7    1  |1 1>-         0.00%    0.00%    0.00%    0.00%    0.00%    0.00%    0.02%    0.00%
 52  1     8    1  |1 1>-         0.00%    0.00%    0.00%    0.03%    0.00%    0.00%    0.00%    0.00%
 53  1     9    1  |1 1>-         0.00%    0.00%    0.00%    0.00%    0.00%    0.02%    0.00%    0.00%
 54  1    10    1  |1 1>-         0.00%    0.00%    0.00%    0.00%    0.00%    0.00%    0.01%    0.02%
 55  1    11    1  |1 1>-         0.00%    0.00%    0.00%    0.00%    0.00%    0.00%    0.00%    0.00%
 56  1    12    1  |1 1>-         0.00%    0.00%    0.00%    0.00%    0.01%    0.00%    0.00%    0.00%
 57  1    13    1  |1 1>-        49.96%    0.00%    0.00%   43.53%    0.00%    0.00%    0.00%    0.00%
 58  1    14    1  |1 1>-         0.00%    0.00%    0.00%    0.00%    0.00%    0.00%   43.65%   14.38%
 59  1    15    1  |1 1>-         0.00%   49.96%    0.00%    0.00%   43.53%    0.00%    0.00%    0.00%
 60  1    16    1  |1 1>-         0.00%    0.00%    0.07%    0.00%    0.00%    0.00%    0.00%    0.00%

   Total
 Nr Sym  State Sym Spin / Nr.     57       58       59       60

  1  1     1    1  |0 0>          0.00%    0.00%    0.00%    0.00%
  2  1     2    1  |0 0>          0.00%    0.00%    0.00%    0.00%
  3  1     3    1  |0 0>          0.00%    0.00%    0.00%    0.00%
  4  1     4    1  |0 0>          0.00%    0.00%    0.00%    0.00%
  5  1     5    1  |0 0>          0.00%    0.00%    0.00%    0.00%
  6  1     6    1  |0 0>          0.00%    0.00%    0.00%    0.00%
  7  1     7    1  |0 0>          0.00%    0.00%    0.00%    0.00%
  8  1     8    1  |0 0>          0.00%    0.00%    0.00%    0.00%
  9  1     9    1  |0 0>          0.00%    0.00%    0.00%    0.00%
 10  1    10    1  |0 0>          0.00%    0.00%    0.00%    0.00%
 11  1    11    1  |0 0>          0.00%    0.00%    0.00%    0.00%
 12  1    12    1  |0 0>          0.00%    0.00%    0.00%   99.28%
 13  1     1    1  |1 1>+         0.00%    0.00%    0.00%    0.00%
 14  1     2    1  |1 1>+         0.00%    0.00%    0.00%    0.00%
 15  1     3    1  |1 1>+         0.00%    0.00%    0.00%    0.00%
 16  1     4    1  |1 1>+         0.00%    0.00%    0.00%    0.00%
 17  1     5    1  |1 1>+         0.00%    0.00%    0.00%    0.00%
 18  1     6    1  |1 1>+         0.00%    0.00%    0.00%    0.00%
 19  1     7    1  |1 1>+         0.00%    0.00%    0.00%    0.00%
 20  1     8    1  |1 1>+         0.00%    0.00%    0.00%    0.00%
 21  1     9    1  |1 1>+         0.00%    0.00%    0.00%    0.00%
 22  1    10    1  |1 1>+         0.00%    0.00%    0.00%    0.00%
 23  1    11    1  |1 1>+         0.00%    0.00%    0.00%    0.00%
 24  1    12    1  |1 1>+         0.00%    0.00%    0.00%    0.00%
 25  1    13    1  |1 1>+         0.00%    0.00%    0.00%    0.24%
 26  1    14    1  |1 1>+         0.04%    0.00%    0.00%    0.00%
 27  1    15    1  |1 1>+         0.00%    0.00%    0.04%    0.00%
 28  1    16    1  |1 1>+         0.00%   99.93%    0.00%    0.00%
 29  1     1    1  |1 0>          0.00%    0.00%    0.00%    0.00%
 30  1     2    1  |1 0>          0.00%    0.00%    0.00%    0.00%
 31  1     3    1  |1 0>          0.00%    0.00%    0.00%    0.00%
 32  1     4    1  |1 0>          0.00%    0.00%    0.00%    0.00%
 33  1     5    1  |1 0>          0.00%    0.00%    0.00%    0.00%
 34  1     6    1  |1 0>          0.00%    0.00%    0.00%    0.00%
 35  1     7    1  |1 0>          0.00%    0.00%    0.00%    0.00%
 36  1     8    1  |1 0>          0.00%    0.00%    0.00%    0.00%
 37  1     9    1  |1 0>          0.00%    0.00%    0.00%    0.00%
 38  1    10    1  |1 0>          0.00%    0.00%    0.00%    0.00%
 39  1    11    1  |1 0>          0.00%    0.00%    0.00%    0.00%
 40  1    12    1  |1 0>          0.00%    0.00%    0.00%    0.00%
 41  1    13    1  |1 0>          0.00%    0.00%    0.04%    0.00%
 42  1    14    1  |1 0>          0.00%    0.04%    0.00%    0.00%
 43  1    15    1  |1 0>          0.00%    0.00%    0.00%    0.24%
 44  1    16    1  |1 0>         99.93%    0.00%    0.00%    0.00%
 45  1     1    1  |1 1>-         0.00%    0.00%    0.00%    0.00%
 46  1     2    1  |1 1>-         0.00%    0.00%    0.00%    0.00%
 47  1     3    1  |1 1>-         0.00%    0.00%    0.00%    0.00%
 48  1     4    1  |1 1>-         0.00%    0.00%    0.00%    0.00%
 49  1     5    1  |1 1>-         0.00%    0.00%    0.00%    0.00%
 50  1     6    1  |1 1>-         0.00%    0.00%    0.00%    0.00%
 51  1     7    1  |1 1>-         0.00%    0.00%    0.00%    0.00%
 52  1     8    1  |1 1>-         0.00%    0.00%    0.00%    0.00%
 53  1     9    1  |1 1>-         0.00%    0.00%    0.00%    0.00%
 54  1    10    1  |1 1>-         0.00%    0.00%    0.00%    0.00%
 55  1    11    1  |1 1>-         0.00%    0.00%    0.00%    0.00%
 56  1    12    1  |1 1>-         0.00%    0.00%    0.00%    0.00%
 57  1    13    1  |1 1>-         0.04%    0.00%    0.00%    0.00%
 58  1    14    1  |1 1>-         0.00%    0.00%    0.00%    0.24%
 59  1    15    1  |1 1>-         0.00%    0.04%    0.00%    0.00%
 60  1    16    1  |1 1>-         0.00%    0.00%   99.93%    0.00%



 **********************************************************************************************************************************
 DATASETS  * FILE   NREC   LENGTH (MB)   RECORD NAMES
              1      21       70.70       500      610      700      900      950      970     1000      129      960     1100   
                                          VAR    BASINP    GEOM    SYMINP    ZMAT    AOBASIS   BASIS     P2S    ABASIS      S 
                                         1400     1410     1420     1200     1210     1080     1700     1600     1650     1380   
                                           T        V       ECP      H0       H01     AOSYM    OPER      SMH    MOLCAS    JKOP   
                                         1700(1)
                                         OPER   

              2       7     1095.53       700     1000      520     2100     2140     5101     5103   
                                         GEOM     BASIS   MCVARS     RHF     MCSCF    MRCI     MRCI   

 PROGRAMS   *        TOTAL        CI        CI        CI     MULTI   RHF-SCF       INT
 CPU TIMES  *      5386.75   4166.03    795.44    415.58      5.60      0.44      3.24
 REAL TIME  *      5662.93 SEC
 DISK USED  *         1.14 GB (local),       27.79 GB (total)
 SF USED    *         6.96 GB
 GA USED    *         0.00 MB       (max)       0.00 MB       (current)
 **********************************************************************************************************************************

 CI/aug-cc-pWCV5Z-PP energy=    -25.271935674248

              CI              CI           MULTI         RHF-SCF
    -25.25170412    -25.24916363    -25.00446772    -25.09501761
 **********************************************************************************************************************************
 Molpro calculation terminated
