
 Working directory              : /wrk/irikura/molpro.Dz9y49SDAY/
 Global scratch directory       : /wrk/irikura/molpro.Dz9y49SDAY/
 Wavefunction directory         : /home/irikura/wfu/
 Main file repository           : /wrk/irikura/molpro.Dz9y49SDAY/

 id        : nistki

 Nodes            nprocs
 pn125343.nist.gov   16
 GA implementation: MPI file
 GA implementation (serial work in mppx): MPI file

 Using customized tuning parameters: mindgm=1; mindgv=20; mindgc=4; mindgr=1; noblas=0; minvec=7
 default implementation of scratch files=sf  


 Variables initialized (1025), CPU time= 0.01 sec
 ***,Ba SO-CI
 memory,1000,M;
 
 gprint,orbitals,civector;
 
 symmetry,xyz
 geometry={Ba};
 
 basis=aug-cc-pwCVTZ-PP
 
 {rhf;wf,sym=1,spin=0}
 
                                                                                 ! start with fewer terms
 {multi
     closed,1,3
     occ,8,3
     wf,sym=1,spin=0;state,1;
     wf,sym=1,spin=2;state,15;
     expec2,lxx,lyy,lzz;
 }
 table, energy, ll
 title, Prep energies and &lt;L**2&gt; values
 
                                                                                 ! active space (2/7) all in irrep 1
 {multi
     closed,1,3
     occ,8,3
     wf,sym=1,spin=0;state,12;
     wf,sym=1,spin=2;state,16;
     expec2,lxx,lyy,lzz;
 }
 table, energy, ll
 title, Energies and &lt;L**2&gt; values
 
 core,0,0
 
 {ci;wf,sym=1,spin=0;state,12; save,5101.2}
 hlsdiag = energd4
 {ci;wf,sym=1,spin=2;state,16; save,5103.2}
 hlsdiag(13) = energd4
 
 table,hlsdiag
 
 lsint
 {ci;hlsmat,ecp,5101.2,5103.2;print,vls=0,hls=0}                                 !compute and diagonalize SO matrix
 Commands initialized (840), CPU time= 0.01 sec, 684 directives.
 Default parameters read. Elapsed time= 0.09 sec

 Checking input...
 Passed
1


                                         ***  PROGRAM SYSTEM MOLPRO  ***
                                       Copyright, TTI GmbH Stuttgart, 2015
                                    Version 2022.3 linked Wed Nov 30 06:40:34 2022


 **********************************************************************************************************************************
 LABEL *   Ba SO-                                                                        
  64 bit mpp version                                                                     DATE: 22-Mar-24          TIME: 10:02:27  
 **********************************************************************************************************************************

 SHA1:             e31ec9a5ea85254ab76f59d122cbdd51c71cf98b
 **********************************************************************************************************************************

 Memory per process:      1000 MW
 Total memory per node:  16000 MW

 GA preallocation disabled
 GA check disabled

 Variable memory set to 1000.0 MW


 ZSYMEL=XYZ

 SETTING BASIS          =    AUG-CC-PWCVTZ-PP


 Recomputing integrals since basis changed


 Using spherical harmonics

 Library entry Ba   ECP ECP46MDF                 selected for group  1
 Library entry BA     S aug-cc-pwCVTZ-PP     selected for orbital group  1
 Library entry BA     P aug-cc-pwCVTZ-PP     selected for orbital group  1
 Library entry BA     D aug-cc-pwCVTZ-PP     selected for orbital group  1
 Library entry BA     F aug-cc-pwCVTZ-PP     selected for orbital group  1


 PROGRAM * SEWARD (Integral evaluation for generally contracted gaussian basis sets)     Author: Roland Lindh, 1990

 Geometry written to block  1 of record 700

 Orientation using atomic masses  
 Molecule type: Atom
 User-specified symmetry elements: XYZ
 Symmetry elements: XYZ
 Rotational constants:       0.0000000      0.0000000      0.0000000 GHz  (calculated with average atomic masses)

 Point group  Ci  



 ATOMIC COORDINATES

 NR  ATOM    CHARGE       X              Y              Z

   1  BA     10.00    0.000000000    0.000000000    0.000000000

 NUCLEAR CHARGE:                   10
 NUMBER OF PRIMITIVE AOS:         157
 NUMBER OF SYMMETRY AOS:          131
 NUMBER OF CONTRACTIONS:           87   (   38Ag  +   49Au  )
 NUMBER OF INNER CORE ORBITALS:     0   (    0Ag  +    0Au  )
 NUMBER OF OUTER CORE ORBITALS:     4   (    1Ag  +    3Au  )
 NUMBER OF VALENCE ORBITALS:        1   (    1Ag  +    0Au  )


 LX: Ag           LY: Ag           LZ: Ag 


 NUCLEAR REPULSION ENERGY    0.00000000

 EXTRA SYMMETRY OF AOS IN SYMMETRY 1:   1 1 1 1 1 1 1 1 2 3   4 5 6 2 3 4 5 6 2 3   4 5 6 2 3 4 5 6 2 3   4 5 6 2 3 4 5 6
 EXTRA SYMMETRY OF AOS IN SYMMETRY 2:   1 2 3 1 2 3 1 2 3 1   2 3 1 2 3 1 2 3 1 2   3 4 5 6 7 8 910 4 5   6 7 8 910 4 5 6 7 8
                                        910 4 5 6 7 8 910


 Eigenvalues of metric

         1 0.117E-04 0.758E-03 0.758E-03 0.758E-03 0.758E-03 0.758E-03 0.143E-02 0.911E-02
         2 0.564E-02 0.564E-02 0.564E-02 0.159E-01 0.159E-01 0.159E-01 0.902E-01 0.902E-01


 Contracted 2-electron integrals neglected if value below      1.0D-12
 AO integral compression algorithm  1   Integral accuracy      1.0D-12

     13.894 MB (compressed) written to integral file ( 20.3%)

     Node minimum: 0.262 MB, node maximum: 1.573 MB


 NUMBER OF SORTED TWO-ELECTRON INTEGRALS:     233060.     BUFFER LENGTH:  32768
 NUMBER OF SEGMENTS:   1  SEGMENT LENGTH:     233060      RECORD LENGTH: 524288

 Memory used in sort:       0.79 MW

 SORT1 READ     8662933. AND WROTE       47927. INTEGRALS IN      1 RECORDS. CPU TIME:     0.06 SEC, REAL TIME:     0.07 SEC
 SORT2 READ      777925. AND WROTE     3749011. INTEGRALS IN     64 RECORDS. CPU TIME:     0.01 SEC, REAL TIME:     0.02 SEC

 Node minimum:      232328.  Node maximum:      235903. integrals

 OPERATOR DM      FOR CENTER  0  COORDINATES:    0.000000    0.000000    0.000000


 **********************************************************************************************************************************
 DATASETS  * FILE   NREC   LENGTH (MB)   RECORD NAMES
              1      19       28.77       500      610      700      900      950      970     1000      129      960     1100   
                                          VAR    BASINP    GEOM    SYMINP    ZMAT    AOBASIS   BASIS     P2S    ABASIS      S 
                                         1400     1410     1420     1200     1210     1080     1700     1600     1650   
                                           T        V       ECP      H0       H01     AOSYM    OPER      SMH    MOLCAS    

 PROGRAMS   *        TOTAL       INT
 CPU TIMES  *         0.70      0.50
 REAL TIME  *         1.27 SEC
 DISK USED  *        29.04 MB (local),      534.94 MB (total)
 GA USED    *         0.00 MB       (max)       0.00 MB       (current)
 **********************************************************************************************************************************


 Program * Restricted Hartree-Fock

 Orbital guess generated from atomic densities. Full valence occupancy:    2   3

 Initial occupancy:   2   3

 NELEC=   10   SYM=1   MS2= 0   THRE=1.0D-08   THRD=3.2D-06   THRG=3.2D-06  HFMA2=F  DIIS_START=2   DIIS_MAX=10   DIIS_INCORE=F

 Level shifts:    0.00 (CLOSED)    0.00 (OPEN)    0.30 (GAP_MIN)

 ITER           ETOT              DE          GRAD        DDIFF     DIIS  NEXP   TIME(IT)  TIME(TOT)  DIAG
   1      -25.09500683     -25.09500683     0.00D+00     0.10D+00     0     0       0.00      0.01    start
   2      -25.09500683      -0.00000000     0.15D-05     0.30D-04     1     0       0.00      0.01    diag
   3      -25.09500683      -0.00000000     0.61D-06     0.19D-04     2     0       0.00      0.01    diag
   4      -25.09500683      -0.00000000     0.26D-06     0.12D-04     3     0       0.01      0.02    diag
   5      -25.09500683      -0.00000000     0.45D-07     0.98D-06     4     0       0.00      0.02    diag
   6      -25.09500683      -0.00000000     0.12D-07     0.13D-06     0     0       0.00      0.02    diag

 Final occupancy:   2   3

 !RHF STATE 1.1 Energy                -25.095006829040
  RHF One-electron energy             -41.272176595184
  RHF Two-electron energy              16.177169766143
  RHF Kinetic energy                    6.695468947860
  RHF Nuclear energy                    0.000000000000
  RHF Virial quotient                  -3.748058130724

 !RHF STATE 1.1 Dipole moment           0.00000000     0.00000000     0.00000000
 Dipole moment /Debye                   0.00000000     0.00000000     0.00000000

 ELECTRON ORBITALS
 =================

  Orbital  Occupation    Energy    Cen Mu Typ  Coefficients
    1.1     2.00000    -1.60487     1  1  s    1.00121
    2.1     2.00000    -0.16318     1  2  s    1.00075
    1.2     2.00000    -0.89696     1  1  pz   0.99996
    2.2     2.00000    -0.89696     1  1  py   0.99996
    3.2     2.00000    -0.89696     1  1  px   0.99996


 HOMO      2.1    -0.163179 =      -4.4403eV
 LUMO      4.2     0.007939 =       0.2160eV
 LUMO-HOMO         0.171119 =       4.6564eV

 Orbitals saved in record  2100.2


 **********************************************************************************************************************************
 DATASETS  * FILE   NREC   LENGTH (MB)   RECORD NAMES
              1      19       28.77       500      610      700      900      950      970     1000      129      960     1100   
                                          VAR    BASINP    GEOM    SYMINP    ZMAT    AOBASIS   BASIS     P2S    ABASIS      S 
                                         1400     1410     1420     1200     1210     1080     1700     1600     1650   
                                           T        V       ECP      H0       H01     AOSYM    OPER      SMH    MOLCAS    

              2       4        0.41       700     1000      520     2100   
                                         GEOM     BASIS   MCVARS     RHF  

 PROGRAMS   *        TOTAL   RHF-SCF       INT
 CPU TIMES  *         0.72      0.02      0.50
 REAL TIME  *         1.30 SEC
 DISK USED  *        29.42 MB (local),      541.12 MB (total)
 GA USED    *         0.00 MB       (max)       0.00 MB       (current)
 **********************************************************************************************************************************

 PROGRAM * MULTI (Direct Multiconfiguration SCF)       Authors: P.J. Knowles, H.-J. Werner (1984)
                                                                D.A. Kreplin, P.J. Knowles, H.-J. Werner (2019)

 Number of closed-shell orbitals:   4 (    1    3)
 Number of active  orbitals:        7 (    7    0)
 Number of external orbitals:      76 (   30   46)

 State symmetry 1

 Number of active electrons:   2    Spin symmetry=Singlet   Space symmetry=1
 Number of states:             1
 Number of CSFs:              28   (49 determinants, 49 intermediate states)

 State symmetry 2

 Number of active electrons:   2    Spin symmetry=Triplet   Space symmetry=1
 Number of states:            15
 Number of CSFs:              21   (21 determinants, 21 intermediate states)

 Molecular orbitals read from record     2100.2  Type=RHF/CANONICAL  
 *** IN SYMMETRY 1 ORBITAL  4 SYMMETRY CONTAMINATION OF 0.139D+00 HAS BEEN REMOVED
 *** IN SYMMETRY 1 ORBITAL  5 SYMMETRY CONTAMINATION OF 0.141D+00 HAS BEEN REMOVED
 *** IN SYMMETRY 1 ORBITAL  6 SYMMETRY CONTAMINATION OF 0.314D+00 HAS BEEN REMOVED
 *** IN SYMMETRY 1 ORBITAL  7 SYMMETRY CONTAMINATION OF 0.313D+00 HAS BEEN REMOVED

 EXTRA SYMMETRY OF MOS IN SYMMETRY 1:   1 1 1 4 6 3 5 2 2 4   6 3 5 1 4 6 3 5 2 1   4 6 5 3 2 1 6 4 3 5   2 6 4 3 5 2 1 1
 *** IN SYMMETRY 2 ORBITAL  1 SYMMETRY CONTAMINATION OF 0.764D-03 HAS BEEN REMOVED
 *** IN SYMMETRY 2 ORBITAL  2 SYMMETRY CONTAMINATION OF 0.160D-02 HAS BEEN REMOVED
 *** IN SYMMETRY 2 ORBITAL  3 SYMMETRY CONTAMINATION OF 0.124D-02 HAS BEEN REMOVED
 EXTRA SYMMETRY OF MOS IN SYMMETRY 2:   3 2 1 3 2 1 3 2 1 3   2 1 4 5 6 7 9 810 3   1 2 6 4 5 7 9 810 5   4 6 7 9 810 3 2 1 4
                                        5 6 810 9 7 3 2 1

 Wavefunction dump at record             2140.2

 Convergence thresholds  0.10E-04 (gradient)  0.10E-05 (energy)

 Weight factors for state symmetry  1:    0.06250
 Weight factors for state symmetry  2:    0.06250   0.06250   0.06250   0.06250   0.06250   0.06250   0.06250   0.06250
                                          0.06250   0.06250   0.06250   0.06250   0.06250   0.06250   0.06250
 
 Number of orbital rotations:  385  ( 7 closed/active, 168 closed/virtual, 0 active/active, 210 active/virtual )
 Total number of variables:    749
 
 Second-order MCSCF: L-BFGS accelerated
 
 ITER  MIC  NCI  NEG     ENERGY(VAR)    ENERGY(PROJ) ENERGY CHANGE       GRAD(0)  GRAD(ORB)   GRAD(CI)      STEP      TIME
   1   12   22    5    -24.90463693     -25.04335263   -0.13871569    0.05826643 0.00033734 0.00000000  0.20E+01      0.27
   2    7   12    0    -25.01772332     -25.02465715   -0.00693383    0.07756821 0.00000852 0.00000000  0.44E+00      0.50
   3    7   12    0    -25.02470725     -25.02471074   -0.00000349    0.00134094 0.00000176 0.00000000  0.82E-02      0.73
   4    6   12    0    -25.02471074     -25.02471074   -0.00000000    0.00000216 0.00000000 0.00000000  0.30E-04      0.92

 CONVERGENCE REACHED!  Final gradient:    0.00000000 ( 0.48E-08)
                       Final energy:    -25.02471074
 
 Results for state 1.1 Singlet
 =============================
 !MCSCF STATE 1.1 Singlet Energy               -25.101318036212
 Nuclear energy                                  0.00000000
 Kinetic energy                                  6.61943861
 One electron energy                           -41.24994525
 Two electron energy                            16.14862721
 Virial ratio                                    4.79206146
 
 !MCSCF STATE 1.1 Singlet Dipole moment          0.00000000     0.00000000     0.00000000
 Dipole moment /Debye                            0.00000000     0.00000000     0.00000000
 
 Results for state 1.1 Triplet
 =============================
 !MCSCF STATE 1.1 Triplet Energy               -25.061262058702
 Nuclear energy                                  0.00000000
 Kinetic energy                                  6.80546597
 One electron energy                           -41.50964143
 Two electron energy                            16.44837937
 Virial ratio                                    4.68251964
 
 !MCSCF STATE 1.1 Triplet Dipole moment          0.00000000     0.00000000     0.00000000
 Dipole moment /Debye                            0.00000000     0.00000000     0.00000000
 
 Results for state 2.1 Triplet
 =============================
 !MCSCF STATE 2.1 Triplet Energy               -25.061262058650
 Nuclear energy                                  0.00000000
 Kinetic energy                                  6.80546596
 One electron energy                           -41.50964143
 Two electron energy                            16.44837937
 Virial ratio                                    4.68251964
 
 !MCSCF STATE 2.1 Triplet Dipole moment          0.00000000     0.00000000     0.00000000
 Dipole moment /Debye                            0.00000000     0.00000000     0.00000000
 
 Results for state 3.1 Triplet
 =============================
 !MCSCF STATE 3.1 Triplet Energy               -25.061262058217
 Nuclear energy                                  0.00000000
 Kinetic energy                                  6.80546595
 One electron energy                           -41.50964140
 Two electron energy                            16.44837934
 Virial ratio                                    4.68251964
 
 !MCSCF STATE 3.1 Triplet Dipole moment          0.00000000     0.00000000     0.00000000
 Dipole moment /Debye                            0.00000000     0.00000000     0.00000000
 
 Results for state 4.1 Triplet
 =============================
 !MCSCF STATE 4.1 Triplet Energy               -25.061262057990
 Nuclear energy                                  0.00000000
 Kinetic energy                                  6.80546595
 One electron energy                           -41.50964138
 Two electron energy                            16.44837933
 Virial ratio                                    4.68251965
 
 !MCSCF STATE 4.1 Triplet Dipole moment          0.00000000     0.00000000     0.00000000
 Dipole moment /Debye                            0.00000000     0.00000000     0.00000000
 
 Results for state 5.1 Triplet
 =============================
 !MCSCF STATE 5.1 Triplet Energy               -25.061262057458
 Nuclear energy                                  0.00000000
 Kinetic energy                                  6.80546593
 One electron energy                           -41.50964135
 Two electron energy                            16.44837929
 Virial ratio                                    4.68251965
 
 !MCSCF STATE 5.1 Triplet Dipole moment          0.00000000     0.00000000     0.00000000
 Dipole moment /Debye                            0.00000000     0.00000000     0.00000000
 
 Results for state 6.1 Triplet
 =============================
 !MCSCF STATE 6.1 Triplet Energy               -25.004957062177
 Nuclear energy                                  0.00000000
 Kinetic energy                                  7.05065707
 One electron energy                           -41.91308927
 Two electron energy                            16.90813221
 Virial ratio                                    4.54647188
 
 !MCSCF STATE 6.1 Triplet Dipole moment          0.00000000     0.00000000     0.00000000
 Dipole moment /Debye                            0.00000000     0.00000000     0.00000000
 
 Results for state 7.1 Triplet
 =============================
 !MCSCF STATE 7.1 Triplet Energy               -25.004957062159
 Nuclear energy                                  0.00000000
 Kinetic energy                                  7.05065708
 One electron energy                           -41.91308929
 Two electron energy                            16.90813223
 Virial ratio                                    4.54647188
 
 !MCSCF STATE 7.1 Triplet Dipole moment          0.00000000     0.00000000     0.00000000
 Dipole moment /Debye                            0.00000000     0.00000000     0.00000000
 
 Results for state 8.1 Triplet
 =============================
 !MCSCF STATE 8.1 Triplet Energy               -25.004957062090
 Nuclear energy                                  0.00000000
 Kinetic energy                                  7.05065710
 One electron energy                           -41.91308935
 Two electron energy                            16.90813229
 Virial ratio                                    4.54647187
 
 !MCSCF STATE 8.1 Triplet Dipole moment          0.00000000     0.00000000     0.00000000
 Dipole moment /Debye                            0.00000000     0.00000000     0.00000000
 
 Results for state 9.1 Triplet
 =============================
 !MCSCF STATE 9.1 Triplet Energy               -25.004957062086
 Nuclear energy                                  0.00000000
 Kinetic energy                                  7.05065710
 One electron energy                           -41.91308935
 Two electron energy                            16.90813229
 Virial ratio                                    4.54647187
 
 !MCSCF STATE 9.1 Triplet Dipole moment          0.00000000     0.00000000     0.00000000
 Dipole moment /Debye                            0.00000000     0.00000000     0.00000000
 
 Results for state 10.1 Triplet
 ==============================
 !MCSCF STATE 10.1 Triplet Energy              -25.004957062071
 Nuclear energy                                  0.00000000
 Kinetic energy                                  7.05065711
 One electron energy                           -41.91308937
 Two electron energy                            16.90813231
 Virial ratio                                    4.54647186
 
 !MCSCF STATE 10.1 Triplet Dipole moment         0.00000000     0.00000000     0.00000000
 Dipole moment /Debye                            0.00000000     0.00000000     0.00000000
 
 Results for state 11.1 Triplet
 ==============================
 !MCSCF STATE 11.1 Triplet Energy              -25.004957062070
 Nuclear energy                                  0.00000000
 Kinetic energy                                  7.05065711
 One electron energy                           -41.91308937
 Two electron energy                            16.90813231
 Virial ratio                                    4.54647186
 
 !MCSCF STATE 11.1 Triplet Dipole moment         0.00000000     0.00000000     0.00000000
 Dipole moment /Debye                            0.00000000     0.00000000     0.00000000
 
 Results for state 12.1 Triplet
 ==============================
 !MCSCF STATE 12.1 Triplet Energy              -25.004957062033
 Nuclear energy                                  0.00000000
 Kinetic energy                                  7.05065712
 One electron energy                           -41.91308939
 Two electron energy                            16.90813233
 Virial ratio                                    4.54647186
 
 !MCSCF STATE 12.1 Triplet Dipole moment         0.00000000     0.00000000     0.00000000
 Dipole moment /Debye                            0.00000000     0.00000000     0.00000000
 
 Results for state 13.1 Triplet
 ==============================
 !MCSCF STATE 13.1 Triplet Energy              -24.984348024896
 Nuclear energy                                  0.00000000
 Kinetic energy                                  7.05065710
 One electron energy                           -41.91308934
 Two electron energy                            16.92874132
 Virial ratio                                    4.54354887
 
 !MCSCF STATE 13.1 Triplet Dipole moment         0.00000000     0.00000000     0.00000000
 Dipole moment /Debye                            0.00000000     0.00000000     0.00000000
 
 Results for state 14.1 Triplet
 ==============================
 !MCSCF STATE 14.1 Triplet Energy              -24.984348024885
 Nuclear energy                                  0.00000000
 Kinetic energy                                  7.05065710
 One electron energy                           -41.91308934
 Two electron energy                            16.92874132
 Virial ratio                                    4.54354887
 
 !MCSCF STATE 14.1 Triplet Dipole moment         0.00000000     0.00000000     0.00000000
 Dipole moment /Debye                            0.00000000     0.00000000     0.00000000
 
 Results for state 15.1 Triplet
 ==============================
 !MCSCF STATE 15.1 Triplet Energy              -24.984348024883
 Nuclear energy                                  0.00000000
 Kinetic energy                                  7.05065710
 One electron energy                           -41.91308934
 Two electron energy                            16.92874132
 Virial ratio                                    4.54354887
 
 !MCSCF STATE 15.1 Triplet Dipole moment         0.00000000     0.00000000     0.00000000
 Dipole moment /Debye                            0.00000000     0.00000000     0.00000000
 
 State-averaged charge density matrix saved on record 2140.2 (density set 1)
 
 No non-zero expectation values
 
 Expectation values for two-electron operators:
 
 !MCSCF expec      <1.1 Singlet|LXLX|1.1 Singlet>    -0.000000000000
 !MCSCF expec      <1.1 Triplet|LXLX|1.1 Triplet>     4.000000000000
 !MCSCF expec      <2.1 Triplet|LXLX|2.1 Triplet>     1.000000000000
 !MCSCF expec      <3.1 Triplet|LXLX|3.1 Triplet>     1.029140438359
 !MCSCF expec      <4.1 Triplet|LXLX|4.1 Triplet>     1.000000000000
 !MCSCF expec      <5.1 Triplet|LXLX|5.1 Triplet>     2.970859570718
 !MCSCF expec      <6.1 Triplet|LXLX|6.1 Triplet>     4.153075098083
 !MCSCF expec      <7.1 Triplet|LXLX|7.1 Triplet>     3.999999999996
 !MCSCF expec      <8.1 Triplet|LXLX|8.1 Triplet>     8.751370892012
 !MCSCF expec      <9.1 Triplet|LXLX|9.1 Triplet>     0.420044123015
 !MCSCF expec    <10.1 Triplet|LXLX|10.1 Triplet>     1.248636976598
 !MCSCF expec    <11.1 Triplet|LXLX|11.1 Triplet>     3.579968625096
 !MCSCF expec    <12.1 Triplet|LXLX|12.1 Triplet>     5.846926871741
 !MCSCF expec    <13.1 Triplet|LXLX|13.1 Triplet>     0.999999999995
 !MCSCF expec    <14.1 Triplet|LXLX|14.1 Triplet>     0.000000000002
 !MCSCF expec    <15.1 Triplet|LXLX|15.1 Triplet>     1.000000000000
 
 !MCSCF expec      <1.1 Singlet|LYLY|1.1 Singlet>    -0.000000000000
 !MCSCF expec      <1.1 Triplet|LYLY|1.1 Triplet>     1.000000000000
 !MCSCF expec      <2.1 Triplet|LYLY|2.1 Triplet>     4.000000000000
 !MCSCF expec      <3.1 Triplet|LYLY|3.1 Triplet>     0.971139919639
 !MCSCF expec      <4.1 Triplet|LYLY|4.1 Triplet>     1.000000000000
 !MCSCF expec      <5.1 Triplet|LYLY|5.1 Triplet>     3.028860071458
 !MCSCF expec      <6.1 Triplet|LYLY|6.1 Triplet>     3.848471885491
 !MCSCF expec      <7.1 Triplet|LYLY|7.1 Triplet>     4.000000000010
 !MCSCF expec      <8.1 Triplet|LYLY|8.1 Triplet>     0.858998769053
 !MCSCF expec      <9.1 Triplet|LYLY|9.1 Triplet>     8.164640619891
 !MCSCF expec    <10.1 Triplet|LYLY|10.1 Triplet>     3.141010541145
 !MCSCF expec    <11.1 Triplet|LYLY|11.1 Triplet>     1.835384813229
 !MCSCF expec    <12.1 Triplet|LYLY|12.1 Triplet>     6.151526183957
 !MCSCF expec    <13.1 Triplet|LYLY|13.1 Triplet>     1.000000000000
 !MCSCF expec    <14.1 Triplet|LYLY|14.1 Triplet>     1.000000000000
 !MCSCF expec    <15.1 Triplet|LYLY|15.1 Triplet>     0.000000000000
 
 !MCSCF expec      <1.1 Singlet|LZLZ|1.1 Singlet>    -0.000000000000
 !MCSCF expec      <1.1 Triplet|LZLZ|1.1 Triplet>     1.000000000000
 !MCSCF expec      <2.1 Triplet|LZLZ|2.1 Triplet>     1.000000000000
 !MCSCF expec      <3.1 Triplet|LZLZ|3.1 Triplet>     3.999719642002
 !MCSCF expec      <4.1 Triplet|LZLZ|4.1 Triplet>     4.000000000000
 !MCSCF expec      <5.1 Triplet|LZLZ|5.1 Triplet>     0.000280357824
 !MCSCF expec      <6.1 Triplet|LZLZ|6.1 Triplet>     3.998453016426
 !MCSCF expec      <7.1 Triplet|LZLZ|7.1 Triplet>     3.999999999994
 !MCSCF expec      <8.1 Triplet|LZLZ|8.1 Triplet>     2.389630338935
 !MCSCF expec      <9.1 Triplet|LZLZ|9.1 Triplet>     3.415315257094
 !MCSCF expec    <10.1 Triplet|LZLZ|10.1 Triplet>     7.610352482256
 !MCSCF expec    <11.1 Triplet|LZLZ|11.1 Triplet>     6.584646561675
 !MCSCF expec    <12.1 Triplet|LZLZ|12.1 Triplet>     0.001546944302
 !MCSCF expec    <13.1 Triplet|LZLZ|13.1 Triplet>     0.000000000005
 !MCSCF expec    <14.1 Triplet|LZLZ|14.1 Triplet>     0.999999999998
 !MCSCF expec    <15.1 Triplet|LZLZ|15.1 Triplet>     1.000000000000
 
 !MCSCF expec      <1.1 Singlet|L**2|1.1 Singlet>    -0.000000000000
 !MCSCF expec      <1.1 Triplet|L**2|1.1 Triplet>     6.000000000000
 !MCSCF expec      <2.1 Triplet|L**2|2.1 Triplet>     6.000000000000
 !MCSCF expec      <3.1 Triplet|L**2|3.1 Triplet>     6.000000000000
 !MCSCF expec      <4.1 Triplet|L**2|4.1 Triplet>     6.000000000000
 !MCSCF expec      <5.1 Triplet|L**2|5.1 Triplet>     6.000000000000
 !MCSCF expec      <6.1 Triplet|L**2|6.1 Triplet>    12.000000000000
 !MCSCF expec      <7.1 Triplet|L**2|7.1 Triplet>    12.000000000000
 !MCSCF expec      <8.1 Triplet|L**2|8.1 Triplet>    12.000000000000
 !MCSCF expec      <9.1 Triplet|L**2|9.1 Triplet>    12.000000000000
 !MCSCF expec    <10.1 Triplet|L**2|10.1 Triplet>    12.000000000000
 !MCSCF expec    <11.1 Triplet|L**2|11.1 Triplet>    12.000000000000
 !MCSCF expec    <12.1 Triplet|L**2|12.1 Triplet>    12.000000000000
 !MCSCF expec    <13.1 Triplet|L**2|13.1 Triplet>     2.000000000000
 !MCSCF expec    <14.1 Triplet|L**2|14.1 Triplet>     2.000000000000
 !MCSCF expec    <15.1 Triplet|L**2|15.1 Triplet>     2.000000000000
 
 EXTRA SYMMETRY OF MOS IN SYMMETRY 1:   1 1 2 5 6 4 3 1 1 5   6 4 3 2 5 6 4 3 2 1   5 3 6 4 2 1 3 5 6 4   2 3 5 4 6 2 1 1
 EXTRA SYMMETRY OF MOS IN SYMMETRY 2:   2 1 3 2 1 3 2 1 3 2   1 3 7 910 5 8 6 4 2   1 3 9 710 5 6 8 4 7   9 810 5 4 6 2 1 3 7
                                        9 810 5 4 6 2 1 3
 
  NATURAL ORBITALS (STATE AVERAGED)
  =================================

  Orbital  Occupation    Energy    Cen Mu Typ  Coefficients
    1.1     2.00000    -1.52901     1  1  s    0.98124
    2.1     0.43189    -0.01823     1  2  s    1.01366
    3.1     0.31353     0.06705     1  1  d0   0.92895
    4.1     0.31353     0.06705     1  1  d2+  0.92895
    5.1     0.31353     0.06705     1  1  d1-  0.92895
    6.1     0.31353     0.06705     1  1  d1+  0.92895
    7.1     0.31353     0.06705     1  1  d2-  0.92895
    8.1     0.00045     0.20296     1  2  s    1.47324    1  3  s    3.36210    1  4  s   -3.74322    1  5  s   -0.52773
                                    1  6  s   -0.36182    1  7  s    0.28600
    1.2     2.00000    -0.83305     1  1  py   0.97936
    2.2     2.00000    -0.83305     1  1  px   0.97936
    3.2     2.00000    -0.83305     1  1  pz   0.97936
 
 Natural orbital dump (state averaged) at molpro section 2140.2 (Orbital set 2)
 
 Transform the CI vectors
 
 CI Coefficients of symmetry 1 (Singlet)
 =======================================
 
 2000000        0.97690632
 0200000       -0.09090651
 0000020       -0.09090651
 0020000       -0.09090651
 0000200       -0.09090651
 0002000       -0.09090651
 
 Energy:      -25.10131804
 
 
 CI Coefficients of symmetry 1 (Triplet)
 =======================================

 State:              1               2               3               4               5               6               7
 0aa0000        0.00000000      0.00000000      0.00000000     -0.00000000      0.00000000     -0.00000054      1.00000000
 a0000a0        0.00000000     -0.00000000      0.00000013      0.99991821     -0.00000000     -0.00000000      0.00000000
 a000a00        0.00000015      0.99991821      0.00000000     -0.00000000     -0.00000000      0.00000000      0.00000000
 a00a000        0.99991821     -0.00000015     -0.00000000     -0.00000000      0.00000000     -0.00000000      0.00000000
 aa00000       -0.00000000      0.00000000      0.00837126      0.00000000      0.99988317     -0.00000000     -0.00000000
 a0a0000        0.00000000     -0.00000000      0.99988317     -0.00000013     -0.00837126      0.00000000     -0.00000000
 0a000a0        0.00000000     -0.00000000     -0.00000000      0.00000000      0.00000000      0.99980661      0.00000058
 00a00a0       -0.00000000      0.00000000      0.00000000     -0.00000000     -0.00000000      0.00879484     -0.00000076
 000aa00        0.00000000     -0.00000000     -0.00000000      0.00000000      0.00000000      0.01758968     -0.00000153
 00aa000        0.00000000     -0.00000000     -0.00000000     -0.00000000     -0.00000000      0.00000020     -0.00000006
 00a0a00       -0.00000000     -0.00000000     -0.00000000      0.00000000      0.00000000     -0.00000000     -0.00000076
 0000aa0        0.00000000     -0.00000000      0.00000000     -0.00000000      0.00000000     -0.00000032     -0.00000002
 000a0a0        0.00000000      0.00000000      0.00000000     -0.00000000      0.00000000     -0.00000000     -0.00000079
 0a0a000       -0.00000000      0.00000000     -0.00000000     -0.00000000     -0.00000000      0.00000007      0.00000004
 0a00a00       -0.00000000     -0.00000000     -0.00000000      0.00000000     -0.00000000      0.00000000      0.00000002
 
 Energy:      -25.06126206    -25.06126206    -25.06126206    -25.06126206    -25.06126206    -25.00495706    -25.00495706

 State:              8               9              10              11              12              13              14
 0aa0000        0.00000048      0.00000004      0.00000098      0.00000006      0.00000172      0.00000000      0.00000000
 a0000a0        0.00000000      0.00000000     -0.00000000      0.00000000      0.00000000      0.00000000      0.00000000
 a000a00       -0.00000000     -0.00000000      0.00000000     -0.00000000      0.00000000     -0.00000000      0.00000000
 a00a000       -0.00000000     -0.00000000      0.00000000     -0.00000000      0.00000000      0.00000000      0.00000000
 aa00000       -0.00000000     -0.00000000     -0.00000000      0.00000000     -0.00000000     -0.00000000     -0.00000000
 a0a0000       -0.00000000     -0.00000000      0.00000000     -0.00000000     -0.00000000     -0.00000000      0.00000000
 0a000a0        0.00000000      0.00000030      0.00000000     -0.00000039     -0.01966586     -0.00000000      0.00000000
 00a00a0       -0.00000000     -0.00000022     -0.00000000      0.00000335      0.44712712      0.89442719     -0.00000199
 000aa00       -0.00000000     -0.00000045     -0.00000000      0.00000669      0.89425421     -0.44721360      0.00000100
 00aa000       -0.00000000      0.06909839     -0.00000000      0.89175412     -0.00000664      0.00000100      0.44721360
 00a0a00       -0.20317793     -0.00000000      0.87104462     -0.00000000     -0.00000000     -0.00000000     -0.00000000
 0000aa0       -0.00000000      0.84616262      0.00000000     -0.28984276      0.00000260      0.00000100      0.44721360
 000a0a0        0.79259084     -0.00000000      0.41448734     -0.00000000     -0.00000000     -0.00000000     -0.00000000
 0a0a000        0.00000000     -0.52842619     -0.00000000     -0.34751369      0.00000233      0.00000172      0.77459667
 0a00a00       -0.57490737     -0.00000000      0.26359347     -0.00000000      0.00000000     -0.00000000      0.00000000
 
 Energy:      -25.00495706    -25.00495706    -25.00495706    -25.00495706    -25.00495706    -24.98434802    -24.98434802

 State:             15
 0aa0000        0.00000000
 a0000a0       -0.00000000
 a000a00        0.00000000
 a00a000        0.00000000
 aa00000        0.00000000
 a0a0000        0.00000000
 0a000a0        0.00000000
 00a00a0       -0.00000000
 000aa00        0.00000000
 00aa000        0.00000000
 00a0a00       -0.44721360
 0000aa0        0.00000000
 000a0a0        0.44721360
 0a0a000        0.00000000
 0a00a00        0.77459667
 
 Energy:      -24.98434802
 


 **********************************************************************************************************************************
 DATASETS  * FILE   NREC   LENGTH (MB)   RECORD NAMES
              1      21       31.85       500      610      700      900      950      970     1000      129      960     1100   
                                          VAR    BASINP    GEOM    SYMINP    ZMAT    AOBASIS   BASIS     P2S    ABASIS      S 
                                         1400     1410     1420     1200     1210     1080     1700     1600     1650     1380   
                                           T        V       ECP      H0       H01     AOSYM    OPER      SMH    MOLCAS    JKOP   
                                         1700(1)
                                         OPER   

              2       5        0.66       700     1000      520     2100     2140   
                                         GEOM     BASIS   MCVARS     RHF     MCSCF   

 PROGRAMS   *        TOTAL     MULTI   RHF-SCF       INT
 CPU TIMES  *         1.58      0.85      0.02      0.50
 REAL TIME  *         2.42 SEC
 DISK USED  *        32.56 MB (local),      591.26 MB (total)
 SF USED    *         9.08 MB
 GA USED    *         0.00 MB       (max)       0.00 MB       (current)
 **********************************************************************************************************************************

 Prep energies and &lt;L**2&gt; values

        ENERGY       LL
    -25.10131804   -0.0
    -25.06126206    6.0
    -25.06126206    6.0
    -25.06126206    6.0
    -25.06126206    6.0
    -25.06126206    6.0
    -25.00495706   12.0
    -25.00495706   12.0
    -25.00495706   12.0
    -25.00495706   12.0
    -25.00495706   12.0
    -25.00495706   12.0
    -25.00495706   12.0
    -24.98434802    2.0
    -24.98434802    2.0
    -24.98434802    2.0
                                                  

 PROGRAM * MULTI (Direct Multiconfiguration SCF)       Authors: P.J. Knowles, H.-J. Werner (1984)
                                                                D.A. Kreplin, P.J. Knowles, H.-J. Werner (2019)

 Number of closed-shell orbitals:   4 (    1    3)
 Number of active  orbitals:        7 (    7    0)
 Number of external orbitals:      76 (   30   46)

 State symmetry 1

 Number of active electrons:   2    Spin symmetry=Singlet   Space symmetry=1
 Number of states:            12
 Number of CSFs:              28   (49 determinants, 49 intermediate states)

 State symmetry 2

 Number of active electrons:   2    Spin symmetry=Triplet   Space symmetry=1
 Number of states:            16
 Number of CSFs:              21   (21 determinants, 21 intermediate states)

 Molecular orbitals read from record     2140.2  Type=MCSCF/NATURAL (state averaged)

 EXTRA SYMMETRY OF MOS IN SYMMETRY 1:   1 1 2 5 6 4 3 1 1 5   6 4 3 2 5 6 4 3 2 1   5 3 6 4 2 1 3 5 6 4   2 3 5 4 6 2 1 1
 EXTRA SYMMETRY OF MOS IN SYMMETRY 2:   2 1 3 2 1 3 2 1 3 2   1 3 7 910 5 8 6 4 2   1 3 9 710 5 6 8 4 7   9 810 5 4 6 2 1 3 7
                                        9 810 5 4 6 2 1 3

 Wavefunction dump at record             2141.2

 Convergence thresholds  0.10E-04 (gradient)  0.10E-05 (energy)

 Weight factors for state symmetry  1:    0.03571   0.03571   0.03571   0.03571   0.03571   0.03571   0.03571   0.03571
                                          0.03571   0.03571   0.03571   0.03571
 Weight factors for state symmetry  2:    0.03571   0.03571   0.03571   0.03571   0.03571   0.03571   0.03571   0.03571
                                          0.03571   0.03571   0.03571   0.03571   0.03571   0.03571   0.03571   0.03571
 
 Number of orbital rotations:  385  ( 7 closed/active, 168 closed/virtual, 0 active/active, 210 active/virtual )
 Total number of variables:    1309
 
 Second-order MCSCF: L-BFGS accelerated
 
 ITER  MIC  NCI  NEG     ENERGY(VAR)    ENERGY(PROJ) ENERGY CHANGE       GRAD(0)  GRAD(ORB)   GRAD(CI)      STEP      TIME
   1   10   18    1    -25.01468573     -25.01760232   -0.00291659    0.00488824 0.00000115 0.00000000  0.71E+00      0.23
   2    7   12    0    -25.01766695     -25.01767590   -0.00000895    0.00216755 0.00000099 0.00000000  0.12E-01      0.47
   3    6   12    0    -25.01767591     -25.01767591   -0.00000000    0.00000283 0.00000001 0.00000000  0.52E-04      0.64

 CONVERGENCE REACHED!  Final gradient:    0.00000000 ( 0.23E-08)
                       Final energy:    -25.01767591
 
 Results for state 1.1 Singlet
 =============================
 !MCSCF STATE 1.1 Singlet Energy               -25.100688875123
 Nuclear energy                                  0.00000000
 Kinetic energy                                  6.61622779
 One electron energy                           -41.22767099
 Two electron energy                            16.12698211
 Virial ratio                                    4.79380663
 
 !MCSCF STATE 1.1 Singlet Dipole moment          0.00000000     0.00000000     0.00000000
 Dipole moment /Debye                            0.00000000     0.00000000     0.00000000
 
 Results for state 2.1 Singlet
 =============================
 !MCSCF STATE 2.1 Singlet Energy               -25.044249490939
 Nuclear energy                                  0.00000000
 Kinetic energy                                  6.86572061
 One electron energy                           -41.59518442
 Two electron energy                            16.55093493
 Virial ratio                                    4.64772336
 
 !MCSCF STATE 2.1 Singlet Dipole moment          0.00000000     0.00000000     0.00000000
 Dipole moment /Debye                            0.00000000     0.00000000     0.00000000
 
 Results for state 3.1 Singlet
 =============================
 !MCSCF STATE 3.1 Singlet Energy               -25.044249490727
 Nuclear energy                                  0.00000000
 Kinetic energy                                  6.86572061
 One electron energy                           -41.59518441
 Two electron energy                            16.55093492
 Virial ratio                                    4.64772337
 
 !MCSCF STATE 3.1 Singlet Dipole moment          0.00000000     0.00000000     0.00000000
 Dipole moment /Debye                            0.00000000     0.00000000     0.00000000
 
 Results for state 4.1 Singlet
 =============================
 !MCSCF STATE 4.1 Singlet Energy               -25.044249490626
 Nuclear energy                                  0.00000000
 Kinetic energy                                  6.86572061
 One electron energy                           -41.59518441
 Two electron energy                            16.55093492
 Virial ratio                                    4.64772337
 
 !MCSCF STATE 4.1 Singlet Dipole moment          0.00000000     0.00000000     0.00000000
 Dipole moment /Debye                            0.00000000     0.00000000     0.00000000
 
 Results for state 5.1 Singlet
 =============================
 !MCSCF STATE 5.1 Singlet Energy               -25.044249490591
 Nuclear energy                                  0.00000000
 Kinetic energy                                  6.86572061
 One electron energy                           -41.59518441
 Two electron energy                            16.55093492
 Virial ratio                                    4.64772337
 
 !MCSCF STATE 5.1 Singlet Dipole moment          0.00000000     0.00000000     0.00000000
 Dipole moment /Debye                            0.00000000     0.00000000     0.00000000
 
 Results for state 6.1 Singlet
 =============================
 !MCSCF STATE 6.1 Singlet Energy               -25.044249490303
 Nuclear energy                                  0.00000000
 Kinetic energy                                  6.86572060
 One electron energy                           -41.59518439
 Two electron energy                            16.55093490
 Virial ratio                                    4.64772337
 
 !MCSCF STATE 6.1 Singlet Dipole moment          0.00000000     0.00000000     0.00000000
 Dipole moment /Debye                            0.00000000     0.00000000     0.00000000
 
 Results for state 7.1 Singlet
 =============================
 !MCSCF STATE 7.1 Singlet Energy               -24.988828111142
 Nuclear energy                                  0.00000000
 Kinetic energy                                  6.55673557
 One electron energy                           -40.30113709
 Two electron energy                            15.31230898
 Virial ratio                                    4.81116911
 
 !MCSCF STATE 7.1 Singlet Dipole moment          0.00000000     0.00000000     0.00000000
 Dipole moment /Debye                            0.00000000     0.00000000     0.00000000
 
 Results for state 8.1 Singlet
 =============================
 !MCSCF STATE 8.1 Singlet Energy               -24.978837858717
 Nuclear energy                                  0.00000000
 Kinetic energy                                  6.97489417
 One electron energy                           -41.62606355
 Two electron energy                            16.64722569
 Virial ratio                                    4.58124973
 
 !MCSCF STATE 8.1 Singlet Dipole moment          0.00000000     0.00000000     0.00000000
 Dipole moment /Debye                            0.00000000     0.00000000     0.00000000
 
 Results for state 9.1 Singlet
 =============================
 !MCSCF STATE 9.1 Singlet Energy               -24.978837858540
 Nuclear energy                                  0.00000000
 Kinetic energy                                  6.97489417
 One electron energy                           -41.62606355
 Two electron energy                            16.64722569
 Virial ratio                                    4.58124973
 
 !MCSCF STATE 9.1 Singlet Dipole moment          0.00000000     0.00000000     0.00000000
 Dipole moment /Debye                            0.00000000     0.00000000     0.00000000
 
 Results for state 10.1 Singlet
 ==============================
 !MCSCF STATE 10.1 Singlet Energy              -24.978837858388
 Nuclear energy                                  0.00000000
 Kinetic energy                                  6.97489417
 One electron energy                           -41.62606356
 Two electron energy                            16.64722570
 Virial ratio                                    4.58124973
 
 !MCSCF STATE 10.1 Singlet Dipole moment         0.00000000     0.00000000     0.00000000
 Dipole moment /Debye                            0.00000000     0.00000000     0.00000000
 
 Results for state 11.1 Singlet
 ==============================
 !MCSCF STATE 11.1 Singlet Energy              -24.978837858377
 Nuclear energy                                  0.00000000
 Kinetic energy                                  6.97489417
 One electron energy                           -41.62606356
 Two electron energy                            16.64722571
 Virial ratio                                    4.58124973
 
 !MCSCF STATE 11.1 Singlet Dipole moment         0.00000000     0.00000000     0.00000000
 Dipole moment /Debye                            0.00000000     0.00000000     0.00000000
 
 Results for state 12.1 Singlet
 ==============================
 !MCSCF STATE 12.1 Singlet Energy              -24.978837858118
 Nuclear energy                                  0.00000000
 Kinetic energy                                  6.97489417
 One electron energy                           -41.62606357
 Two electron energy                            16.64722571
 Virial ratio                                    4.58124973
 
 !MCSCF STATE 12.1 Singlet Dipole moment         0.00000000     0.00000000     0.00000000
 Dipole moment /Debye                            0.00000000     0.00000000     0.00000000
 
 Results for state 1.1 Triplet
 =============================
 !MCSCF STATE 1.1 Triplet Energy               -25.061599896887
 Nuclear energy                                  0.00000000
 Kinetic energy                                  6.82977148
 One electron energy                           -41.55263839
 Two electron energy                            16.49103850
 Virial ratio                                    4.66946390
 
 !MCSCF STATE 1.1 Triplet Dipole moment          0.00000000     0.00000000     0.00000000
 Dipole moment /Debye                            0.00000000     0.00000000     0.00000000
 
 Results for state 2.1 Triplet
 =============================
 !MCSCF STATE 2.1 Triplet Energy               -25.061599896716
 Nuclear energy                                  0.00000000
 Kinetic energy                                  6.82977147
 One electron energy                           -41.55263838
 Two electron energy                            16.49103848
 Virial ratio                                    4.66946390
 
 !MCSCF STATE 2.1 Triplet Dipole moment          0.00000000     0.00000000     0.00000000
 Dipole moment /Debye                            0.00000000     0.00000000     0.00000000
 
 Results for state 3.1 Triplet
 =============================
 !MCSCF STATE 3.1 Triplet Energy               -25.061599896647
 Nuclear energy                                  0.00000000
 Kinetic energy                                  6.82977147
 One electron energy                           -41.55263837
 Two electron energy                            16.49103848
 Virial ratio                                    4.66946390
 
 !MCSCF STATE 3.1 Triplet Dipole moment          0.00000000     0.00000000     0.00000000
 Dipole moment /Debye                            0.00000000     0.00000000     0.00000000
 
 Results for state 4.1 Triplet
 =============================
 !MCSCF STATE 4.1 Triplet Energy               -25.061599896613
 Nuclear energy                                  0.00000000
 Kinetic energy                                  6.82977147
 One electron energy                           -41.55263837
 Two electron energy                            16.49103847
 Virial ratio                                    4.66946391
 
 !MCSCF STATE 4.1 Triplet Dipole moment          0.00000000     0.00000000     0.00000000
 Dipole moment /Debye                            0.00000000     0.00000000     0.00000000
 
 Results for state 5.1 Triplet
 =============================
 !MCSCF STATE 5.1 Triplet Energy               -25.061599896377
 Nuclear energy                                  0.00000000
 Kinetic energy                                  6.82977146
 One electron energy                           -41.55263835
 Two electron energy                            16.49103846
 Virial ratio                                    4.66946391
 
 !MCSCF STATE 5.1 Triplet Dipole moment          0.00000000     0.00000000     0.00000000
 Dipole moment /Debye                            0.00000000     0.00000000     0.00000000
 
 Results for state 6.1 Triplet
 =============================
 !MCSCF STATE 6.1 Triplet Energy               -25.004688293578
 Nuclear energy                                  0.00000000
 Kinetic energy                                  7.07957867
 One electron energy                           -41.96789408
 Two electron energy                            16.96320578
 Virial ratio                                    4.53194582
 
 !MCSCF STATE 6.1 Triplet Dipole moment          0.00000000     0.00000000     0.00000000
 Dipole moment /Debye                            0.00000000     0.00000000     0.00000000
 
 Results for state 7.1 Triplet
 =============================
 !MCSCF STATE 7.1 Triplet Energy               -25.004688293555
 Nuclear energy                                  0.00000000
 Kinetic energy                                  7.07957867
 One electron energy                           -41.96789408
 Two electron energy                            16.96320579
 Virial ratio                                    4.53194582
 
 !MCSCF STATE 7.1 Triplet Dipole moment          0.00000000     0.00000000     0.00000000
 Dipole moment /Debye                            0.00000000     0.00000000     0.00000000
 
 Results for state 8.1 Triplet
 =============================
 !MCSCF STATE 8.1 Triplet Energy               -25.004688293503
 Nuclear energy                                  0.00000000
 Kinetic energy                                  7.07957868
 One electron energy                           -41.96789410
 Two electron energy                            16.96320580
 Virial ratio                                    4.53194582
 
 !MCSCF STATE 8.1 Triplet Dipole moment          0.00000000     0.00000000     0.00000000
 Dipole moment /Debye                            0.00000000     0.00000000     0.00000000
 
 Results for state 9.1 Triplet
 =============================
 !MCSCF STATE 9.1 Triplet Energy               -25.004688293480
 Nuclear energy                                  0.00000000
 Kinetic energy                                  7.07957868
 One electron energy                           -41.96789410
 Two electron energy                            16.96320581
 Virial ratio                                    4.53194582
 
 !MCSCF STATE 9.1 Triplet Dipole moment          0.00000000     0.00000000     0.00000000
 Dipole moment /Debye                            0.00000000     0.00000000     0.00000000
 
 Results for state 10.1 Triplet
 ==============================
 !MCSCF STATE 10.1 Triplet Energy              -25.004688293470
 Nuclear energy                                  0.00000000
 Kinetic energy                                  7.07957868
 One electron energy                           -41.96789410
 Two electron energy                            16.96320581
 Virial ratio                                    4.53194582
 
 !MCSCF STATE 10.1 Triplet Dipole moment         0.00000000     0.00000000     0.00000000
 Dipole moment /Debye                            0.00000000     0.00000000     0.00000000
 
 Results for state 11.1 Triplet
 ==============================
 !MCSCF STATE 11.1 Triplet Energy              -25.004688293450
 Nuclear energy                                  0.00000000
 Kinetic energy                                  7.07957868
 One electron energy                           -41.96789411
 Two electron energy                            16.96320582
 Virial ratio                                    4.53194582
 
 !MCSCF STATE 11.1 Triplet Dipole moment         0.00000000     0.00000000     0.00000000
 Dipole moment /Debye                            0.00000000     0.00000000     0.00000000
 
 Results for state 12.1 Triplet
 ==============================
 !MCSCF STATE 12.1 Triplet Energy              -25.004688293406
 Nuclear energy                                  0.00000000
 Kinetic energy                                  7.07957868
 One electron energy                           -41.96789412
 Two electron energy                            16.96320583
 Virial ratio                                    4.53194581
 
 !MCSCF STATE 12.1 Triplet Dipole moment         0.00000000     0.00000000     0.00000000
 Dipole moment /Debye                            0.00000000     0.00000000     0.00000000
 
 Results for state 13.1 Triplet
 ==============================
 !MCSCF STATE 13.1 Triplet Energy              -24.997852665868
 Nuclear energy                                  0.00000000
 Kinetic energy                                  6.50380732
 One electron energy                           -40.13908602
 Two electron energy                            15.14123336
 Virial ratio                                    4.84357214
 
 !MCSCF STATE 13.1 Triplet Dipole moment         0.00000000     0.00000000     0.00000000
 Dipole moment /Debye                            0.00000000     0.00000000     0.00000000
 
 Results for state 14.1 Triplet
 ==============================
 !MCSCF STATE 14.1 Triplet Energy              -24.983767194461
 Nuclear energy                                  0.00000000
 Kinetic energy                                  7.07957867
 One electron energy                           -41.96789409
 Two electron energy                            16.98412689
 Virial ratio                                    4.52899069
 
 !MCSCF STATE 14.1 Triplet Dipole moment         0.00000000     0.00000000     0.00000000
 Dipole moment /Debye                            0.00000000     0.00000000     0.00000000
 
 Results for state 15.1 Triplet
 ==============================
 !MCSCF STATE 15.1 Triplet Energy              -24.983767194348
 Nuclear energy                                  0.00000000
 Kinetic energy                                  7.07957868
 One electron energy                           -41.96789409
 Two electron energy                            16.98412690
 Virial ratio                                    4.52899068
 
 !MCSCF STATE 15.1 Triplet Dipole moment         0.00000000     0.00000000     0.00000000
 Dipole moment /Debye                            0.00000000     0.00000000     0.00000000
 
 Results for state 16.1 Triplet
 ==============================
 !MCSCF STATE 16.1 Triplet Energy              -24.983767194124
 Nuclear energy                                  0.00000000
 Kinetic energy                                  7.07957868
 One electron energy                           -41.96789411
 Two electron energy                            16.98412692
 Virial ratio                                    4.52899068
 
 !MCSCF STATE 16.1 Triplet Dipole moment         0.00000000     0.00000000     0.00000000
 Dipole moment /Debye                            0.00000000     0.00000000     0.00000000
 
 State-averaged charge density matrix saved on record 2141.2 (density set 1)
 
 No non-zero expectation values
 
 Expectation values for two-electron operators:
 
 !MCSCF expec      <1.1 Singlet|LXLX|1.1 Singlet>    -0.000000000000
 !MCSCF expec      <2.1 Singlet|LXLX|2.1 Singlet>     4.000000000000
 !MCSCF expec      <3.1 Singlet|LXLX|3.1 Singlet>     3.366727434347
 !MCSCF expec      <4.1 Singlet|LXLX|4.1 Singlet>     0.633273067559
 !MCSCF expec      <5.1 Singlet|LXLX|5.1 Singlet>     1.000000000000
 !MCSCF expec      <6.1 Singlet|LXLX|6.1 Singlet>     1.000000000000
 !MCSCF expec      <7.1 Singlet|LXLX|7.1 Singlet>     0.000000000000
 !MCSCF expec      <8.1 Singlet|LXLX|8.1 Singlet>     4.000000000000
 !MCSCF expec      <9.1 Singlet|LXLX|9.1 Singlet>     3.999744395524
 !MCSCF expec    <10.1 Singlet|LXLX|10.1 Singlet>     0.999999999999
 !MCSCF expec    <11.1 Singlet|LXLX|11.1 Singlet>     0.000255691957
 !MCSCF expec    <12.1 Singlet|LXLX|12.1 Singlet>     1.000000000000
 !MCSCF expec      <1.1 Triplet|LXLX|1.1 Triplet>     4.000000000000
 !MCSCF expec      <2.1 Triplet|LXLX|2.1 Triplet>     2.850106285468
 !MCSCF expec      <3.1 Triplet|LXLX|3.1 Triplet>     1.149893706649
 !MCSCF expec      <4.1 Triplet|LXLX|4.1 Triplet>     1.000000000000
 !MCSCF expec      <5.1 Triplet|LXLX|5.1 Triplet>     1.000000000000
 !MCSCF expec      <6.1 Triplet|LXLX|6.1 Triplet>     3.684470312463
 !MCSCF expec      <7.1 Triplet|LXLX|7.1 Triplet>     0.002832706966
 !MCSCF expec      <8.1 Triplet|LXLX|8.1 Triplet>     5.547713682385
 !MCSCF expec      <9.1 Triplet|LXLX|9.1 Triplet>     4.452257814677
 !MCSCF expec    <10.1 Triplet|LXLX|10.1 Triplet>     4.000000000000
 !MCSCF expec    <11.1 Triplet|LXLX|11.1 Triplet>     6.315531946281
 !MCSCF expec    <12.1 Triplet|LXLX|12.1 Triplet>     3.997167294578
 !MCSCF expec    <13.1 Triplet|LXLX|13.1 Triplet>    -0.000000000000
 !MCSCF expec    <14.1 Triplet|LXLX|14.1 Triplet>     1.000000000000
 !MCSCF expec    <15.1 Triplet|LXLX|15.1 Triplet>     1.000000000000
 !MCSCF expec    <16.1 Triplet|LXLX|16.1 Triplet>    -0.000000000000
 
 !MCSCF expec      <1.1 Singlet|LYLY|1.1 Singlet>    -0.000000000000
 !MCSCF expec      <2.1 Singlet|LYLY|2.1 Singlet>     1.000000000000
 !MCSCF expec      <3.1 Singlet|LYLY|3.1 Singlet>     2.581168643090
 !MCSCF expec      <4.1 Singlet|LYLY|4.1 Singlet>     1.418830699107
 !MCSCF expec      <5.1 Singlet|LYLY|5.1 Singlet>     1.000000000000
 !MCSCF expec      <6.1 Singlet|LYLY|6.1 Singlet>     4.000000000000
 !MCSCF expec      <7.1 Singlet|LYLY|7.1 Singlet>     0.000000000000
 !MCSCF expec      <8.1 Singlet|LYLY|8.1 Singlet>     1.000000000000
 !MCSCF expec      <9.1 Singlet|LYLY|9.1 Singlet>     1.027818313687
 !MCSCF expec    <10.1 Singlet|LYLY|10.1 Singlet>     1.000000000002
 !MCSCF expec    <11.1 Singlet|LYLY|11.1 Singlet>     2.972176905963
 !MCSCF expec    <12.1 Singlet|LYLY|12.1 Singlet>     4.000000000000
 !MCSCF expec      <1.1 Triplet|LYLY|1.1 Triplet>     1.000000000000
 !MCSCF expec      <2.1 Triplet|LYLY|2.1 Triplet>     3.142744509245
 !MCSCF expec      <3.1 Triplet|LYLY|3.1 Triplet>     0.857255497901
 !MCSCF expec      <4.1 Triplet|LYLY|4.1 Triplet>     1.000000000000
 !MCSCF expec      <5.1 Triplet|LYLY|5.1 Triplet>     3.999999999999
 !MCSCF expec      <6.1 Triplet|LYLY|6.1 Triplet>     3.993207549804
 !MCSCF expec      <7.1 Triplet|LYLY|7.1 Triplet>     5.792524155990
 !MCSCF expec      <8.1 Triplet|LYLY|8.1 Triplet>     6.439002278486
 !MCSCF expec      <9.1 Triplet|LYLY|9.1 Triplet>     3.561024569050
 !MCSCF expec    <10.1 Triplet|LYLY|10.1 Triplet>     4.000000000002
 !MCSCF expec    <11.1 Triplet|LYLY|11.1 Triplet>     0.006792548696
 !MCSCF expec    <12.1 Triplet|LYLY|12.1 Triplet>     4.207475787106
 !MCSCF expec    <13.1 Triplet|LYLY|13.1 Triplet>    -0.000000000000
 !MCSCF expec    <14.1 Triplet|LYLY|14.1 Triplet>     0.000000000000
 !MCSCF expec    <15.1 Triplet|LYLY|15.1 Triplet>     1.000000000000
 !MCSCF expec    <16.1 Triplet|LYLY|16.1 Triplet>     1.000000000000
 
 !MCSCF expec      <1.1 Singlet|LZLZ|1.1 Singlet>    -0.000000000000
 !MCSCF expec      <2.1 Singlet|LZLZ|2.1 Singlet>     1.000000000000
 !MCSCF expec      <3.1 Singlet|LZLZ|3.1 Singlet>     0.052103922564
 !MCSCF expec      <4.1 Singlet|LZLZ|4.1 Singlet>     3.947896233334
 !MCSCF expec      <5.1 Singlet|LZLZ|5.1 Singlet>     4.000000000000
 !MCSCF expec      <6.1 Singlet|LZLZ|6.1 Singlet>     1.000000000000
 !MCSCF expec      <7.1 Singlet|LZLZ|7.1 Singlet>    -0.000000000000
 !MCSCF expec      <8.1 Singlet|LZLZ|8.1 Singlet>     1.000000000000
 !MCSCF expec      <9.1 Singlet|LZLZ|9.1 Singlet>     0.972437290790
 !MCSCF expec    <10.1 Singlet|LZLZ|10.1 Singlet>     4.000000000000
 !MCSCF expec    <11.1 Singlet|LZLZ|11.1 Singlet>     3.027567402080
 !MCSCF expec    <12.1 Singlet|LZLZ|12.1 Singlet>     1.000000000000
 !MCSCF expec      <1.1 Triplet|LZLZ|1.1 Triplet>     1.000000000000
 !MCSCF expec      <2.1 Triplet|LZLZ|2.1 Triplet>     0.007149205287
 !MCSCF expec      <3.1 Triplet|LZLZ|3.1 Triplet>     3.992850795450
 !MCSCF expec      <4.1 Triplet|LZLZ|4.1 Triplet>     4.000000000000
 !MCSCF expec      <5.1 Triplet|LZLZ|5.1 Triplet>     1.000000000001
 !MCSCF expec      <6.1 Triplet|LZLZ|6.1 Triplet>     4.322322137733
 !MCSCF expec      <7.1 Triplet|LZLZ|7.1 Triplet>     6.204643137043
 !MCSCF expec      <8.1 Triplet|LZLZ|8.1 Triplet>     0.013284039129
 !MCSCF expec      <9.1 Triplet|LZLZ|9.1 Triplet>     3.986717616273
 !MCSCF expec    <10.1 Triplet|LZLZ|10.1 Triplet>     3.999999999998
 !MCSCF expec    <11.1 Triplet|LZLZ|11.1 Triplet>     5.677675505023
 !MCSCF expec    <12.1 Triplet|LZLZ|12.1 Triplet>     3.795356918316
 !MCSCF expec    <13.1 Triplet|LZLZ|13.1 Triplet>    -0.000000000000
 !MCSCF expec    <14.1 Triplet|LZLZ|14.1 Triplet>     1.000000000000
 !MCSCF expec    <15.1 Triplet|LZLZ|15.1 Triplet>     0.000000000000
 !MCSCF expec    <16.1 Triplet|LZLZ|16.1 Triplet>     1.000000000000
 
 !MCSCF expec      <1.1 Singlet|L**2|1.1 Singlet>    -0.000000000000
 !MCSCF expec      <2.1 Singlet|L**2|2.1 Singlet>     6.000000000000
 !MCSCF expec      <3.1 Singlet|L**2|3.1 Singlet>     6.000000000000
 !MCSCF expec      <4.1 Singlet|L**2|4.1 Singlet>     6.000000000000
 !MCSCF expec      <5.1 Singlet|L**2|5.1 Singlet>     6.000000000000
 !MCSCF expec      <6.1 Singlet|L**2|6.1 Singlet>     6.000000000000
 !MCSCF expec      <7.1 Singlet|L**2|7.1 Singlet>    -0.000000000000
 !MCSCF expec      <8.1 Singlet|L**2|8.1 Singlet>     6.000000000000
 !MCSCF expec      <9.1 Singlet|L**2|9.1 Singlet>     6.000000000000
 !MCSCF expec    <10.1 Singlet|L**2|10.1 Singlet>     6.000000000000
 !MCSCF expec    <11.1 Singlet|L**2|11.1 Singlet>     6.000000000000
 !MCSCF expec    <12.1 Singlet|L**2|12.1 Singlet>     6.000000000000
 !MCSCF expec      <1.1 Triplet|L**2|1.1 Triplet>     6.000000000000
 !MCSCF expec      <2.1 Triplet|L**2|2.1 Triplet>     6.000000000000
 !MCSCF expec      <3.1 Triplet|L**2|3.1 Triplet>     6.000000000000
 !MCSCF expec      <4.1 Triplet|L**2|4.1 Triplet>     6.000000000000
 !MCSCF expec      <5.1 Triplet|L**2|5.1 Triplet>     6.000000000000
 !MCSCF expec      <6.1 Triplet|L**2|6.1 Triplet>    12.000000000000
 !MCSCF expec      <7.1 Triplet|L**2|7.1 Triplet>    12.000000000000
 !MCSCF expec      <8.1 Triplet|L**2|8.1 Triplet>    12.000000000000
 !MCSCF expec      <9.1 Triplet|L**2|9.1 Triplet>    12.000000000000
 !MCSCF expec    <10.1 Triplet|L**2|10.1 Triplet>    12.000000000000
 !MCSCF expec    <11.1 Triplet|L**2|11.1 Triplet>    12.000000000000
 !MCSCF expec    <12.1 Triplet|L**2|12.1 Triplet>    12.000000000000
 !MCSCF expec    <13.1 Triplet|L**2|13.1 Triplet>    -0.000000000000
 !MCSCF expec    <14.1 Triplet|L**2|14.1 Triplet>     2.000000000000
 !MCSCF expec    <15.1 Triplet|L**2|15.1 Triplet>     2.000000000000
 !MCSCF expec    <16.1 Triplet|L**2|16.1 Triplet>     2.000000000000
 
 EXTRA SYMMETRY OF MOS IN SYMMETRY 1:   1 1 4 5 2 3 6 1 6 2   5 3 4 1 6 2 5 3 4 1   6 2 5 3 4 1 6 2 3 5   4 6 3 5 2 4 1 1
 EXTRA SYMMETRY OF MOS IN SYMMETRY 2:   2 3 1 2 3 1 2 3 1 2   3 1 5 6 410 8 7 9 2   3 1 5 610 8 4 9 7 5   6 810 7 9 4 2 3 1 5
                                        6 810 7 9 4 2 3 1
 
  NATURAL ORBITALS (STATE AVERAGED)
  =================================

  Orbital  Occupation    Energy    Cen Mu Typ  Coefficients
    1.1     2.00000    -1.54469     1  1  s    0.98304
    2.1     0.48974    -0.03307     1  2  s    0.98163
    3.1     0.28353     0.06045     1  1  d1+  0.94190
    4.1     0.28353     0.06045     1  1  d2+  0.94190
    5.1     0.28353     0.06045     1  1  d0   0.94190
    6.1     0.28353     0.06045     1  1  d2-  0.94190
    7.1     0.28353     0.06045     1  1  d1-  0.94190
    8.1     0.09260     0.03995     1  2  s    0.77491    1  4  s    0.26175    1  8  s   -1.49561
    1.2     2.00000    -0.84787     1  1  py   0.98112
    2.2     2.00000    -0.84787     1  1  pz   0.98112
    3.2     2.00000    -0.84787     1  1  px   0.98112
 
 Natural orbital dump (state averaged) at molpro section 2141.2 (Orbital set 2)
 
 Transform the CI vectors
 
 CI Coefficients of symmetry 1 (Singlet)
 =======================================

 State:              1               2               3               4               5               6               7
 2000000        0.97005241     -0.00000000      0.00000000     -0.00000000      0.00000000     -0.00000000     -0.16198757
 b00000a       -0.09315476      0.00000000     -0.00000000      0.00000000     -0.00000000     -0.00000000     -0.65506408
 a00000b        0.09315476     -0.00000000      0.00000000     -0.00000000      0.00000000      0.00000000      0.65506408
 b0000a0       -0.00000000     -0.64238724     -0.00000000      0.00000000     -0.00000000      0.00000000     -0.00000000
 a0000b0        0.00000000      0.64238724      0.00000000     -0.00000000      0.00000000     -0.00000000      0.00000000
 b000a00        0.00000000      0.00000000      0.00000004      0.00000005     -0.64238724     -0.00000001      0.00000000
 a000b00       -0.00000000     -0.00000000     -0.00000004     -0.00000005      0.64238724      0.00000001     -0.00000000
 ab00000        0.00000000     -0.00000000     -0.00000020     -0.00000033     -0.00000001      0.64238724      0.00000000
 ba00000       -0.00000000      0.00000000      0.00000020      0.00000033      0.00000001     -0.64238724     -0.00000000
 b00a000        0.00000000      0.00000000     -0.63818967      0.07331657     -0.00000004     -0.00000017      0.00000000
 a00b000       -0.00000000     -0.00000000      0.63818967     -0.07331657      0.00000004      0.00000017     -0.00000000
 a0b0000        0.00000000      0.00000000      0.07331657      0.63818967      0.00000006      0.00000035      0.00000000
 b0a0000       -0.00000000     -0.00000000     -0.07331657     -0.63818967     -0.00000006     -0.00000035     -0.00000000
 000ba00        0.00000000     -0.00000000      0.00000001      0.00000002     -0.22332225     -0.00000001      0.00000000
 000ab00       -0.00000000      0.00000000     -0.00000001     -0.00000002      0.22332225      0.00000001     -0.00000000
 0000020       -0.09101892      0.00000000     -0.08885816      0.20488302      0.00000001      0.00000008     -0.08624192
 0000200       -0.09101892     -0.00000000      0.22186298     -0.02548808      0.00000001      0.00000006     -0.08624192
 00ab000        0.00000000      0.00000000      0.02548808      0.22186298      0.00000002      0.00000012      0.00000000
 00ba000       -0.00000000     -0.00000000     -0.02548808     -0.22186298     -0.00000002     -0.00000012     -0.00000000
 0020000       -0.09101892     -0.00000000      0.22186298     -0.02548808      0.00000001      0.00000006     -0.08624192
 0002000       -0.09101892      0.00000000     -0.22186298      0.02548809     -0.00000001     -0.00000006     -0.08624192
 0b00a00       -0.00000000      0.19340274      0.00000000     -0.00000000     -0.00000000      0.00000000     -0.00000000
 0a00b00        0.00000000     -0.19340274     -0.00000000      0.00000000      0.00000000     -0.00000000      0.00000000
 0ba0000       -0.00000000      0.00000000     -0.00000006     -0.00000010     -0.00000000      0.19340274      0.00000000
 0ab0000        0.00000000     -0.00000000      0.00000006      0.00000010      0.00000000     -0.19340274     -0.00000000
 0b000a0       -0.00000000     -0.00000000     -0.00000001     -0.00000002      0.19340274      0.00000000     -0.00000000
 0a000b0        0.00000000      0.00000000      0.00000001      0.00000002     -0.19340274     -0.00000000      0.00000000
 00a00b0       -0.00000000      0.19340274      0.00000000     -0.00000000     -0.00000000     -0.00000000     -0.00000000
 00b00a0        0.00000000     -0.19340274     -0.00000000      0.00000000      0.00000000      0.00000000      0.00000000
 0000ba0        0.00000000      0.00000000     -0.00000006     -0.00000010     -0.00000000      0.19340274     -0.00000000
 0000ab0       -0.00000000     -0.00000000      0.00000006      0.00000010      0.00000000     -0.19340274      0.00000000
 0200000       -0.09101892      0.00000000     -0.13300482     -0.17939494     -0.00000002     -0.00000013     -0.08624191
 0000002       -0.01484891      0.00000000      0.00000000     -0.00000000      0.00000000      0.00000000      0.27991744
 00000ba       -0.00000000     -0.00782204     -0.00000000      0.00000000      0.00000000     -0.00000000      0.00000000
 00000ab        0.00000000      0.00782204      0.00000000     -0.00000000     -0.00000000      0.00000000     -0.00000000
 0000a0b       -0.00000000     -0.00000000     -0.00000000     -0.00000000      0.00782205      0.00000000     -0.00000000
 0000b0a        0.00000000      0.00000000      0.00000000      0.00000000     -0.00782205     -0.00000000      0.00000000
 0a0000b       -0.00000000     -0.00000000     -0.00000000     -0.00000000     -0.00000000      0.00782205     -0.00000000
 0b0000a        0.00000000      0.00000000      0.00000000      0.00000000      0.00000000     -0.00782205      0.00000000
 0a0b000        0.00000000      0.00000000      0.00000004      0.00000006      0.00000000     -0.11166112      0.00000000
 0b0a000       -0.00000000     -0.00000000     -0.00000004     -0.00000006     -0.00000000      0.11166112     -0.00000000
 000a0b0        0.00000000     -0.11166112     -0.00000000      0.00000000     -0.00000000     -0.00000000     -0.00000000
 000b0a0       -0.00000000      0.11166112      0.00000000     -0.00000000      0.00000000      0.00000000      0.00000000
 000b00a       -0.00000000      0.00000000     -0.00777094      0.00089274     -0.00000000     -0.00000000     -0.00000000
 000a00b        0.00000000     -0.00000000      0.00777094     -0.00089274      0.00000000      0.00000000      0.00000000
 00b000a        0.00000000      0.00000000     -0.00089274     -0.00777094     -0.00000000     -0.00000000      0.00000000
 00a000b       -0.00000000     -0.00000000      0.00089274      0.00777094      0.00000000      0.00000000     -0.00000000
 
 Energy:      -25.10068888    -25.04424949    -25.04424949    -25.04424949    -25.04424949    -25.04424949    -24.98882811

 State:              8               9              10              11              12
 2000000        0.00000000     -0.00000000      0.00000000     -0.00000000      0.00000000
 b00000a        0.00000000     -0.00000000      0.00000000     -0.00000000      0.00000000
 a00000b       -0.00000000      0.00000000     -0.00000000      0.00000000     -0.00000000
 b0000a0       -0.28124017     -0.00000000      0.00000000     -0.00000001     -0.00000000
 a0000b0        0.28124017      0.00000000     -0.00000000      0.00000001      0.00000000
 b000a00       -0.00000000      0.00000018      0.28124017      0.00000036      0.00000005
 a000b00        0.00000000     -0.00000018     -0.28124017     -0.00000036     -0.00000005
 ab00000        0.00000000     -0.00000002     -0.00000005      0.00000000      0.28124018
 ba00000       -0.00000000      0.00000002      0.00000005     -0.00000000     -0.28124018
 b00a000        0.00000000      0.24467744      0.00000002     -0.13866861      0.00000002
 a00b000       -0.00000000     -0.24467744     -0.00000002      0.13866861     -0.00000002
 a0b0000        0.00000000     -0.13866861      0.00000040     -0.24467744     -0.00000001
 b0a0000       -0.00000000      0.13866861     -0.00000040      0.24467744      0.00000001
 000ba00        0.00000000     -0.00000029     -0.45760898     -0.00000059     -0.00000009
 000ab00       -0.00000000      0.00000029      0.45760898      0.00000059      0.00000009
 0000020       -0.00000001     -0.00365804     -0.00000059      0.45759430     -0.00000000
 0000200        0.00000000      0.39811739      0.00000004     -0.22562922      0.00000003
 00ab000       -0.00000001      0.22562918     -0.00000065      0.39811738      0.00000001
 00ba000        0.00000001     -0.22562918      0.00000065     -0.39811738     -0.00000001
 0020000        0.00000000      0.39811737      0.00000004     -0.22562921      0.00000003
 0002000       -0.00000000     -0.39811729     -0.00000004      0.22562930     -0.00000003
 0b00a00       -0.39630111     -0.00000000      0.00000000     -0.00000001     -0.00000000
 0a00b00        0.39630111      0.00000000     -0.00000000      0.00000001      0.00000000
 0ba0000        0.00000000      0.00000003      0.00000008     -0.00000000     -0.39630108
 0ab0000       -0.00000000     -0.00000003     -0.00000008      0.00000000      0.39630108
 0b000a0       -0.00000000      0.00000025      0.39630102      0.00000051      0.00000008
 0a000b0        0.00000000     -0.00000025     -0.39630102     -0.00000051     -0.00000008
 00a00b0       -0.39630094     -0.00000000     -0.00000000     -0.00000001      0.00000000
 00b00a0        0.39630094      0.00000000      0.00000000      0.00000001     -0.00000000
 0000ba0        0.00000000      0.00000003      0.00000008     -0.00000000     -0.39630093
 0000ab0       -0.00000000     -0.00000003     -0.00000008      0.00000000      0.39630093
 0200000        0.00000001     -0.39445944      0.00000055     -0.23196519     -0.00000003
 0000002       -0.00000000      0.00000000     -0.00000000      0.00000000     -0.00000000
 00000ba        0.23333129      0.00000000     -0.00000000      0.00000000      0.00000000
 00000ab       -0.23333129     -0.00000000      0.00000000     -0.00000000     -0.00000000
 0000a0b        0.00000000      0.00000015      0.23333128      0.00000030      0.00000004
 0000b0a       -0.00000000     -0.00000015     -0.23333128     -0.00000030     -0.00000004
 0a0000b       -0.00000000      0.00000002      0.00000004     -0.00000000     -0.23333127
 0b0000a        0.00000000     -0.00000002     -0.00000004      0.00000000      0.23333127
 0a0b000       -0.00000000     -0.00000002     -0.00000004      0.00000000      0.22880452
 0b0a000        0.00000000      0.00000002      0.00000004     -0.00000000     -0.22880452
 000a0b0        0.22880444      0.00000000     -0.00000000      0.00000000      0.00000000
 000b0a0       -0.22880444     -0.00000000      0.00000000     -0.00000000     -0.00000000
 000b00a       -0.00000000     -0.20299697     -0.00000002      0.11504660     -0.00000002
 000a00b        0.00000000      0.20299697      0.00000002     -0.11504660      0.00000002
 00b000a        0.00000000     -0.11504659      0.00000033     -0.20299696     -0.00000001
 00a000b       -0.00000000      0.11504659     -0.00000033      0.20299696      0.00000001
 
 Energy:      -24.97883786    -24.97883786    -24.97883786    -24.97883786    -24.97883786
 
 
 CI Coefficients of symmetry 1 (Triplet)
 =======================================

 State:              1               2               3               4               5               6               7
 a00000a        0.00000000      0.00000000      0.00000000      0.00000000     -0.00000000     -0.00000000     -0.00000000
 00aa000        0.00000000      0.00000000      0.00000000     -0.00000000      0.00000000     -0.00000010     -0.00000000
 a0000a0        0.99849825     -0.00000000     -0.00000000      0.00000000      0.00000000     -0.00000000      0.00000000
 a000a00        0.00000000      0.00000059      0.00000173      0.99849825     -0.00000004     -0.00000000      0.00000000
 aa00000       -0.00000000     -0.00000019      0.00000012      0.00000004      0.99849825      0.00000000      0.00000000
 000aa00        0.00000000     -0.00000000     -0.00000000     -0.00000000     -0.00000000     -0.00000077     -0.00000000
 a00a000        0.00000000      0.99760554      0.04221300     -0.00000066      0.00000018      0.00000000     -0.00000000
 a0a0000        0.00000000     -0.04221300      0.99760554     -0.00000170     -0.00000012     -0.00000000     -0.00000000
 00a0a00        0.00000000      0.00000000      0.00000000      0.00000000      0.00000000     -0.00000009      0.00000000
 0a00a00       -0.00000000     -0.00000000      0.00000000     -0.00000000      0.00000000     -0.00000000      0.89411043
 0000aa0        0.00000000      0.00000000      0.00000000     -0.00000000     -0.00000000      0.03685770      0.00000000
 0a000a0        0.00000000     -0.00000000     -0.00000000     -0.00000000     -0.00000000      0.00000017     -0.00000000
 0aa0000        0.00000000     -0.00000000      0.00000000      0.00000000     -0.00000000      0.87450421      0.00000000
 00a00a0        0.00000000     -0.00000000     -0.00000000      0.00000000      0.00000000      0.00000000     -0.24657392
 000a0a0       -0.00000000     -0.00000000     -0.00000000      0.00000000      0.00000000      0.00000000     -0.37385537
 0a0a000       -0.00000000      0.00000000      0.00000000      0.00000000     -0.00000000      0.48361544      0.00000000
 0a0000a        0.00000000      0.00000001     -0.00000001     -0.00000000     -0.05478362     -0.00000000     -0.00000000
 0000a0a       -0.00000000     -0.00000003     -0.00000009     -0.05478361      0.00000000      0.00000000     -0.00000000
 00000aa       -0.05478361      0.00000000      0.00000000     -0.00000000     -0.00000000      0.00000000     -0.00000000
 00a000a       -0.00000000      0.00231606     -0.05473463      0.00000009      0.00000001     -0.00000000     -0.00000000
 000a00a       -0.00000000     -0.05473463     -0.00231606      0.00000004     -0.00000001      0.00000000     -0.00000000
 
 Energy:      -25.06159990    -25.06159990    -25.06159990    -25.06159990    -25.06159990    -25.00468829    -25.00468829

 State:              8               9              10              11              12              13              14
 a00000a        0.00000000      0.00000000     -0.00000000     -0.00000000     -0.00000000      1.00000000     -0.00000000
 00aa000       -0.00000090     -0.00000653      1.00000000      0.00000097      0.00000024      0.00000000      0.00000000
 a0000a0       -0.00000000     -0.00000000      0.00000000      0.00000000     -0.00000000     -0.00000000      0.00000000
 a000a00        0.00000000      0.00000000      0.00000000      0.00000000     -0.00000000     -0.00000000      0.00000000
 aa00000        0.00000000      0.00000000     -0.00000000      0.00000000     -0.00000000      0.00000000      0.00000000
 000aa00        0.05762820      0.99833811      0.00000657     -0.00000049     -0.00000008     -0.00000000     -0.00000000
 a00a000        0.00000000      0.00000000     -0.00000000     -0.00000000      0.00000000     -0.00000000      0.00000000
 a0a0000        0.00000000      0.00000000     -0.00000000     -0.00000000      0.00000000     -0.00000000      0.00000000
 00a0a00       -0.44647038      0.02577212     -0.00000023     -0.00000066     -0.00000000      0.00000000      0.00000038
 0a00a00        0.00000000      0.00000000     -0.00000000     -0.00000000      0.02380213      0.00000000      0.00000000
 0000aa0       -0.00000130      0.00000054     -0.00000086      0.89366745      0.00000000      0.00000000      0.44721360
 0a000a0        0.89294076     -0.05154423      0.00000047      0.00000133      0.00000000     -0.00000000      0.00000019
 0aa0000       -0.00000040      0.00000079     -0.00000010      0.18772955     -0.00000000      0.00000000     -0.44721359
 00a00a0        0.00000000      0.00000007     -0.00000021     -0.00000000      0.85976817      0.00000000     -0.00000000
[...]
 49  1     5    1  |1 1>-         0.00%    0.00%    0.00%    0.00%    0.00%    0.00%    0.00%    0.00%
 50  1     6    1  |1 1>-         0.00%    0.00%    0.00%    0.00%   26.97%    0.00%    0.00%   15.89%
 51  1     7    1  |1 1>-        30.07%    0.00%    0.00%   29.20%    0.00%    0.00%   13.75%    0.00%
 52  1     8    1  |1 1>-         0.00%    0.01%    0.00%    0.00%    0.00%   52.37%    0.00%    0.00%
 53  1     9    1  |1 1>-         0.00%    0.00%    3.67%    0.00%    0.00%    0.00%    0.00%    0.00%
 54  1    10    1  |1 1>-         0.00%    0.00%   22.33%    0.00%    0.00%    0.00%    0.00%    0.00%
 55  1    11    1  |1 1>-         0.00%   25.45%    0.00%    0.00%    0.00%    0.74%    0.00%    0.00%
 56  1    12    1  |1 1>-         3.27%    0.00%    0.00%    1.72%    0.00%    0.00%    0.65%    0.00%
 57  1    13    1  |1 1>-         0.00%    0.00%    0.00%    0.00%    0.00%    0.00%    0.00%    0.00%
 58  1    14    1  |1 1>-         0.00%    0.00%    0.00%    0.00%    0.00%    0.00%    0.00%    0.00%
 59  1    15    1  |1 1>-         0.00%    0.00%    0.00%    0.00%    0.00%    0.00%    0.00%    0.00%
 60  1    16    1  |1 1>-         0.00%    0.00%    0.00%    0.00%    0.00%    0.00%    0.00%    0.00%

   Total
 Nr Sym  State Sym Spin / Nr.     41       42       43       44       45       46       47       48

  1  1     1    1  |0 0>          0.00%    0.00%    0.00%    0.00%    0.00%    0.00%    0.00%    0.00%
  2  1     2    1  |0 0>          0.00%    0.00%    0.00%    0.00%    0.00%    0.00%    0.00%    0.00%
  3  1     3    1  |0 0>          0.00%    0.00%    0.00%    0.00%    0.00%    0.00%    0.00%    0.00%
  4  1     4    1  |0 0>          0.00%    0.00%    0.00%    0.00%    0.00%    0.00%    0.00%    0.00%
  5  1     5    1  |0 0>          0.00%    0.00%    0.00%    0.00%    0.00%    0.00%    0.00%    0.00%
  6  1     6    1  |0 0>          0.00%    0.00%    0.00%    0.00%    0.00%    0.00%    0.00%    0.00%
  7  1     7    1  |0 0>          0.00%    0.00%    0.00%    0.00%    0.00%    0.00%   75.46%    0.00%
  8  1     8    1  |0 0>          0.00%    0.00%   73.33%    2.13%    0.00%    0.00%    0.00%    0.00%
  9  1     9    1  |0 0>          0.00%    0.00%    0.00%    0.00%    0.00%   75.46%    0.00%    0.00%
 10  1    10    1  |0 0>          0.00%    0.00%    2.13%   73.33%    0.00%    0.00%    0.00%    0.00%
 11  1    11    1  |0 0>          0.00%    0.00%    0.00%    0.00%   75.46%    0.00%    0.00%    0.00%
 12  1    12    1  |0 0>          0.00%    0.00%    0.00%    0.00%    0.00%    0.00%    0.00%    0.35%
 13  1     1    1  |1 1>+         0.00%    0.00%    0.00%    0.00%    0.00%    0.00%    0.00%    0.00%
 14  1     2    1  |1 1>+         0.00%    0.00%    0.00%    0.00%    0.00%    0.00%    0.00%    0.00%
 15  1     3    1  |1 1>+         0.00%    0.00%    0.00%    0.00%    0.00%    0.00%    0.00%    0.00%
 16  1     4    1  |1 1>+         0.00%    0.00%    0.00%    0.00%    0.00%    0.00%    0.00%    0.00%
 17  1     5    1  |1 1>+         0.00%    0.00%    0.00%    0.00%    0.00%    0.00%    0.00%    0.00%
 18  1     6    1  |1 1>+        11.71%    0.00%    0.00%    0.00%    0.00%    0.00%    0.16%    0.00%
 19  1     7    1  |1 1>+         0.00%    0.00%    0.00%    0.00%    0.00%    0.22%    0.00%    0.00%
 20  1     8    1  |1 1>+         0.00%    9.75%    0.04%    0.19%    0.00%    0.00%    0.00%    0.00%
 21  1     9    1  |1 1>+         0.00%    0.00%    0.00%    0.00%    0.16%    0.00%    0.00%    0.00%
 22  1    10    1  |1 1>+         0.00%    0.00%    0.00%    0.00%    0.09%    0.00%    0.00%    0.00%
 23  1    11    1  |1 1>+         0.00%    5.05%    0.21%    0.00%    0.00%    0.00%    0.00%    0.00%
 24  1    12    1  |1 1>+         0.00%    0.00%    0.00%    0.00%    0.00%    0.03%    0.00%    0.00%
 25  1    13    1  |1 1>+         0.00%    0.00%    0.00%    0.00%    0.00%    0.00%    0.00%    0.00%
 26  1    14    1  |1 1>+         0.00%    0.00%    0.00%    0.00%   11.94%    0.00%    0.00%    0.00%
 27  1    15    1  |1 1>+         0.00%    0.00%   11.24%    4.67%    0.00%    0.00%    0.00%   33.22%
 28  1    16    1  |1 1>+         0.00%    0.00%    0.00%    0.00%    0.00%   11.94%    0.00%    0.00%
 29  1     1    1  |1 0>          0.00%    0.00%    0.00%    0.00%    0.00%    0.00%    0.00%    0.00%
 30  1     2    1  |1 0>          0.00%    0.00%    0.00%    0.00%    0.00%    0.00%    0.00%    0.00%
 31  1     3    1  |1 0>          0.00%    0.00%    0.00%    0.00%    0.00%    0.00%    0.00%    0.00%
 32  1     4    1  |1 0>          0.00%    0.00%    0.00%    0.00%    0.00%    0.00%    0.00%    0.00%
 33  1     5    1  |1 0>          0.00%    0.00%    0.00%    0.00%    0.00%    0.00%    0.00%    0.00%
 34  1     6    1  |1 0>          0.00%    0.00%    0.00%    0.00%    0.00%    0.16%    0.00%    0.00%
 35  1     7    1  |1 0>          0.59%    0.00%    0.00%    0.00%    0.00%    0.00%    0.08%    0.00%
 36  1     8    1  |1 0>          0.00%    0.00%    0.00%    0.00%    0.00%    0.00%    0.00%    0.00%
 37  1     9    1  |1 0>          0.00%   24.45%    0.03%    0.13%    0.00%    0.00%    0.00%    0.00%
 38  1    10    1  |1 0>          0.00%    6.07%    0.22%    0.06%    0.00%    0.00%    0.00%    0.00%
 39  1    11    1  |1 0>          0.00%    0.00%    0.00%    0.00%    0.25%    0.00%    0.00%    0.00%
 40  1    12    1  |1 0>         35.13%    0.00%    0.00%    0.00%    0.00%    0.00%    0.17%    0.00%
 41  1    13    1  |1 0>          0.00%    0.00%    0.00%    0.00%    0.00%    0.00%    0.00%    0.00%
 42  1    14    1  |1 0>          0.00%    0.00%   12.59%    3.32%    0.00%    0.00%    0.00%   33.22%
 43  1    15    1  |1 0>          0.00%    0.00%    0.00%    0.00%   11.94%    0.00%    0.00%    0.00%
 44  1    16    1  |1 0>          0.00%    0.00%    0.00%    0.00%    0.00%    0.00%   11.94%    0.00%
 45  1     1    1  |1 1>-         0.00%    0.00%    0.00%    0.00%    0.00%    0.00%    0.00%    0.00%
 46  1     2    1  |1 1>-         0.00%    0.00%    0.00%    0.00%    0.00%    0.00%    0.00%    0.00%
 47  1     3    1  |1 1>-         0.00%    0.00%    0.00%    0.00%    0.00%    0.00%    0.00%    0.00%
 48  1     4    1  |1 1>-         0.00%    0.00%    0.00%    0.00%    0.00%    0.00%    0.00%    0.00%
 49  1     5    1  |1 1>-         0.00%    0.00%    0.00%    0.00%    0.00%    0.00%    0.00%    0.00%
 50  1     6    1  |1 1>-         0.00%    0.00%    0.00%    0.00%    0.16%    0.00%    0.00%    0.00%
 51  1     7    1  |1 1>-         0.00%    1.30%    0.14%    0.03%    0.00%    0.00%    0.00%    0.00%
 52  1     8    1  |1 1>-         0.00%    0.00%    0.00%    0.00%    0.00%    0.24%    0.00%    0.00%
 53  1     9    1  |1 1>-        39.22%    0.00%    0.00%    0.00%    0.00%    0.00%    0.16%    0.00%
 54  1    10    1  |1 1>-        13.35%    0.00%    0.00%    0.00%    0.00%    0.00%    0.09%    0.00%
 55  1    11    1  |1 1>-         0.00%    0.00%    0.00%    0.00%    0.00%    0.01%    0.00%    0.00%
 56  1    12    1  |1 1>-         0.00%   53.37%    0.02%    0.25%    0.00%    0.00%    0.00%    0.00%
 57  1    13    1  |1 1>-         0.00%    0.00%    0.00%    0.00%    0.00%    0.00%    0.00%    0.00%
 58  1    14    1  |1 1>-         0.00%    0.00%    0.00%    0.00%    0.00%    0.00%   11.94%    0.00%
 59  1    15    1  |1 1>-         0.00%    0.00%    0.00%    0.00%    0.00%   11.94%    0.00%    0.00%
 60  1    16    1  |1 1>-         0.00%    0.00%    0.04%   15.87%    0.00%    0.00%    0.00%   33.22%

   Total
 Nr Sym  State Sym Spin / Nr.     49       50       51       52       53       54       55       56

  1  1     1    1  |0 0>          0.00%    0.00%    0.00%    0.00%    0.00%    0.00%    0.00%    0.00%
  2  1     2    1  |0 0>          0.00%    0.00%    0.00%    0.00%    0.00%    0.00%    0.00%    0.00%
  3  1     3    1  |0 0>          0.00%    0.00%    0.00%    0.00%    0.00%    0.00%    0.00%    0.00%
  4  1     4    1  |0 0>          0.00%    0.00%    0.00%    0.00%    0.00%    0.00%    0.00%    0.00%
  5  1     5    1  |0 0>          0.00%    0.00%    0.00%    0.00%    0.00%    0.00%    0.00%    0.00%
  6  1     6    1  |0 0>          0.00%    0.00%    0.00%    0.00%    0.00%    0.00%    0.00%    0.00%
  7  1     7    1  |0 0>          0.00%    0.00%    0.00%    0.00%    0.00%    0.00%    0.00%    0.00%
  8  1     8    1  |0 0>          0.00%    0.00%    0.00%    0.00%    0.00%    0.00%   21.59%    0.00%
  9  1     9    1  |0 0>          0.00%    0.00%    0.00%    0.00%    0.00%    0.00%    0.00%    0.00%
 10  1    10    1  |0 0>          0.00%    0.00%    0.00%    0.00%    0.00%    0.00%    2.14%    0.00%
 11  1    11    1  |0 0>          0.00%    0.00%    0.00%    0.00%    0.00%    0.00%    0.00%   23.73%
 12  1    12    1  |0 0>          0.00%    0.00%    0.00%    0.00%    0.00%    0.00%    0.00%    0.00%
 13  1     1    1  |1 1>+         0.00%    0.00%    0.00%    0.00%    0.00%    0.00%    0.00%    0.00%
 14  1     2    1  |1 1>+         0.00%    0.00%    0.00%    0.00%    0.00%    0.00%    0.00%    0.00%
 15  1     3    1  |1 1>+         0.00%    0.00%    0.00%    0.00%    0.00%    0.00%    0.00%    0.00%
 16  1     4    1  |1 1>+         0.00%    0.00%    0.00%    0.00%    0.00%    0.00%    0.00%    0.00%
 17  1     5    1  |1 1>+         0.00%    0.00%    0.00%    0.00%    0.00%    0.00%    0.00%    0.00%
 18  1     6    1  |1 1>+         0.00%    0.00%    0.00%    0.00%    0.00%    0.00%    0.00%    0.00%
 19  1     7    1  |1 1>+         0.00%    0.00%    0.00%    0.00%    0.00%    0.00%    0.00%    0.00%
 20  1     8    1  |1 1>+         0.00%    0.00%    0.00%    0.00%    0.00%    0.00%    0.00%    0.00%
 21  1     9    1  |1 1>+         0.00%    0.00%    0.00%    0.00%    0.00%    0.00%    0.00%    0.03%
 22  1    10    1  |1 1>+         0.00%    0.00%    0.00%    0.00%    0.00%    0.00%    0.00%    0.02%
 23  1    11    1  |1 1>+         0.00%    0.00%    0.00%    0.00%    0.00%    0.00%    0.05%    0.00%
 24  1    12    1  |1 1>+         0.00%    0.00%    0.00%    0.00%    0.00%    0.00%    0.00%    0.00%
 25  1    13    1  |1 1>+         0.00%    0.04%    0.00%    0.00%   99.96%    0.00%    0.00%    0.00%
 26  1    14    1  |1 1>+        49.98%    0.00%    0.00%    0.00%    0.00%    0.02%    0.00%   38.06%
 27  1    15    1  |1 1>+         0.00%    0.00%    0.00%    0.00%    0.00%    0.00%   29.24%    0.00%
 28  1    16    1  |1 1>+         0.00%    0.00%   49.98%    0.02%    0.00%    0.00%    0.00%    0.00%
 29  1     1    1  |1 0>          0.00%    0.00%    0.00%    0.00%    0.00%    0.00%    0.00%    0.00%
 30  1     2    1  |1 0>          0.00%    0.00%    0.00%    0.00%    0.00%    0.00%    0.00%    0.00%
 31  1     3    1  |1 0>          0.00%    0.00%    0.00%    0.00%    0.00%    0.00%    0.00%    0.00%
 32  1     4    1  |1 0>          0.00%    0.00%    0.00%    0.00%    0.00%    0.00%    0.00%    0.00%
 33  1     5    1  |1 0>          0.00%    0.00%    0.00%    0.00%    0.00%    0.00%    0.00%    0.00%
 34  1     6    1  |1 0>          0.00%    0.00%    0.00%    0.00%    0.00%    0.00%    0.00%    0.00%
 35  1     7    1  |1 0>          0.00%    0.00%    0.00%    0.00%    0.00%    0.00%    0.00%    0.00%
 36  1     8    1  |1 0>          0.00%    0.00%    0.00%    0.00%    0.00%    0.00%    0.00%    0.00%
 37  1     9    1  |1 0>          0.00%    0.00%    0.00%    0.00%    0.00%    0.00%    0.00%    0.00%
 38  1    10    1  |1 0>          0.00%    0.00%    0.00%    0.00%    0.00%    0.00%    0.05%    0.00%
 39  1    11    1  |1 0>          0.00%    0.00%    0.00%    0.00%    0.00%    0.00%    0.00%    0.05%
 40  1    12    1  |1 0>          0.00%    0.00%    0.00%    0.00%    0.00%    0.00%    0.00%    0.00%
 41  1    13    1  |1 0>          0.00%    0.00%    0.04%   99.96%    0.00%    0.00%    0.00%    0.00%
 42  1    14    1  |1 0>          0.00%    0.00%    0.00%    0.00%    0.00%    0.00%   45.16%    0.00%
 43  1    15    1  |1 0>         49.98%    0.00%    0.00%    0.00%    0.00%    0.02%    0.00%   38.06%
 44  1    16    1  |1 0>          0.00%   49.98%    0.00%    0.00%    0.02%    0.00%    0.00%    0.00%
 45  1     1    1  |1 1>-         0.00%    0.00%    0.00%    0.00%    0.00%    0.00%    0.00%    0.00%
 46  1     2    1  |1 1>-         0.00%    0.00%    0.00%    0.00%    0.00%    0.00%    0.00%    0.00%
 47  1     3    1  |1 1>-         0.00%    0.00%    0.00%    0.00%    0.00%    0.00%    0.00%    0.00%
 48  1     4    1  |1 1>-         0.00%    0.00%    0.00%    0.00%    0.00%    0.00%    0.00%    0.00%
 49  1     5    1  |1 1>-         0.00%    0.00%    0.00%    0.00%    0.00%    0.00%    0.00%    0.00%
 50  1     6    1  |1 1>-         0.00%    0.00%    0.00%    0.00%    0.00%    0.00%    0.00%    0.03%
 51  1     7    1  |1 1>-         0.00%    0.00%    0.00%    0.00%    0.00%    0.00%    0.02%    0.00%
 52  1     8    1  |1 1>-         0.00%    0.00%    0.00%    0.00%    0.00%    0.00%    0.00%    0.00%
 53  1     9    1  |1 1>-         0.00%    0.00%    0.00%    0.00%    0.00%    0.00%    0.00%    0.00%
 54  1    10    1  |1 1>-         0.00%    0.00%    0.00%    0.00%    0.00%    0.00%    0.00%    0.00%
 55  1    11    1  |1 1>-         0.00%    0.00%    0.00%    0.00%    0.00%    0.00%    0.00%    0.00%
 56  1    12    1  |1 1>-         0.00%    0.00%    0.00%    0.00%    0.00%    0.00%    0.01%    0.00%
 57  1    13    1  |1 1>-         0.04%    0.00%    0.00%    0.00%    0.00%   99.96%    0.00%    0.00%
 58  1    14    1  |1 1>-         0.00%   49.98%    0.00%    0.00%    0.02%    0.00%    0.00%    0.00%
 59  1    15    1  |1 1>-         0.00%    0.00%   49.98%    0.02%    0.00%    0.00%    0.00%    0.00%
 60  1    16    1  |1 1>-         0.00%    0.00%    0.00%    0.00%    0.00%    0.00%    1.72%    0.00%

   Total
 Nr Sym  State Sym Spin / Nr.     57       58       59       60

  1  1     1    1  |0 0>          0.00%    0.00%    0.00%    0.00%
  2  1     2    1  |0 0>          0.00%    0.00%    0.00%    0.00%
  3  1     3    1  |0 0>          0.00%    0.00%    0.00%    0.00%
  4  1     4    1  |0 0>          0.00%    0.00%    0.00%    0.00%
  5  1     5    1  |0 0>          0.00%    0.00%    0.00%    0.00%
  6  1     6    1  |0 0>          0.00%    0.00%    0.00%    0.00%
  7  1     7    1  |0 0>          0.00%   23.73%    0.00%    0.00%
  8  1     8    1  |0 0>          2.14%    0.00%    0.00%    0.00%
  9  1     9    1  |0 0>          0.00%    0.00%   23.73%    0.00%
 10  1    10    1  |0 0>         21.59%    0.00%    0.00%    0.00%
 11  1    11    1  |0 0>          0.00%    0.00%    0.00%    0.00%
 12  1    12    1  |0 0>          0.00%    0.00%    0.00%   99.65%
 13  1     1    1  |1 1>+         0.00%    0.00%    0.00%    0.00%
 14  1     2    1  |1 1>+         0.00%    0.00%    0.00%    0.00%
 15  1     3    1  |1 1>+         0.00%    0.00%    0.00%    0.00%
 16  1     4    1  |1 1>+         0.00%    0.00%    0.00%    0.00%
 17  1     5    1  |1 1>+         0.00%    0.00%    0.00%    0.00%
 18  1     6    1  |1 1>+         0.00%    0.03%    0.00%    0.00%
 19  1     7    1  |1 1>+         0.00%    0.00%    0.05%    0.00%
 20  1     8    1  |1 1>+         0.05%    0.00%    0.00%    0.00%
 21  1     9    1  |1 1>+         0.00%    0.00%    0.00%    0.00%
 22  1    10    1  |1 1>+         0.00%    0.00%    0.00%    0.00%
 23  1    11    1  |1 1>+         0.00%    0.00%    0.00%    0.00%
 24  1    12    1  |1 1>+         0.00%    0.00%    0.01%    0.00%
 25  1    13    1  |1 1>+         0.00%    0.00%    0.00%    0.00%
 26  1    14    1  |1 1>+         0.00%    0.00%    0.00%    0.00%
 27  1    15    1  |1 1>+        21.51%    0.00%    0.00%    0.12%
 28  1    16    1  |1 1>+         0.00%    0.00%   38.06%    0.00%
 29  1     1    1  |1 0>          0.00%    0.00%    0.00%    0.00%
 30  1     2    1  |1 0>          0.00%    0.00%    0.00%    0.00%
 31  1     3    1  |1 0>          0.00%    0.00%    0.00%    0.00%
 32  1     4    1  |1 0>          0.00%    0.00%    0.00%    0.00%
 33  1     5    1  |1 0>          0.00%    0.00%    0.00%    0.00%
 34  1     6    1  |1 0>          0.00%    0.00%    0.03%    0.00%
 35  1     7    1  |1 0>          0.00%    0.02%    0.00%    0.00%
 36  1     8    1  |1 0>          0.00%    0.00%    0.00%    0.00%
 37  1     9    1  |1 0>          0.03%    0.00%    0.00%    0.00%
 38  1    10    1  |1 0>          0.01%    0.00%    0.00%    0.00%
 39  1    11    1  |1 0>          0.00%    0.00%    0.00%    0.00%
 40  1    12    1  |1 0>          0.00%    0.04%    0.00%    0.00%
 41  1    13    1  |1 0>          0.00%    0.00%    0.00%    0.00%
 42  1    14    1  |1 0>          5.59%    0.00%    0.00%    0.12%
 43  1    15    1  |1 0>          0.00%    0.00%    0.00%    0.00%
 44  1    16    1  |1 0>          0.00%   38.06%    0.00%    0.00%
 45  1     1    1  |1 1>-         0.00%    0.00%    0.00%    0.00%
 46  1     2    1  |1 1>-         0.00%    0.00%    0.00%    0.00%
 47  1     3    1  |1 1>-         0.00%    0.00%    0.00%    0.00%
 48  1     4    1  |1 1>-         0.00%    0.00%    0.00%    0.00%
 49  1     5    1  |1 1>-         0.00%    0.00%    0.00%    0.00%
 50  1     6    1  |1 1>-         0.00%    0.00%    0.00%    0.00%
 51  1     7    1  |1 1>-         0.01%    0.00%    0.00%    0.00%
 52  1     8    1  |1 1>-         0.00%    0.00%    0.05%    0.00%
 53  1     9    1  |1 1>-         0.00%    0.03%    0.00%    0.00%
 54  1    10    1  |1 1>-         0.00%    0.02%    0.00%    0.00%
 55  1    11    1  |1 1>-         0.00%    0.00%    0.00%    0.00%
 56  1    12    1  |1 1>-         0.05%    0.00%    0.00%    0.00%
 57  1    13    1  |1 1>-         0.00%    0.00%    0.00%    0.00%
 58  1    14    1  |1 1>-         0.00%   38.06%    0.00%    0.00%
 59  1    15    1  |1 1>-         0.00%    0.00%   38.06%    0.00%
 60  1    16    1  |1 1>-        49.02%    0.00%    0.00%    0.12%



 **********************************************************************************************************************************
 DATASETS  * FILE   NREC   LENGTH (MB)   RECORD NAMES
              1      26       32.00       500      610      700      900      950      970     1000      129      960     1100   
                                          VAR    BASINP    GEOM    SYMINP    ZMAT    AOBASIS   BASIS     P2S    ABASIS      S 
                                         1400     1410     1420     1200     1210     1080     1700     1600     1650     1700(1)
                                         EKIN      POT     PPINT     H0       H01     AOSYM    OPER      SMH    MOLCAS    OPER   
                                         1380     1101     1401     1411     1650(1)  1700(2)
                                         JKOP      SR      EKINR    POTR    MOLCAS    OPER   

              2       8      117.38       700     1000      520     2100     2140     2141     5101     5103   
                                         GEOM     BASIS   MCVARS     RHF     MCSCF    MCSCF    MRCI     MRCI   

 PROGRAMS   *        TOTAL        CI     LSINT        CI        CI     MULTI     MULTI   RHF-SCF       INT
 CPU TIMES  *       342.98    282.65      0.72     35.74     21.55      0.69      0.85      0.02      0.50
 REAL TIME  *       376.42 SEC
 DISK USED  *       149.43 MB (local),        2.40 GB (total)
 SF USED    *       761.13 MB
 GA USED    *         0.00 MB       (max)       0.00 MB       (current)
 **********************************************************************************************************************************

 CI/aug-cc-pWCVTZ-PP energy=    -25.230061520311

              CI              CI           MULTI           MULTI         RHF-SCF
    -25.21314283    -25.20933577    -25.00468829    -25.00495706    -25.09500683
 **********************************************************************************************************************************
 Molpro calculation terminated
