
 Working directory              : /wrk/irikura/molpro.qyp1ntwrtZ/
 Global scratch directory       : /wrk/irikura/molpro.qyp1ntwrtZ/
 Wavefunction directory         : /home/irikura/wfu/
 Main file repository           : /wrk/irikura/molpro.qyp1ntwrtZ/

 id        : nistki

 Nodes            nprocs
 pn125343.nist.gov   24
 GA implementation: MPI file
 GA implementation (serial work in mppx): MPI file

 Using customized tuning parameters: mindgm=1; mindgv=20; mindgc=4; mindgr=1; noblas=0; minvec=7
 default implementation of scratch files=sf  


 Variables initialized (1009), CPU time= 0.01 sec
 ***,Ba SO-CI
 memory,2500,M;
 
 gprint,orbitals,civector;
 
 symmetry,xyz
 geometry={Ba};
 
 basis=aug-cc-pwCVQZ-X2C
 
 set,dkho=101
 
 {rhf;wf,sym=1,spin=0}
 
 NSING=12
 NTRIP=16
 
                                                                                 ! active space (2/10)
 {multi
     closed,15,12
     occ,22,18
     wf,sym=1,spin=0;state,NSING;
     wf,sym=1,spin=2;state,NTRIP;
     expec2,lxx,lyy,lzz;
 }
 table, energy, ll
 title, Energies and &lt;L**2&gt; values
 
 core,9,9
 {ci;wf,sym=1,spin=0;state,NSING; save,5101.2}
 hlsdiag = energd4
 {ci;wf,sym=1,spin=2;state,NTRIP; save,5103.2}
 hlsdiag(NSING+1) = energd4
 
 table,hlsdiag
 
 lsint
 {ci;hlsmat,ls,5101.2,5103.2;print,vls=0,hls=0}                                  !compute and diagonalize SO matrix
 Commands initialized (810), CPU time= 0.02 sec, 661 directives.
 Default parameters read. Elapsed time= 0.20 sec

 Checking input...
 Passed
1


                                         ***  PROGRAM SYSTEM MOLPRO  ***
                                       Copyright, TTI GmbH Stuttgart, 2015
                                    Version 2021.2 linked Jun  2 2021 00:13:23


 **********************************************************************************************************************************
 LABEL *   Ba SO-CI                                                                      
  64 bit mpp version                                                                     DATE: 29-Apr-24          TIME: 14:45:20  
 **********************************************************************************************************************************

 SHA1:             1987c3f1b0c3ae76932bc24993909f2d7ae6b1f1
 **********************************************************************************************************************************

 Memory per process:      2500 MW
 Total memory per node:  60000 MW

 GA preallocation disabled
 GA check disabled

 Variable memory set to 2500.0 MW


 ZSYMEL=XYZ

 SETTING BASIS          =    AUG-CC-PWCVQZ-X2C
 SETTING DKHO           =       101.00000000                                  


 Recomputing integrals since basis changed


 Using spherical harmonics

 Library entry BA     S aug-cc-pwCVQZ-X      selected for orbital group  1
 Library entry BA     P aug-cc-pwCVQZ-X      selected for orbital group  1
 Library entry BA     D aug-cc-pwCVQZ-X      selected for orbital group  1
 Library entry BA     F aug-cc-pwCVQZ-X      selected for orbital group  1
 Library entry BA     G aug-cc-pwCVQZ-X      selected for orbital group  1


 PROGRAM * SEWARD (Integral evaluation for generally contracted gaussian basis sets)     Author: Roland Lindh, 1990

 Geometry written to block  1 of record 700

 Orientation using atomic masses  
 Molecule type: Atom
 User-specified symmetry elements: XYZ
 Symmetry elements: XYZ
 Rotational constants:       0.0000000      0.0000000      0.0000000 GHz  (calculated with average atomic masses)

 Point group  Ci  



 ATOMIC COORDINATES

 NR  ATOM    CHARGE       X              Y              Z

   1  BA     56.00    0.000000000    0.000000000    0.000000000

 NUCLEAR CHARGE:                   56
 NUMBER OF PRIMITIVE AOS:         410
 NUMBER OF SYMMETRY AOS:          344
 NUMBER OF CONTRACTIONS:          168   (   90Ag  +   78Au  )
 NUMBER OF INNER CORE ORBITALS:    23   (   14Ag  +    9Au  )
 NUMBER OF OUTER CORE ORBITALS:     4   (    1Ag  +    3Au  )
 NUMBER OF VALENCE ORBITALS:        1   (    1Ag  +    0Au  )


 NUCLEAR REPULSION ENERGY    0.00000000

 One-electron integrals computed with SEWARD

 eXact-2-Component (X2C) method activated

 Computing Douglas-Kroll / X2C integrals

 AO integral compression algorithm  1   Integral accuracy      1.0D-11

     103.023 MB (compressed) written to integral file ( 13.1%)

     Node minimum: 0.524 MB, node maximum: 9.699 MB


 NUMBER OF SORTED TWO-ELECTRON INTEGRALS:    2119464.     BUFFER LENGTH:  32768
 NUMBER OF SEGMENTS:   1  SEGMENT LENGTH:    2119464      RECORD LENGTH: 524288

 Memory used in sort:       2.68 MW

 SORT1 READ    97437068. AND WROTE      393859. INTEGRALS IN      2 RECORDS. CPU TIME:     0.64 SEC, REAL TIME:     0.71 SEC
 SORT2 READ     9833613. AND WROTE    50984466. INTEGRALS IN    888 RECORDS. CPU TIME:     0.05 SEC, REAL TIME:     0.06 SEC

 Node minimum:     2117080.  Node maximum:     2134449. integrals

 OPERATOR DM      FOR CENTER  0  COORDINATES:    0.000000    0.000000    0.000000

 EXTRA SYMMETRY OF AOS IN SYMMETRY 1:   1 1 1 1 1 1 1 1 1 1   1 1 1 2 3 4 5 6 2 3   4 5 6 2 3 4 5 6 2 3   4 5 6 2 3 4 5 6 2 3
                                        4 5 6 2 3 4 5 6 2 3   4 5 6 2 3 4 5 6 2 3   4 5 6 7 8 910111213  1415 7 8 91011121314
                                       15 7 8 9101112131415
 EXTRA SYMMETRY OF AOS IN SYMMETRY 2:   1 2 3 1 2 3 1 2 3 1   2 3 1 2 3 1 2 3 1 2   3 1 2 3 1 2 3 1 2 3   1 2 3 1 2 3 4 5 6 7
                                        8 910 4 5 6 7 8 910   4 5 6 7 8 910 4 5 6   7 8 910 4 5 6 7 8 9  10 4 5 6 7 8 910

 Eigenvalues of metric

         1 0.265E-04 0.446E-04 0.881E-04 0.881E-04 0.881E-04 0.881E-04 0.881E-04 0.112E-02
         2 0.244E-04 0.244E-04 0.244E-04 0.254E-03 0.254E-03 0.254E-03 0.464E-02 0.464E-02


 **********************************************************************************************************************************
 DATASETS  * FILE   NREC   LENGTH (MB)   RECORD NAMES
              1      22       30.27       500      610      700      900      950      970     1000      129      960     1700   
                                          VAR    BASINP    GEOM    SYMINP    ZMAT    AOBASIS   BASIS     P2S    ABASIS    OPER   
                                         1101     1401     1411     1412     1650     1100     1400     1410     1200     1210   
                                          SR      EKINR    POTR     PVPR    MOLCAS      S      EKIN      POT      H0       H01  
                                         1080     1600   
                                         AOSYM     SMH  

 PROGRAMS   *        TOTAL       INT
 CPU TIMES  *        14.65     14.23
 REAL TIME  *        17.11 SEC
 DISK USED  *        30.60 MB (local),      991.21 MB (total)
 GA USED    *         0.00 MB       (max)       0.00 MB       (current)
 **********************************************************************************************************************************


 Program * Restricted Hartree-Fock

 Orbital guess generated from atomic densities. Full valence occupancy:   16  12

 Initial occupancy:  16  12

 NELEC=   56   SYM=1   MS2= 0   THRE=1.0D-08   THRD=3.2D-06   THRG=3.2D-06  HFMA2=F  DIIS_START=2   DIIS_MAX=10   DIIS_INCORE=F

 Level shifts:    0.00 (CLOSED)    0.00 (OPEN)    0.30 (GAP_MIN)

 ITER           ETOT              DE          GRAD        DDIFF     DIIS  NEXP   TIME(IT)  TIME(TOT)  DIAG
   1    -8131.99704825   -8131.99704825     0.00D+00     0.12D+00     0     0       0.04      0.05    start
   2    -8131.99704825      -0.00000000     0.38D-06     0.21D-04     1     0       0.01      0.06    diag
   3    -8131.99704825       0.00000000     0.45D-07     0.62D-05     2     0       0.01      0.07    diag
   4    -8131.99704825      -0.00000000     0.15D-07     0.21D-05     3     0       0.02      0.09    diag
   5    -8131.99704825       0.00000000     0.43D-08     0.84D-06     0     0       0.01      0.10    diag

 Final occupancy:  16  12

 !RHF STATE 1.1 Energy              -8131.997048253990
  RHF One-electron energy            -11100.0298050315    
  RHF Two-electron energy            2968.032756777469
  RHF Kinetic energy                 9672.875295202179
  RHF Nuclear energy                    0.000000000000
  RHF Virial quotient                  -0.840701115240

 !RHF STATE 1.1 Dipole moment           0.00000000     0.00000000     0.00000000
 Dipole moment /Debye                   0.00000000     0.00000000     0.00000000

 ELECTRON ORBITALS
 =================

  Orbital  Occupation    Energy    Cen Mu Typ  Coefficients
    1.1     2.00000 -1382.74842     1  1  s    1.00000
    2.1     2.00000  -222.46061     1  2  s    1.00000
    3.1     2.00000   -48.63406     1  3  s    1.00018
    4.1     2.00000   -29.94644     1  1  d0   0.72825    1  1  d2+  0.68531
    5.1     2.00000   -29.94644     1  1  d1-  0.99999
    6.1     2.00000   -29.94644     1  1  d2-  0.99999
    7.1     2.00000   -29.94644     1  1  d0  -0.68531    1  1  d2+  0.72824
    8.1     2.00000   -29.94644     1  1  d1+  0.99999
    9.1     2.00000   -10.25509     1  4  s    1.00070
   10.1     2.00000    -3.85433     1  2  d0   0.70236    1  2  d2+  0.71166
   11.1     2.00000    -3.85433     1  2  d1-  0.99988
   12.1     2.00000    -3.85433     1  2  d2-  0.99988
   13.1     2.00000    -3.85433     1  2  d1+  0.99988
   14.1     2.00000    -3.85433     1  2  d0   0.71166    1  2  d2+ -0.70236
   15.1     2.00000    -1.60335     1  5  s    0.99936
   16.1     2.00000    -0.16308     1  6  s    0.99631
    1.2     2.00000  -199.39475     1  1  py   0.99999
    2.2     2.00000  -199.39475     1  1  pz   1.00000
    3.2     2.00000  -199.39475     1  1  px   0.99999
    4.2     2.00000   -41.04463     1  2  px   1.00001
    5.2     2.00000   -41.04463     1  2  pz   1.00001
    6.2     2.00000   -41.04463     1  2  py   1.00001
    7.2     2.00000    -7.69921     1  3  px   1.00015
    8.2     2.00000    -7.69921     1  3  pz   1.00015
    9.2     2.00000    -7.69921     1  3  py   1.00015
   10.2     2.00000    -0.89930     1  4  px   0.99978
   11.2     2.00000    -0.89930     1  4  pz   0.99978
   12.2     2.00000    -0.89930     1  4  py   0.99978


 HOMO     16.1    -0.163085 =      -4.4378eV
 LUMO     13.2     0.006698 =       0.1823eV
 LUMO-HOMO         0.169783 =       4.6200eV

 Orbitals saved in record  2100.2


 **********************************************************************************************************************************
 DATASETS  * FILE   NREC   LENGTH (MB)   RECORD NAMES
              1      22       30.27       500      610      700      900      950      970     1000      129      960     1700   
                                          VAR    BASINP    GEOM    SYMINP    ZMAT    AOBASIS   BASIS     P2S    ABASIS    OPER   
                                         1101     1401     1411     1412     1650     1100     1400     1410     1200     1210   
                                          SR      EKINR    POTR     PVPR    MOLCAS      S      EKIN      POT      H0       H01  
                                         1080     1600   
                                         AOSYM     SMH  

              2       4        2.87       700     1000      520     2100   
                                         GEOM     BASIS   MCVARS     RHF  

 PROGRAMS   *        TOTAL   RHF-SCF       INT
 CPU TIMES  *        14.77      0.12     14.23
 REAL TIME  *        17.27 SEC
 DISK USED  *        33.88 MB (local),        1.04 GB (total)
 GA USED    *         0.00 MB       (max)       0.00 MB       (current)
 **********************************************************************************************************************************
 SETTING NSING          =        12.00000000                                  
 SETTING NTRIP          =        16.00000000                                  

 PROGRAM * MULTI (Direct Multiconfiguration SCF)       Authors: P.J. Knowles, H.-J. Werner (1984)
                                                                D.A. Kreplin, P.J. Knowles, H.-J. Werner (2019)

 Number of closed-shell orbitals:  27 (  15  12 )
 Number of active  orbitals:       13 (   7   6 )
 Number of external orbitals:     128 (  68  60 )

 State symmetry 1

 Number of active electrons:   2    Spin symmetry=Singlet   Space symmetry=1
 Number of states:            12
 Number of CSFs:              49   (85 determinants, 169 intermediate states)

 State symmetry 2

 Number of active electrons:   2    Spin symmetry=Triplet   Space symmetry=1
 Number of states:            16
 Number of CSFs:              36   (36 determinants, 78 intermediate states)

 Molecular orbitals read from record     2100.2  Type=RHF/CANONICAL  
 *** IN SYMMETRY 1 ORBITAL  4 SYMMETRY CONTAMINATION OF 0.486D+00 HAS BEEN REMOVED
 *** IN SYMMETRY 1 ORBITAL  5 SYMMETRY CONTAMINATION OF 0.450D-02 HAS BEEN REMOVED
 *** IN SYMMETRY 1 ORBITAL  6 SYMMETRY CONTAMINATION OF 0.569D-02 HAS BEEN REMOVED
 *** IN SYMMETRY 1 ORBITAL  7 SYMMETRY CONTAMINATION OF 0.487D+00 HAS BEEN REMOVED
 *** IN SYMMETRY 1 ORBITAL  8 SYMMETRY CONTAMINATION OF 0.707D-02 HAS BEEN REMOVED
 *** IN SYMMETRY 1 ORBITAL 10 SYMMETRY CONTAMINATION OF 0.497D+00 HAS BEEN REMOVED
 *** IN SYMMETRY 1 ORBITAL 11 SYMMETRY CONTAMINATION OF 0.311D-03 HAS BEEN REMOVED
 *** IN SYMMETRY 1 ORBITAL 12 SYMMETRY CONTAMINATION OF 0.272D-03 HAS BEEN REMOVED
 *** IN SYMMETRY 1 ORBITAL 13 SYMMETRY CONTAMINATION OF 0.370D-03 HAS BEEN REMOVED
 *** IN SYMMETRY 1 ORBITAL 14 SYMMETRY CONTAMINATION OF 0.497D+00 HAS BEEN REMOVED
 *** IN SYMMETRY 1 ORBITAL 18 SYMMETRY CONTAMINATION OF 0.298D-01 HAS BEEN REMOVED
 *** IN SYMMETRY 1 ORBITAL 19 SYMMETRY CONTAMINATION OF 0.272D-03 HAS BEEN REMOVED
 *** IN SYMMETRY 1 ORBITAL 20 SYMMETRY CONTAMINATION OF 0.790D-03 HAS BEEN REMOVED
 *** IN SYMMETRY 1 ORBITAL 21 SYMMETRY CONTAMINATION OF 0.851D-03 HAS BEEN REMOVED
 *** IN SYMMETRY 1 ORBITAL 22 SYMMETRY CONTAMINATION OF 0.295D-01 HAS BEEN REMOVED

 EXTRA SYMMETRY OF MOS IN SYMMETRY 1:   1 1 1 2 6 3 5 4 1 5   6 3 4 2 1 1 1 5 3 4   6 2 1 6 2 4 3 5 6 4   2 3 5 1 7 9 8151013
                                       121411 4 6 2 5 3 112   9 815101413 711 4 6   2 3 5 11013141512 8   9 711 4 6 3 5 2 1 6
                                        4 5 3 2 6 4 5 3 2 1
 *** IN SYMMETRY 2 ORBITAL  1 SYMMETRY CONTAMINATION OF 0.640D-02 HAS BEEN REMOVED
 *** IN SYMMETRY 2 ORBITAL  2 SYMMETRY CONTAMINATION OF 0.429D-02 HAS BEEN REMOVED
 *** IN SYMMETRY 2 ORBITAL  3 SYMMETRY CONTAMINATION OF 0.594D-02 HAS BEEN REMOVED
 *** IN SYMMETRY 2 ORBITAL  4 SYMMETRY CONTAMINATION OF 0.275D-03 HAS BEEN REMOVED
 *** IN SYMMETRY 2 ORBITAL  5 SYMMETRY CONTAMINATION OF 0.417D-03 HAS BEEN REMOVED
 *** IN SYMMETRY 2 ORBITAL  6 SYMMETRY CONTAMINATION OF 0.180D-03 HAS BEEN REMOVED
 *** IN SYMMETRY 2 ORBITAL  7 SYMMETRY CONTAMINATION OF 0.106D-04 HAS BEEN REMOVED
 *** IN SYMMETRY 2 ORBITAL  8 SYMMETRY CONTAMINATION OF 0.339D-04 HAS BEEN REMOVED
 *** IN SYMMETRY 2 ORBITAL  9 SYMMETRY CONTAMINATION OF 0.443D-04 HAS BEEN REMOVED
 *** IN SYMMETRY 2 ORBITAL 11 SYMMETRY CONTAMINATION OF 0.318D-04 HAS BEEN REMOVED
 *** IN SYMMETRY 2 ORBITAL 12 SYMMETRY CONTAMINATION OF 0.382D-04 HAS BEEN REMOVED
 *** IN SYMMETRY 2 ORBITAL 13 SYMMETRY CONTAMINATION OF 0.532D-04 HAS BEEN REMOVED
 *** IN SYMMETRY 2 ORBITAL 15 SYMMETRY CONTAMINATION OF 0.532D-04 HAS BEEN REMOVED
 *** IN SYMMETRY 2 ORBITAL 16 SYMMETRY CONTAMINATION OF 0.940D-04 HAS BEEN REMOVED
 *** IN SYMMETRY 2 ORBITAL 17 SYMMETRY CONTAMINATION OF 0.454D-03 HAS BEEN REMOVED
 *** IN SYMMETRY 2 ORBITAL 18 SYMMETRY CONTAMINATION OF 0.522D-03 HAS BEEN REMOVED
 EXTRA SYMMETRY OF MOS IN SYMMETRY 2:   2 3 1 1 3 2 1 3 2 1   3 2 3 1 2 3 1 2 1 3   2 7 9 6 8 410 5 1 2   3 410 8 9 7 5 6 1 2
                                        3 6 5 4 9 7 810 1 2   3 4 5 9 6 710 8 5 4   6 9 710 8 1 2 3 5 7   9 4 6 810 2 1 3

 Wavefunction dump at record             2140.2

 Convergence thresholds  0.10E-04 (gradient)  0.10E-05 (energy)

 Weight factors for state symmetry  1:    0.03571   0.03571   0.03571   0.03571   0.03571   0.03571   0.03571   0.03571
                                          0.03571   0.03571   0.03571   0.03571
 Weight factors for state symmetry  2:    0.03571   0.03571   0.03571   0.03571   0.03571   0.03571   0.03571   0.03571
                                          0.03571   0.03571   0.03571   0.03571   0.03571   0.03571   0.03571   0.03571
 
 Number of orbital rotations:  2753  ( 177 closed/active, 1740 closed/virtual, 0 active/active, 836 active/virtual )
 Total number of variables:    4349
 
  Second-order MCSCF: L-BFGS accelerated
 
 ITER  MIC  NCI  NEG     ENERGY(VAR)    ENERGY(PROJ) ENERGY CHANGE       GRAD(0)  GRAD(ORB)   GRAD(CI)      STEP      TIME
   1   13   24    5  -8131.84007010   -8131.94487980   -0.10480971    0.05887055 0.00013989 0.00000000  0.25E+01      5.13
   2    9   14    0  -8131.92214757   -8131.92847848   -0.00633091    0.04573735 0.00007572 0.00000000  0.61E+00     10.11
   3    9   14    0  -8131.92852992   -8131.92853332   -0.00000341    0.00087806 0.00000012 0.00000000  0.11E-01     14.99
   4    7   10    0  -8131.92853333   -8131.92853333   -0.00000000    0.00000147 0.00000000 0.00000000  0.18E-04     19.03

 CONVERGENCE REACHED!  Final gradient:    0.00000000 ( 0.15E-09)
                       Final energy:  -8131.92853333
 
 Results for state 1.1 Singlet
 =============================
 !MCSCF STATE 1.1 Singlet Energy             -8132.019209698250
 Nuclear energy                                  0.00000000
 Kinetic energy                               9672.42549214
 One electron energy                        -11099.00319521
 Two electron energy                          2966.98398551
 Virial ratio                                    1.84074250
 
 !MCSCF STATE 1.1 Singlet Dipole moment          0.00000000     0.00000000     0.00000000
 Dipole moment /Debye                            0.00000000     0.00000000     0.00000000
 
 Results for state 2.1 Singlet
 =============================
 !MCSCF STATE 2.1 Singlet Energy             -8131.957014279530
 Nuclear energy                                  0.00000000
 Kinetic energy                               9672.61214764
 One electron energy                        -11101.41397470
 Two electron energy                          2969.45696042
 Virial ratio                                    1.84071985
 
 !MCSCF STATE 2.1 Singlet Dipole moment          0.00000000     0.00000000     0.00000000
 Dipole moment /Debye                            0.00000000     0.00000000     0.00000000
 
 Results for state 3.1 Singlet
 =============================
 !MCSCF STATE 3.1 Singlet Energy             -8131.957014279526
 Nuclear energy                                  0.00000000
 Kinetic energy                               9672.61214764
 One electron energy                        -11101.41397469
 Two electron energy                          2969.45696041
 Virial ratio                                    1.84071985
 
 !MCSCF STATE 3.1 Singlet Dipole moment          0.00000000     0.00000000     0.00000000
 Dipole moment /Debye                            0.00000000     0.00000000     0.00000000
 
 Results for state 4.1 Singlet
 =============================
 !MCSCF STATE 4.1 Singlet Energy             -8131.957014279408
 Nuclear energy                                  0.00000000
 Kinetic energy                               9672.61214764
 One electron energy                        -11101.41397471
 Two electron energy                          2969.45696043
 Virial ratio                                    1.84071985
 
 !MCSCF STATE 4.1 Singlet Dipole moment          0.00000000     0.00000000     0.00000000
 Dipole moment /Debye                            0.00000000     0.00000000     0.00000000
 
 Results for state 5.1 Singlet
 =============================
 !MCSCF STATE 5.1 Singlet Energy             -8131.957014279325
 Nuclear energy                                  0.00000000
 Kinetic energy                               9672.61214764
 One electron energy                        -11101.41397473
 Two electron energy                          2969.45696045
 Virial ratio                                    1.84071985
 
 !MCSCF STATE 5.1 Singlet Dipole moment          0.00000000     0.00000000     0.00000000
 Dipole moment /Debye                            0.00000000     0.00000000     0.00000000
 
 Results for state 6.1 Singlet
 =============================
 !MCSCF STATE 6.1 Singlet Energy             -8131.957014279245
 Nuclear energy                                  0.00000000
 Kinetic energy                               9672.61214764
 One electron energy                        -11101.41397471
 Two electron energy                          2969.45696043
 Virial ratio                                    1.84071985
 
 !MCSCF STATE 6.1 Singlet Dipole moment          0.00000000     0.00000000     0.00000000
 Dipole moment /Debye                            0.00000000     0.00000000     0.00000000
 
 Results for state 7.1 Singlet
 =============================
 !MCSCF STATE 7.1 Singlet Energy             -8131.902625623755
 Nuclear energy                                  0.00000000
 Kinetic energy                               9672.76569901
 One electron energy                        -11103.01910261
 Two electron energy                          2971.11647698
 Virial ratio                                    1.84070088
 
 !MCSCF STATE 7.1 Singlet Dipole moment          0.00000000     0.00000000     0.00000000
 Dipole moment /Debye                            0.00000000     0.00000000     0.00000000
 
 Results for state 8.1 Singlet
 =============================
 !MCSCF STATE 8.1 Singlet Energy             -8131.902625623744
 Nuclear energy                                  0.00000000
 Kinetic energy                               9672.76569901
 One electron energy                        -11103.01910262
 Two electron energy                          2971.11647700
 Virial ratio                                    1.84070088
 
 !MCSCF STATE 8.1 Singlet Dipole moment          0.00000000     0.00000000     0.00000000
 Dipole moment /Debye                            0.00000000     0.00000000     0.00000000
 
 Results for state 9.1 Singlet
 =============================
 !MCSCF STATE 9.1 Singlet Energy             -8131.902625623485
 Nuclear energy                                  0.00000000
 Kinetic energy                               9672.76569901
 One electron energy                        -11103.01910261
 Two electron energy                          2971.11647699
 Virial ratio                                    1.84070088
 
 !MCSCF STATE 9.1 Singlet Dipole moment          0.00000000     0.00000000     0.00000000
 Dipole moment /Debye                            0.00000000     0.00000000     0.00000000
 
 Results for state 10.1 Singlet
 ==============================
 !MCSCF STATE 10.1 Singlet Energy            -8131.902625623204
 Nuclear energy                                  0.00000000
 Kinetic energy                               9672.76569901
 One electron energy                        -11103.01910263
 Two electron energy                          2971.11647701
 Virial ratio                                    1.84070088
 
 !MCSCF STATE 10.1 Singlet Dipole moment         0.00000000     0.00000000     0.00000000
 Dipole moment /Debye                            0.00000000     0.00000000     0.00000000
 
 Results for state 11.1 Singlet
 ==============================
 !MCSCF STATE 11.1 Singlet Energy            -8131.902625623153
 Nuclear energy                                  0.00000000
 Kinetic energy                               9672.76569901
 One electron energy                        -11103.01910261
 Two electron energy                          2971.11647698
 Virial ratio                                    1.84070088
 
 !MCSCF STATE 11.1 Singlet Dipole moment         0.00000000     0.00000000     0.00000000
 Dipole moment /Debye                            0.00000000     0.00000000     0.00000000
 
 Results for state 12.1 Singlet
 ==============================
 !MCSCF STATE 12.1 Singlet Energy            -8131.900718873694
 Nuclear energy                                  0.00000000
 Kinetic energy                               9672.21198457
 One electron energy                        -11094.80893433
 Two electron energy                          2962.90821546
 Virial ratio                                    1.84074881
 
 !MCSCF STATE 12.1 Singlet Dipole moment         0.00000000     0.00000000     0.00000000
 Dipole moment /Debye                            0.00000000     0.00000000     0.00000000
 
 Results for state 1.1 Triplet
 =============================
 !MCSCF STATE 1.1 Triplet Energy             -8131.963488059278
 Nuclear energy                                  0.00000000
 Kinetic energy                               9672.66724028
 One electron energy                        -11101.98994067
 Two electron energy                          2970.02645261
 Virial ratio                                    1.84071573
 
 !MCSCF STATE 1.1 Triplet Dipole moment          0.00000000     0.00000000     0.00000000
 Dipole moment /Debye                            0.00000000     0.00000000     0.00000000
 
 Results for state 2.1 Triplet
 =============================
 !MCSCF STATE 2.1 Triplet Energy             -8131.963488059235
 Nuclear energy                                  0.00000000
 Kinetic energy                               9672.66724028
 One electron energy                        -11101.98994065
 Two electron energy                          2970.02645259
 Virial ratio                                    1.84071573
 
 !MCSCF STATE 2.1 Triplet Dipole moment          0.00000000     0.00000000     0.00000000
 Dipole moment /Debye                            0.00000000     0.00000000     0.00000000
 
 Results for state 3.1 Triplet
 =============================
 !MCSCF STATE 3.1 Triplet Energy             -8131.963488059148
 Nuclear energy                                  0.00000000
 Kinetic energy                               9672.66724028
 One electron energy                        -11101.98994065
 Two electron energy                          2970.02645259
 Virial ratio                                    1.84071573
 
 !MCSCF STATE 3.1 Triplet Dipole moment          0.00000000     0.00000000     0.00000000
 Dipole moment /Debye                            0.00000000     0.00000000     0.00000000
 
 Results for state 4.1 Triplet
 =============================
 !MCSCF STATE 4.1 Triplet Energy             -8131.963488059093
 Nuclear energy                                  0.00000000
 Kinetic energy                               9672.66724027
 One electron energy                        -11101.98994064
 Two electron energy                          2970.02645258
 Virial ratio                                    1.84071573
 
 !MCSCF STATE 4.1 Triplet Dipole moment          0.00000000     0.00000000     0.00000000
 Dipole moment /Debye                            0.00000000     0.00000000     0.00000000
 
 Results for state 5.1 Triplet
 =============================
 !MCSCF STATE 5.1 Triplet Energy             -8131.963488059081
 Nuclear energy                                  0.00000000
 Kinetic energy                               9672.66724028
 One electron energy                        -11101.98994065
 Two electron energy                          2970.02645259
 Virial ratio                                    1.84071573
 
 !MCSCF STATE 5.1 Triplet Dipole moment          0.00000000     0.00000000     0.00000000
 Dipole moment /Debye                            0.00000000     0.00000000     0.00000000
 
 Results for state 6.1 Triplet
 =============================
 !MCSCF STATE 6.1 Triplet Energy             -8131.906992838610
 Nuclear energy                                  0.00000000
 Kinetic energy                               9672.98490188
 One electron energy                        -11105.44874157
 Two electron energy                          2973.54174873
 Virial ratio                                    1.84068228
 
 !MCSCF STATE 6.1 Triplet Dipole moment          0.00000000     0.00000000     0.00000000
 Dipole moment /Debye                            0.00000000     0.00000000     0.00000000
 
 Results for state 7.1 Triplet
 =============================
 !MCSCF STATE 7.1 Triplet Energy             -8131.906992838608
 Nuclear energy                                  0.00000000
 Kinetic energy                               9672.98490188
 One electron energy                        -11105.44874156
 Two electron energy                          2973.54174873
 Virial ratio                                    1.84068228
 
 !MCSCF STATE 7.1 Triplet Dipole moment          0.00000000     0.00000000     0.00000000
 Dipole moment /Debye                            0.00000000     0.00000000     0.00000000
 
 Results for state 8.1 Triplet
 =============================
 !MCSCF STATE 8.1 Triplet Energy             -8131.906992838574
 Nuclear energy                                  0.00000000
 Kinetic energy                               9672.98490188
 One electron energy                        -11105.44874156
 Two electron energy                          2973.54174872
 Virial ratio                                    1.84068228
 
 !MCSCF STATE 8.1 Triplet Dipole moment          0.00000000     0.00000000     0.00000000
 Dipole moment /Debye                            0.00000000     0.00000000     0.00000000
 
 Results for state 9.1 Triplet
 =============================
 !MCSCF STATE 9.1 Triplet Energy             -8131.906992838572
 Nuclear energy                                  0.00000000
 Kinetic energy                               9672.98490188
 One electron energy                        -11105.44874158
 Two electron energy                          2973.54174874
 Virial ratio                                    1.84068228
 
 !MCSCF STATE 9.1 Triplet Dipole moment          0.00000000     0.00000000     0.00000000
 Dipole moment /Debye                            0.00000000     0.00000000     0.00000000
 
 Results for state 10.1 Triplet
 ==============================
 !MCSCF STATE 10.1 Triplet Energy            -8131.906992838554
 Nuclear energy                                  0.00000000
 Kinetic energy                               9672.98490188
 One electron energy                        -11105.44874155
 Two electron energy                          2973.54174872
 Virial ratio                                    1.84068228
 
 !MCSCF STATE 10.1 Triplet Dipole moment         0.00000000     0.00000000     0.00000000
 Dipole moment /Debye                            0.00000000     0.00000000     0.00000000
 
 Results for state 11.1 Triplet
 ==============================
 !MCSCF STATE 11.1 Triplet Energy            -8131.906992838540
 Nuclear energy                                  0.00000000
 Kinetic energy                               9672.98490188
 One electron energy                        -11105.44874156
 Two electron energy                          2973.54174872
 Virial ratio                                    1.84068228
 
 !MCSCF STATE 11.1 Triplet Dipole moment         0.00000000     0.00000000     0.00000000
 Dipole moment /Debye                            0.00000000     0.00000000     0.00000000
 
 Results for state 12.1 Triplet
 ==============================
 !MCSCF STATE 12.1 Triplet Energy            -8131.906992838540
 Nuclear energy                                  0.00000000
 Kinetic energy                               9672.98490188
 One electron energy                        -11105.44874156
 Two electron energy                          2973.54174873
 Virial ratio                                    1.84068228
 
 !MCSCF STATE 12.1 Triplet Dipole moment         0.00000000     0.00000000     0.00000000
 Dipole moment /Debye                            0.00000000     0.00000000     0.00000000
 
 Results for state 13.1 Triplet
 ==============================
 !MCSCF STATE 13.1 Triplet Energy            -8131.905684418952
 Nuclear energy                                  0.00000000
 Kinetic energy                               9672.01356796
 One electron energy                        -11092.63026235
 Two electron energy                          2960.72457793
 Virial ratio                                    1.84076657
 
 !MCSCF STATE 13.1 Triplet Dipole moment         0.00000000     0.00000000     0.00000000
 Dipole moment /Debye                            0.00000000     0.00000000     0.00000000
 
 Results for state 14.1 Triplet
 ==============================
 !MCSCF STATE 14.1 Triplet Energy            -8131.902910154490
 Nuclear energy                                  0.00000000
 Kinetic energy                               9672.68582468
 One electron energy                        -11102.14584168
 Two electron energy                          2970.24293152
 Virial ratio                                    1.84070785
 
 !MCSCF STATE 14.1 Triplet Dipole moment         0.00000000     0.00000000     0.00000000
 Dipole moment /Debye                            0.00000000     0.00000000     0.00000000
 
 Results for state 15.1 Triplet
 ==============================
 !MCSCF STATE 15.1 Triplet Energy            -8131.902910154150
 Nuclear energy                                  0.00000000
 Kinetic energy                               9672.68582468
 One electron energy                        -11102.14584176
 Two electron energy                          2970.24293161
 Virial ratio                                    1.84070785
 
 !MCSCF STATE 15.1 Triplet Dipole moment         0.00000000     0.00000000     0.00000000
 Dipole moment /Debye                            0.00000000     0.00000000     0.00000000
 
 Results for state 16.1 Triplet
 ==============================
 !MCSCF STATE 16.1 Triplet Energy            -8131.902910153881
 Nuclear energy                                  0.00000000
 Kinetic energy                               9672.68582469
 One electron energy                        -11102.14584185
 Two electron energy                          2970.24293169
 Virial ratio                                    1.84070785
 
 !MCSCF STATE 16.1 Triplet Dipole moment         0.00000000     0.00000000     0.00000000
 Dipole moment /Debye                            0.00000000     0.00000000     0.00000000
 
 State-averaged charge density matrix saved on record 2140.2 (density set 1)
 
 No non-zero expectation values
 
 Expectation values for two-electron operators:
 
 !MCSCF expec      <1.1 Singlet|LXLX|1.1 Singlet>    -0.000000000000
 !MCSCF expec      <2.1 Singlet|LXLX|2.1 Singlet>     0.407068380634
 !MCSCF expec      <3.1 Singlet|LXLX|3.1 Singlet>     0.999998247487
 !MCSCF expec      <4.1 Singlet|LXLX|4.1 Singlet>     1.000000084728
 !MCSCF expec      <5.1 Singlet|LXLX|5.1 Singlet>     3.999999901842
 !MCSCF expec      <6.1 Singlet|LXLX|6.1 Singlet>     3.592933385309
 !MCSCF expec      <7.1 Singlet|LXLX|7.1 Singlet>     0.236544965046
 !MCSCF expec      <8.1 Singlet|LXLX|8.1 Singlet>     0.999999828636
 !MCSCF expec      <9.1 Singlet|LXLX|9.1 Singlet>     1.000000000389
 !MCSCF expec    <10.1 Singlet|LXLX|10.1 Singlet>     3.999999997174
 !MCSCF expec    <11.1 Singlet|LXLX|11.1 Singlet>     3.763455208755
 !MCSCF expec    <12.1 Singlet|LXLX|12.1 Singlet>    -0.000000000000
 !MCSCF expec      <1.1 Triplet|LXLX|1.1 Triplet>     3.999999940134
 !MCSCF expec      <2.1 Triplet|LXLX|2.1 Triplet>     3.846443861064
 !MCSCF expec      <3.1 Triplet|LXLX|3.1 Triplet>     1.000000109197
 !MCSCF expec      <4.1 Triplet|LXLX|4.1 Triplet>     0.999999618185
 !MCSCF expec      <5.1 Triplet|LXLX|5.1 Triplet>     0.153556471420
 !MCSCF expec      <6.1 Triplet|LXLX|6.1 Triplet>     8.709063250626
 !MCSCF expec      <7.1 Triplet|LXLX|7.1 Triplet>     8.858404440101
 !MCSCF expec      <8.1 Triplet|LXLX|8.1 Triplet>     3.999987598161
 !MCSCF expec      <9.1 Triplet|LXLX|9.1 Triplet>     3.349074884519
 !MCSCF expec    <10.1 Triplet|LXLX|10.1 Triplet>     1.290936256231
 !MCSCF expec    <11.1 Triplet|LXLX|11.1 Triplet>     0.651105536554
 !MCSCF expec    <12.1 Triplet|LXLX|12.1 Triplet>     1.141428033808
 !MCSCF expec    <13.1 Triplet|LXLX|13.1 Triplet>    -0.000000000000
 !MCSCF expec    <14.1 Triplet|LXLX|14.1 Triplet>     0.999999999999
 !MCSCF expec    <15.1 Triplet|LXLX|15.1 Triplet>     0.999999998299
 !MCSCF expec    <16.1 Triplet|LXLX|16.1 Triplet>     0.000000001701
 
 !MCSCF expec      <1.1 Singlet|LYLY|1.1 Singlet>     0.000000000000
 !MCSCF expec      <2.1 Singlet|LYLY|2.1 Singlet>     3.843807819716
 !MCSCF expec      <3.1 Singlet|LYLY|3.1 Singlet>     3.999999472533
 !MCSCF expec      <4.1 Singlet|LYLY|4.1 Singlet>     1.000000021831
 !MCSCF expec      <5.1 Singlet|LYLY|5.1 Singlet>     0.999999998634
 !MCSCF expec      <6.1 Singlet|LYLY|6.1 Singlet>     0.156192687286
 !MCSCF expec      <7.1 Singlet|LYLY|7.1 Singlet>     3.698838002356
 !MCSCF expec      <8.1 Singlet|LYLY|8.1 Singlet>     3.999999929434
 !MCSCF expec      <9.1 Singlet|LYLY|9.1 Singlet>     1.000000004508
 !MCSCF expec    <10.1 Singlet|LYLY|10.1 Singlet>     0.999999994115
 !MCSCF expec    <11.1 Singlet|LYLY|11.1 Singlet>     0.301162069587
 !MCSCF expec    <12.1 Singlet|LYLY|12.1 Singlet>     0.000000000000
 !MCSCF expec      <1.1 Triplet|LYLY|1.1 Triplet>     1.000000010143
 !MCSCF expec      <2.1 Triplet|LYLY|2.1 Triplet>     0.411208011589
 !MCSCF expec      <3.1 Triplet|LYLY|3.1 Triplet>     0.999999992551
 !MCSCF expec      <4.1 Triplet|LYLY|4.1 Triplet>     3.999999691516
 !MCSCF expec      <5.1 Triplet|LYLY|5.1 Triplet>     3.588792294201
 !MCSCF expec      <6.1 Triplet|LYLY|6.1 Triplet>     0.811341130140
 !MCSCF expec      <7.1 Triplet|LYLY|7.1 Triplet>     1.113217511135
 !MCSCF expec      <8.1 Triplet|LYLY|8.1 Triplet>     3.999954036060
 !MCSCF expec      <9.1 Triplet|LYLY|9.1 Triplet>     1.466304352132
 !MCSCF expec    <10.1 Triplet|LYLY|10.1 Triplet>     3.188660635339
 !MCSCF expec    <11.1 Triplet|LYLY|11.1 Triplet>     8.533878959300
 !MCSCF expec    <12.1 Triplet|LYLY|12.1 Triplet>     8.886643375894
 !MCSCF expec    <13.1 Triplet|LYLY|13.1 Triplet>     0.000000000000
 !MCSCF expec    <14.1 Triplet|LYLY|14.1 Triplet>     0.000000000573
 !MCSCF expec    <15.1 Triplet|LYLY|15.1 Triplet>     0.999999999428
 !MCSCF expec    <16.1 Triplet|LYLY|16.1 Triplet>     0.999999999999
 
 !MCSCF expec      <1.1 Singlet|LZLZ|1.1 Singlet>    -0.000000000000
 !MCSCF expec      <2.1 Singlet|LZLZ|2.1 Singlet>     1.749123799650
 !MCSCF expec      <3.1 Singlet|LZLZ|3.1 Singlet>     1.000002279980
 !MCSCF expec      <4.1 Singlet|LZLZ|4.1 Singlet>     3.999999893441
 !MCSCF expec      <5.1 Singlet|LZLZ|5.1 Singlet>     1.000000099525
 !MCSCF expec      <6.1 Singlet|LZLZ|6.1 Singlet>     2.250873927405
 !MCSCF expec      <7.1 Singlet|LZLZ|7.1 Singlet>     2.064617032597
 !MCSCF expec      <8.1 Singlet|LZLZ|8.1 Singlet>     1.000000241931
 !MCSCF expec      <9.1 Singlet|LZLZ|9.1 Singlet>     3.999999995103
 !MCSCF expec    <10.1 Singlet|LZLZ|10.1 Singlet>     1.000000008711
 !MCSCF expec    <11.1 Singlet|LZLZ|11.1 Singlet>     1.935382721658
 !MCSCF expec    <12.1 Singlet|LZLZ|12.1 Singlet>    -0.000000000000
 !MCSCF expec      <1.1 Triplet|LZLZ|1.1 Triplet>     1.000000049723
 !MCSCF expec      <2.1 Triplet|LZLZ|2.1 Triplet>     1.742348127346
 !MCSCF expec      <3.1 Triplet|LZLZ|3.1 Triplet>     3.999999898252
 !MCSCF expec      <4.1 Triplet|LZLZ|4.1 Triplet>     1.000000690300
 !MCSCF expec      <5.1 Triplet|LZLZ|5.1 Triplet>     2.257651234379
 !MCSCF expec      <6.1 Triplet|LZLZ|6.1 Triplet>     2.479595619235
 !MCSCF expec      <7.1 Triplet|LZLZ|7.1 Triplet>     2.028378048764
 !MCSCF expec      <8.1 Triplet|LZLZ|8.1 Triplet>     4.000058365779
 !MCSCF expec      <9.1 Triplet|LZLZ|9.1 Triplet>     7.184620763349
 !MCSCF expec    <10.1 Triplet|LZLZ|10.1 Triplet>     7.520403108430
 !MCSCF expec    <11.1 Triplet|LZLZ|11.1 Triplet>     2.815015504146
 !MCSCF expec    <12.1 Triplet|LZLZ|12.1 Triplet>     1.971928590297
 !MCSCF expec    <13.1 Triplet|LZLZ|13.1 Triplet>    -0.000000000000
 !MCSCF expec    <14.1 Triplet|LZLZ|14.1 Triplet>     0.999999999428
 !MCSCF expec    <15.1 Triplet|LZLZ|15.1 Triplet>     0.000000002273
 !MCSCF expec    <16.1 Triplet|LZLZ|16.1 Triplet>     0.999999998299
 
 !MCSCF expec      <1.1 Singlet|L**2|1.1 Singlet>    -0.000000000000
 !MCSCF expec      <2.1 Singlet|L**2|2.1 Singlet>     6.000000000000
 !MCSCF expec      <3.1 Singlet|L**2|3.1 Singlet>     6.000000000000
 !MCSCF expec      <4.1 Singlet|L**2|4.1 Singlet>     6.000000000000
 !MCSCF expec      <5.1 Singlet|L**2|5.1 Singlet>     6.000000000000
 !MCSCF expec      <6.1 Singlet|L**2|6.1 Singlet>     6.000000000000
 !MCSCF expec      <7.1 Singlet|L**2|7.1 Singlet>     6.000000000000
 !MCSCF expec      <8.1 Singlet|L**2|8.1 Singlet>     6.000000000000
 !MCSCF expec      <9.1 Singlet|L**2|9.1 Singlet>     6.000000000000
 !MCSCF expec    <10.1 Singlet|L**2|10.1 Singlet>     6.000000000000
 !MCSCF expec    <11.1 Singlet|L**2|11.1 Singlet>     6.000000000000
 !MCSCF expec    <12.1 Singlet|L**2|12.1 Singlet>    -0.000000000000
 !MCSCF expec      <1.1 Triplet|L**2|1.1 Triplet>     6.000000000000
 !MCSCF expec      <2.1 Triplet|L**2|2.1 Triplet>     6.000000000000
 !MCSCF expec      <3.1 Triplet|L**2|3.1 Triplet>     6.000000000000
 !MCSCF expec      <4.1 Triplet|L**2|4.1 Triplet>     6.000000000000
 !MCSCF expec      <5.1 Triplet|L**2|5.1 Triplet>     6.000000000000
 !MCSCF expec      <6.1 Triplet|L**2|6.1 Triplet>    12.000000000000
 !MCSCF expec      <7.1 Triplet|L**2|7.1 Triplet>    12.000000000000
 !MCSCF expec      <8.1 Triplet|L**2|8.1 Triplet>    12.000000000000
 !MCSCF expec      <9.1 Triplet|L**2|9.1 Triplet>    12.000000000000
 !MCSCF expec    <10.1 Triplet|L**2|10.1 Triplet>    12.000000000000
 !MCSCF expec    <11.1 Triplet|L**2|11.1 Triplet>    12.000000000000
 !MCSCF expec    <12.1 Triplet|L**2|12.1 Triplet>    12.000000000000
 !MCSCF expec    <13.1 Triplet|L**2|13.1 Triplet>    -0.000000000000
 !MCSCF expec    <14.1 Triplet|L**2|14.1 Triplet>     2.000000000000
 !MCSCF expec    <15.1 Triplet|L**2|15.1 Triplet>     2.000000000000
 !MCSCF expec    <16.1 Triplet|L**2|16.1 Triplet>     2.000000000000
 
  NATURAL ORBITALS (STATE AVERAGED)
  =================================

  Orbital  Occupation    Energy    Cen Mu Typ  Coefficients
    1.1     2.00000 -1382.70721     1  1  s    1.00000
    2.1     2.00000  -222.41665     1  2  s    0.99999
    3.1     2.00000   -48.58992     1  3  s    1.00033
    4.1     2.00000   -29.90324     1  1  d1-  0.99999
    5.1     2.00000   -29.90324     1  1  d2+  0.99999
    6.1     2.00000   -29.90324     1  1  d2-  0.99999
    7.1     2.00000   -29.90324     1  1  d0   0.99999
    8.1     2.00000   -29.90324     1  1  d1+  0.99999
    9.1     2.00000   -10.21061     1  4  s    0.99642
   10.1     2.00000    -3.81157     1  2  d1-  1.00052
   11.1     2.00000    -3.81157     1  2  d2+  1.00052
   12.1     2.00000    -3.81157     1  2  d0   1.00052
   13.1     2.00000    -3.81157     1  2  d2-  1.00052
   14.1     2.00000    -3.81157     1  2  d1+  1.00052
   15.1     2.00000    -1.55618     1  5  s    0.99341
   16.1     0.45546    -0.03420     1  6  s    0.70383
   17.1     0.25617     0.05463     1  3  d1+  0.91314
   18.1     0.25617     0.05463     1  3  d2-  0.91314
   19.1     0.25617     0.05463     1  3  d2+  0.91314
   20.1     0.25617     0.05463     1  3  d1-  0.91314
   21.1     0.25617     0.05463     1  3  d0   0.91314
   22.1     0.06660     0.04146     1  6  s   -1.12401    1  7  s   -0.27567    1  9  s    0.81273    1 13  s    0.79265
    1.2     2.00000  -199.35136     1  1  py   1.00000
    2.2     2.00000  -199.35136     1  1  px   0.99999
    3.2     2.00000  -199.35136     1  1  pz   0.99999
    4.2     2.00000   -41.00107     1  2  px   1.00002
    5.2     2.00000   -41.00107     1  2  pz   1.00002
    6.2     2.00000   -41.00107     1  2  py   1.00002
    7.2     2.00000    -7.65595     1  3  px   0.99415
    8.2     2.00000    -7.65595     1  3  pz   0.99415
    9.2     2.00000    -7.65595     1  3  py   0.99415
   10.2     2.00000    -0.86230     1  4  px   0.99712
   11.2     2.00000    -0.86230     1  4  pz   0.99712
   12.2     2.00000    -0.86230     1  4  py   0.99712
   13.2     0.06465     0.04979     1  5  px  -1.42753
   14.2     0.06465     0.04979     1  5  pz  -1.42753
   15.2     0.06465     0.04979     1  5  py  -1.42753
   16.2     0.00104     0.11196     1  4  px   0.76704    1  5  px   3.82590    1  6  px   1.40464    1  7  px   2.13870
                                    1  8  px   0.82318
   17.2     0.00104     0.11196     1  4  pz   0.76704    1  5  pz   3.82591    1  6  pz   1.40464    1  7  pz   2.13870
                                    1  8  pz   0.82318
   18.2     0.00104     0.11196     1  4  py   0.76704    1  5  py   3.82590    1  6  py   1.40464    1  7  py   2.13870
                                    1  8  py   0.82318
 *** IN SYMMETRY  1 ORBITAL   4 SYMMETRY CONTAMINATION OF 0.741D-04 HAS BEEN REMOVED
 *** IN SYMMETRY  1 ORBITAL   5 SYMMETRY CONTAMINATION OF 0.967D-04 HAS BEEN REMOVED
 *** IN SYMMETRY  1 ORBITAL   6 SYMMETRY CONTAMINATION OF 0.136D-02 HAS BEEN REMOVED
 *** IN SYMMETRY  1 ORBITAL   7 SYMMETRY CONTAMINATION OF 0.135D-02 HAS BEEN REMOVED
 *** IN SYMMETRY  1 ORBITAL   8 SYMMETRY CONTAMINATION OF 0.515D-04 HAS BEEN REMOVED
 *** IN SYMMETRY  1 ORBITAL  11 SYMMETRY CONTAMINATION OF 0.307D-04 HAS BEEN REMOVED
 *** IN SYMMETRY  1 ORBITAL  13 SYMMETRY CONTAMINATION OF 0.310D-04 HAS BEEN REMOVED
 *** IN SYMMETRY  1 ORBITAL  23 SYMMETRY CONTAMINATION OF 0.520D-03 HAS BEEN REMOVED
 *** IN SYMMETRY  1 ORBITAL  24 SYMMETRY CONTAMINATION OF 0.520D-03 HAS BEEN REMOVED
 *** IN SYMMETRY  1 ORBITAL  32 SYMMETRY CONTAMINATION OF 0.343D-03 HAS BEEN REMOVED
 *** IN SYMMETRY  1 ORBITAL  33 SYMMETRY CONTAMINATION OF 0.343D-03 HAS BEEN REMOVED
 *** IN SYMMETRY  1 ORBITAL  37 SYMMETRY CONTAMINATION OF 0.568D-01 HAS BEEN REMOVED
 *** IN SYMMETRY  1 ORBITAL  38 SYMMETRY CONTAMINATION OF 0.568D-01 HAS BEEN REMOVED
 *** IN SYMMETRY  1 ORBITAL  39 SYMMETRY CONTAMINATION OF 0.180D-02 HAS BEEN REMOVED
 *** IN SYMMETRY  1 ORBITAL  40 SYMMETRY CONTAMINATION OF 0.393D+00 HAS BEEN REMOVED
 *** IN SYMMETRY  1 ORBITAL  41 SYMMETRY CONTAMINATION OF 0.393D+00 HAS BEEN REMOVED
 *** IN SYMMETRY  1 ORBITAL  42 SYMMETRY CONTAMINATION OF 0.301D+00 HAS BEEN REMOVED
 *** IN SYMMETRY  1 ORBITAL  43 SYMMETRY CONTAMINATION OF 0.301D+00 HAS BEEN REMOVED
 *** IN SYMMETRY  1 ORBITAL  47 SYMMETRY CONTAMINATION OF 0.115D-04 HAS BEEN REMOVED
 *** IN SYMMETRY  1 ORBITAL  48 SYMMETRY CONTAMINATION OF 0.115D-04 HAS BEEN REMOVED
 *** IN SYMMETRY  1 ORBITAL  51 SYMMETRY CONTAMINATION OF 0.130D+00 HAS BEEN REMOVED
 *** IN SYMMETRY  1 ORBITAL  52 SYMMETRY CONTAMINATION OF 0.130D+00 HAS BEEN REMOVED
 *** IN SYMMETRY  1 ORBITAL  53 SYMMETRY CONTAMINATION OF 0.437D-01 HAS BEEN REMOVED
 *** IN SYMMETRY  1 ORBITAL  54 SYMMETRY CONTAMINATION OF 0.437D-01 HAS BEEN REMOVED
 *** IN SYMMETRY  1 ORBITAL  56 SYMMETRY CONTAMINATION OF 0.325D-01 HAS BEEN REMOVED
 *** IN SYMMETRY  1 ORBITAL  57 SYMMETRY CONTAMINATION OF 0.325D-01 HAS BEEN REMOVED
 *** IN SYMMETRY  1 ORBITAL  62 SYMMETRY CONTAMINATION OF 0.645D-03 HAS BEEN REMOVED
 *** IN SYMMETRY  1 ORBITAL  63 SYMMETRY CONTAMINATION OF 0.645D-03 HAS BEEN REMOVED
 *** IN SYMMETRY  1 ORBITAL  65 SYMMETRY CONTAMINATION OF 0.162D-01 HAS BEEN REMOVED
 *** IN SYMMETRY  1 ORBITAL  66 SYMMETRY CONTAMINATION OF 0.162D-01 HAS BEEN REMOVED
 *** IN SYMMETRY  1 ORBITAL  67 SYMMETRY CONTAMINATION OF 0.240D+00 HAS BEEN REMOVED
 *** IN SYMMETRY  1 ORBITAL  68 SYMMETRY CONTAMINATION OF 0.240D+00 HAS BEEN REMOVED
 *** IN SYMMETRY  1 ORBITAL  69 SYMMETRY CONTAMINATION OF 0.661D-02 HAS BEEN REMOVED
 *** IN SYMMETRY  1 ORBITAL  70 SYMMETRY CONTAMINATION OF 0.661D-02 HAS BEEN REMOVED

 EXTRA SYMMETRY OF MOS IN SYMMETRY 1:   1 1 1 6 5 3 2 4 1 6   5 2 3 4 1 1 4 3 5 6   2 1 5 3 6 4 2 1 6 2   4 3 5 1 7 912 81110
                                       131514 6 4 2 5 3 1 9  12 81514 7101311 4 6   2 3 5 113101415 812   9 711 4 6 2 3 5 1 6
                                        4 2 3 5 6 4 5 3 2 1
 *** IN SYMMETRY  2 ORBITAL   2 SYMMETRY CONTAMINATION OF 0.397D-02 HAS BEEN REMOVED
 *** IN SYMMETRY  2 ORBITAL   3 SYMMETRY CONTAMINATION OF 0.397D-02 HAS BEEN REMOVED
 *** IN SYMMETRY  2 ORBITAL  25 SYMMETRY CONTAMINATION OF 0.187D-01 HAS BEEN REMOVED
 *** IN SYMMETRY  2 ORBITAL  26 SYMMETRY CONTAMINATION OF 0.187D-01 HAS BEEN REMOVED
 *** IN SYMMETRY  2 ORBITAL  27 SYMMETRY CONTAMINATION OF 0.211D-04 HAS BEEN REMOVED
 *** IN SYMMETRY  2 ORBITAL  28 SYMMETRY CONTAMINATION OF 0.572D-04 HAS BEEN REMOVED
 *** IN SYMMETRY  2 ORBITAL  29 SYMMETRY CONTAMINATION OF 0.263D-02 HAS BEEN REMOVED
 *** IN SYMMETRY  2 ORBITAL  30 SYMMETRY CONTAMINATION OF 0.263D-02 HAS BEEN REMOVED
 *** IN SYMMETRY  2 ORBITAL  31 SYMMETRY CONTAMINATION OF 0.191D-04 HAS BEEN REMOVED
 *** IN SYMMETRY  2 ORBITAL  33 SYMMETRY CONTAMINATION OF 0.307D-04 HAS BEEN REMOVED
 *** IN SYMMETRY  2 ORBITAL  34 SYMMETRY CONTAMINATION OF 0.373D-04 HAS BEEN REMOVED
 *** IN SYMMETRY  2 ORBITAL  35 SYMMETRY CONTAMINATION OF 0.465D-04 HAS BEEN REMOVED
 *** IN SYMMETRY  2 ORBITAL  36 SYMMETRY CONTAMINATION OF 0.469D-04 HAS BEEN REMOVED
 *** IN SYMMETRY  2 ORBITAL  37 SYMMETRY CONTAMINATION OF 0.337D-04 HAS BEEN REMOVED
 *** IN SYMMETRY  2 ORBITAL  38 SYMMETRY CONTAMINATION OF 0.355D-04 HAS BEEN REMOVED
 *** IN SYMMETRY  2 ORBITAL  42 SYMMETRY CONTAMINATION OF 0.155D-04 HAS BEEN REMOVED
 *** IN SYMMETRY  2 ORBITAL  44 SYMMETRY CONTAMINATION OF 0.194D-04 HAS BEEN REMOVED
 *** IN SYMMETRY  2 ORBITAL  46 SYMMETRY CONTAMINATION OF 0.165D-04 HAS BEEN REMOVED
 *** IN SYMMETRY  2 ORBITAL  54 SYMMETRY CONTAMINATION OF 0.410D-04 HAS BEEN REMOVED
 *** IN SYMMETRY  2 ORBITAL  55 SYMMETRY CONTAMINATION OF 0.409D-04 HAS BEEN REMOVED
 *** IN SYMMETRY  2 ORBITAL  64 SYMMETRY CONTAMINATION OF 0.423D-04 HAS BEEN REMOVED
 *** IN SYMMETRY  2 ORBITAL  65 SYMMETRY CONTAMINATION OF 0.423D-04 HAS BEEN REMOVED
 *** IN SYMMETRY  2 ORBITAL  74 SYMMETRY CONTAMINATION OF 0.104D-04 HAS BEEN REMOVED
 *** IN SYMMETRY  2 ORBITAL  75 SYMMETRY CONTAMINATION OF 0.104D-04 HAS BEEN REMOVED
 EXTRA SYMMETRY OF MOS IN SYMMETRY 2:   2 1 3 1 3 2 1 3 2 1   3 2 1 3 2 1 3 2 3 2   1 1 2 3 7 9 6 410 8   5 410 8 5 6 9 7 1 2
                                        3 6 5 9 4 710 8 1 2   3 4 5 9 610 7 8 5 4   6 9 710 8 1 2 3 5 9   7 4 610 8 2 1 3
 
 Natural orbital dump (state averaged) at molpro section 2140.2 (Orbital set 2)
 
 Reoptimze the CI vectors with natural orbitals 
 
 CI Coefficients of symmetry 1 (Singlet)
 =======================================

 State:                   1               2               3               4               5               6               7
 2000000 000000      0.95609062      0.00000000      0.00000000      0.00000000      0.00000000     -0.00000000      0.00000000
 a000b00 000000     -0.00000000     -0.00000358     -0.00003757     -0.00010668      0.64764598      0.00007016      0.00000038
 b000a00 000000      0.00000000      0.00000358      0.00003757      0.00010668     -0.64764598     -0.00007016     -0.00000038
 b0a0000 000000     -0.00000000      0.00003611     -0.00005908     -0.64764598     -0.00010668     -0.00004858     -0.00000008
 a0b0000 000000      0.00000000     -0.00003611      0.00005908      0.64764598      0.00010668      0.00004858      0.00000008
 ba00000 000000      0.00000000      0.00109433     -0.64764507      0.00005915     -0.00003755     -0.00001186      0.00002144
 ab00000 000000     -0.00000000     -0.00109433      0.64764507     -0.00005915      0.00003755      0.00001186     -0.00002144
 b00000a 000000      0.03910365      0.00000000      0.00000000      0.00000000     -0.00000000      0.00000000      0.00000002
 a00000b 000000     -0.03910365     -0.00000000     -0.00000000     -0.00000000      0.00000000     -0.00000000     -0.00000002
 b00a000 000000     -0.00000000      0.42827202      0.00073256      0.00006024      0.00005505     -0.48582700      0.03219405
 a00b000 000000      0.00000000     -0.42827202     -0.00073256     -0.00006024     -0.00005505      0.48582700     -0.03219405
 b0000a0 000000     -0.00000000     -0.48582632     -0.00081306      0.00000510      0.00004366     -0.42827264     -0.03117016
 a0000b0 000000      0.00000000      0.48582632      0.00081306     -0.00000510     -0.00004366      0.42827264      0.03117016
 00a00b0 000000      0.00000000     -0.00000713      0.00001166      0.12784741      0.00002106      0.00000959     -0.00000079
 00b00a0 000000     -0.00000000      0.00000713     -0.00001166     -0.12784741     -0.00002106     -0.00000959      0.00000079
 0000200 000000     -0.04306421     -0.12116761     -0.00020549     -0.00000980     -0.00000510      0.04078394      0.45347324
 0200000 000000     -0.04306421      0.02526392      0.00004498      0.00001080      0.00001372     -0.12532635     -0.12827994
 0a00b00 000000      0.00000000      0.00000617     -0.00001010     -0.11071911     -0.00001824     -0.00000830      0.00000068
 0b00a00 000000     -0.00000000     -0.00000617      0.00001010      0.11071911      0.00001824      0.00000830     -0.00000068
 000ba00 000000      0.00000000      0.00000061      0.00000642      0.00001824     -0.11071911     -0.00001199      0.00000341
 000ab00 000000     -0.00000000     -0.00000061     -0.00000642     -0.00001824      0.11071911      0.00001199     -0.00000341
 0ab0000 000000      0.00000000      0.00000061      0.00000642      0.00001824     -0.11071911     -0.00001199      0.00000341
 0ba0000 000000     -0.00000000     -0.00000061     -0.00000642     -0.00001824      0.11071911      0.00001199     -0.00000341
 00a0b00 000000      0.00000000      0.00018708     -0.11071895      0.00001011     -0.00000642     -0.00000203     -0.00019368
 00b0a00 000000     -0.00000000     -0.00018708      0.11071895     -0.00001011      0.00000642      0.00000203      0.00019368
 0b0a000 000000     -0.00000000     -0.00018708      0.11071895     -0.00001011      0.00000642      0.00000203      0.00019368
 0a0b000 000000      0.00000000      0.00018708     -0.11071895      0.00001011     -0.00000642     -0.00000203     -0.00019368
 0000000 200000     -0.15122566      0.24567469      0.00041663      0.00001986      0.00001034     -0.08269192      0.36421573
 0000000 002000     -0.15122566     -0.05122413     -0.00009121     -0.00002190     -0.00002782      0.25410677     -0.10303046
 0000020 000000     -0.04306421     -0.09590369     -0.00016050      0.00000101      0.00000862     -0.08454240      0.32519331
 0002000 000000     -0.04306421      0.09590369      0.00016050     -0.00000101     -0.00000862      0.08454241     -0.32519333
 0020000 000000     -0.04306421      0.09590368      0.00016050     -0.00000101     -0.00000862      0.08454241     -0.32519334
 000b0a0 000000      0.00000000      0.08454228      0.00014461      0.00001189      0.00001087     -0.09590382     -0.33587535
 000a0b0 000000     -0.00000000     -0.08454228     -0.00014461     -0.00001189     -0.00001087      0.09590382      0.33587535
 0000000 a0b000      0.00000000      0.00001252     -0.00002048     -0.22448971     -0.00003698     -0.00001684     -0.00000055
 0000000 b0a000     -0.00000000     -0.00001252      0.00002048      0.22448971      0.00003698      0.00001684      0.00000055
 0000000 0ab000     -0.00000000      0.00000124      0.00001302      0.00003698     -0.22448971     -0.00002432     -0.00000274
 0000000 0ba000      0.00000000     -0.00000124     -0.00001302     -0.00003698      0.22448971      0.00002432      0.00000274
 0000000 ab0000      0.00000000      0.00037932     -0.22448940      0.00002050     -0.00001302     -0.00000411      0.00015556
 0000000 ba0000     -0.00000000     -0.00037932      0.22448940     -0.00002050      0.00001302      0.00000411     -0.00015556
 0000000 020000     -0.15122566     -0.19445055     -0.00032543      0.00000204      0.00001748     -0.17141486     -0.26118523
 0000ba0 000000     -0.00000000     -0.00000035     -0.00000371     -0.00001053      0.06392371      0.00000692     -0.00000197
 0000ab0 000000      0.00000000      0.00000035      0.00000371      0.00001053     -0.06392371     -0.00000692      0.00000197
 0b000a0 000000     -0.00000000     -0.00010801      0.06392361     -0.00000584      0.00000371      0.00000117      0.00011182
 0a000b0 000000      0.00000000      0.00010801     -0.06392361      0.00000584     -0.00000371     -0.00000117     -0.00011182
 0000002 000000     -0.01769948      0.00000000      0.00000000     -0.00000000     -0.00000000      0.00000000      0.00000000
 00b000a 000000     -0.00000000      0.00000156     -0.00000255     -0.02794213     -0.00000460     -0.00000210     -0.00000017
 00a000b 000000      0.00000000     -0.00000156      0.00000255      0.02794213      0.00000460      0.00000210      0.00000017
 0000b0a 000000      0.00000000      0.00000015      0.00000162      0.00000460     -0.02794213     -0.00000303     -0.00000083
 0000a0b 000000     -0.00000000     -0.00000015     -0.00000162     -0.00000460      0.02794213      0.00000303      0.00000083
 0b0000a 000000     -0.00000000      0.00004721     -0.02794209      0.00000255     -0.00000162     -0.00000051      0.00004717
 0a0000b 000000      0.00000000     -0.00004721      0.02794209     -0.00000255      0.00000162      0.00000051     -0.00004717
 0000000 b00a00     -0.02709342      0.02081888      0.00003531      0.00000168      0.00000088     -0.00700745     -0.00509800
 0000000 a00b00      0.02709342     -0.02081888     -0.00003531     -0.00000168     -0.00000088      0.00700745      0.00509800
 0000000 0a00b0      0.02709342      0.01647807      0.00002758     -0.00000017     -0.00000148      0.01452598     -0.00365586
 0000000 0b00a0     -0.02709342     -0.01647807     -0.00002758      0.00000017      0.00000148     -0.01452598      0.00365586
 0000000 00b00a     -0.02709342     -0.00434082     -0.00000773     -0.00000186     -0.00000236      0.02153343      0.00144213
 0000000 00a00b      0.02709342      0.00434082      0.00000773      0.00000186      0.00000236     -0.02153343     -0.00144213
 00000ba 000000     -0.00000000     -0.02096056     -0.00003508      0.00000022      0.00000188     -0.01847745     -0.06858291
 00000ab 000000      0.00000000      0.02096056      0.00003508     -0.00000022     -0.00000188      0.01847745      0.06858291
 000b00a 000000      0.00000000      0.01847743      0.00003161      0.00000260      0.00000238     -0.02096059      0.07083574
 000a00b 000000     -0.00000000     -0.01847743     -0.00003161     -0.00000260     -0.00000238      0.02096059     -0.07083574
 
 Energy:         -8132.01920970  -8131.95701428  -8131.95701428  -8131.95701428  -8131.95701428  -8131.95701428  -8131.90262562

 State:                   8               9              10              11              12
 2000000 000000      0.00000000     -0.00000000     -0.00000000     -0.00000000      0.01827955
 a000b00 000000     -0.00000087      0.00000032     -0.04481112      0.00000514     -0.00000000
 b000a00 000000      0.00000087     -0.00000032      0.04481112     -0.00000514      0.00000000
 b0a0000 000000     -0.00000176      0.04481112      0.00000032     -0.00000041      0.00000000
 a0b0000 000000      0.00000176     -0.04481112     -0.00000032      0.00000041     -0.00000000
 ba00000 000000     -0.04481111     -0.00000176      0.00000087      0.00000022     -0.00000000
 ab00000 000000      0.04481111      0.00000176     -0.00000087     -0.00000022      0.00000000
 b00000a 000000      0.00000000      0.00000000     -0.00000000     -0.00000002     -0.60887928
 a00000b 000000     -0.00000000     -0.00000000      0.00000000      0.00000002      0.60887928
 b00a000 000000      0.00001525     -0.00000023     -0.00000330     -0.03117017      0.00000000
 a00b000 000000     -0.00001525      0.00000023      0.00000330      0.03117017     -0.00000000
 b0000a0 000000     -0.00001507     -0.00000035     -0.00000395     -0.03219406     -0.00000000
 a0000b0 000000      0.00001507      0.00000035      0.00000395      0.03219406      0.00000000
 00a00b0 000000     -0.00001835      0.46750722      0.00000336     -0.00000427      0.00000000
 00b00a0 000000      0.00001835     -0.46750722     -0.00000336      0.00000427     -0.00000000
 0000200 000000      0.00021637     -0.00000027     -0.00000921     -0.11368801      0.15377973
 0200000 000000     -0.00005914      0.00000389      0.00005045      0.44956342      0.15377969
 0a00b00 000000      0.00001589     -0.40487313     -0.00000291      0.00000370     -0.00000000
 0b00a00 000000     -0.00001589      0.40487313      0.00000291     -0.00000370      0.00000000
 000ba00 000000     -0.00000785      0.00000291     -0.40487313      0.00004640     -0.00000000
 000ab00 000000      0.00000785     -0.00000291      0.40487313     -0.00004640      0.00000000
 0ab0000 000000     -0.00000785      0.00000291     -0.40487313      0.00004640     -0.00000000
 0ba0000 000000      0.00000785     -0.00000291      0.40487313     -0.00004640      0.00000000
 00a0b00 000000      0.40487308      0.00001589     -0.00000786     -0.00000200      0.00000000
 00b0a00 000000     -0.40487308     -0.00001589      0.00000786      0.00000200     -0.00000000
 0b0a000 000000     -0.40487308     -0.00001589      0.00000786      0.00000200     -0.00000000
 0a0b000 000000      0.40487308      0.00001589     -0.00000786     -0.00000200      0.00000000
 0000000 200000      0.00017378     -0.00000022     -0.00000740     -0.09131072     -0.16191420
 0000000 002000     -0.00004750      0.00000312      0.00004052      0.36107543     -0.16191423
 0000020 000000      0.00015723      0.00000362      0.00004123      0.33587540      0.15377971
 0002000 000000     -0.00015723     -0.00000362     -0.00004123     -0.33587538      0.15377971
 0020000 000000     -0.00015723     -0.00000362     -0.00004123     -0.33587538      0.15377971
 000b0a0 000000     -0.00015907      0.00000240      0.00003444      0.32519336     -0.00000002
 000a0b0 000000      0.00015907     -0.00000240     -0.00003444     -0.32519336      0.00000002
 0000000 a0b000     -0.00001276      0.32518160      0.00000234     -0.00000297      0.00000000
 0000000 b0a000      0.00001276     -0.32518160     -0.00000234      0.00000297     -0.00000000
 0000000 0ab000      0.00000631     -0.00000234      0.32518159     -0.00003727      0.00000000
 0000000 0ba000     -0.00000631      0.00000234     -0.32518159      0.00003727     -0.00000000
 0000000 ab0000     -0.32518156     -0.00001276      0.00000631      0.00000161     -0.00000000
 0000000 ba0000      0.32518156      0.00001276     -0.00000631     -0.00000161      0.00000000
 0000000 020000     -0.00012628     -0.00000291     -0.00003312     -0.26976475     -0.16191422
 0000ba0 000000      0.00000453     -0.00000168      0.23375361     -0.00002679      0.00000000
 0000ab0 000000     -0.00000453      0.00000168     -0.23375361      0.00002679     -0.00000000
 0b000a0 000000     -0.23375358     -0.00000917      0.00000454      0.00000116     -0.00000000
 0a000b0 000000      0.23375358      0.00000917     -0.00000454     -0.00000116      0.00000000
 0000002 000000      0.00000000      0.00000000     -0.00000000     -0.00000000     -0.15778310
 00b000a 000000     -0.00000387      0.09859675      0.00000071     -0.00000090      0.00000000
 00a000b 000000      0.00000387     -0.09859675     -0.00000071      0.00000090     -0.00000000
 0000b0a 000000      0.00000191     -0.00000071      0.09859675     -0.00001130      0.00000000
 0000a0b 000000     -0.00000191      0.00000071     -0.09859675      0.00001130     -0.00000000
 0b0000a 000000     -0.09859674     -0.00000387      0.00000191      0.00000049     -0.00000000
 0a0000b 000000      0.09859674      0.00000387     -0.00000191     -0.00000049      0.00000000
 0000000 b00a00     -0.00000243      0.00000000      0.00000010      0.00127810      0.07615428
 0000000 a00b00      0.00000243     -0.00000000     -0.00000010     -0.00127810     -0.07615428
 0000000 0a00b0     -0.00000177     -0.00000004     -0.00000046     -0.00377595     -0.07615428
 0000000 0b00a0      0.00000177      0.00000004      0.00000046      0.00377595      0.07615428
 0000000 00b00a      0.00000066     -0.00000004     -0.00000057     -0.00505404      0.07615428
 0000000 00a00b     -0.00000066      0.00000004      0.00000057      0.00505404     -0.07615428
 00000ba 000000     -0.00003316     -0.00000076     -0.00000870     -0.07083574     -0.00000000
 00000ab 000000      0.00003316      0.00000076      0.00000870      0.07083574      0.00000000
 000b00a 000000      0.00003355     -0.00000051     -0.00000726     -0.06858292      0.00000001
 000a00b 000000     -0.00003355      0.00000051      0.00000726      0.06858292     -0.00000001
 
 Energy:         -8131.90262562  -8131.90262562  -8131.90262562  -8131.90262562  -8131.90071887
 
 
 CI Coefficients of symmetry 1 (Triplet)
 =======================================

 State:                   1               2               3               4               5               6               7
 a000a00 000000      0.99999249      0.00019690      0.00012851      0.00005741     -0.00003959     -0.00000000      0.00000000
 a0a0000 000000     -0.00012847     -0.00019956      0.99999248     -0.00009858     -0.00011949     -0.00000000     -0.00000000
 aa00000 000000     -0.00005744     -0.00005388      0.00009848      0.99999227     -0.00069017     -0.00000000     -0.00000000
 000a0a0 000000      0.00000000     -0.00000000     -0.00000000      0.00000000      0.00000000     -0.00005681      0.00005562
 a00000a 000000      0.00000000     -0.00000000      0.00000000      0.00000000      0.00000000      0.00000000      0.00000000
 000aa00 000000     -0.00000000     -0.00000000     -0.00000000     -0.00000000      0.00000000     -0.00009715      0.00009274
 0a0a000 000000     -0.00000000     -0.00000000      0.00000000      0.00000000     -0.00000000     -0.19038949     -0.00023650
 0aa0000 000000     -0.00000000     -0.00000000     -0.00000000     -0.00000000      0.00000000      0.00037421     -0.00009739
 00a0a00 000000      0.00000000      0.00000000      0.00000000     -0.00000000      0.00000000      0.79858003      0.00090682
 a0000a0 000000     -0.00017404      0.75126894      0.00007100     -0.00041504     -0.65998471     -0.00000000      0.00000000
 a00a000 000000     -0.00010026      0.65998480      0.00022152      0.00055404      0.75126875     -0.00000000      0.00000000
 00aa000 000000     -0.00000000     -0.00000000      0.00000000     -0.00000000     -0.00000000     -0.00028844      0.31397684
 00a00a0 000000      0.00000000      0.00000000     -0.00000000      0.00000000      0.00000000     -0.00097351      0.71210350
 0000aa0 000000     -0.00000000     -0.00000000     -0.00000000     -0.00000000      0.00000000      0.00015996     -0.00000268
 0a000a0 000000      0.00000000     -0.00000000     -0.00000000     -0.00000000      0.00000000     -0.57098181     -0.00066010
 0a00a00 000000     -0.00000000      0.00000000     -0.00000000      0.00000000      0.00000000     -0.00057687      0.62795368
 0000000 aa0000     -0.00000000     -0.00000000      0.00000000      0.00000000     -0.00000000     -0.00000000     -0.00000000
 0000000 a0a000     -0.00000000     -0.00000000      0.00000000     -0.00000000     -0.00000000     -0.00000000      0.00000000
 0000000 0aa000      0.00000000      0.00000000      0.00000000      0.00000000     -0.00000000      0.00000000     -0.00000000
 0000000 a00a00      0.00000000      0.00021598      0.00000017      0.00000076      0.00108097     -0.00000000      0.00000000
 0000000 0a00a0     -0.00000019      0.00082816      0.00000008     -0.00000046     -0.00072753     -0.00000000      0.00000000
 0000000 00a00a      0.00000019     -0.00104414     -0.00000025     -0.00000030     -0.00035344      0.00000000     -0.00000000
 
 Energy:         -8131.96348806  -8131.96348806  -8131.96348806  -8131.96348806  -8131.96348806  -8131.90699284  -8131.90699284

 State:                   8               9              10              11              12              13              14
 a000a00 000000     -0.00000000      0.00000000     -0.00000000      0.00000000     -0.00000000     -0.00000000     -0.00000000
 a0a0000 000000     -0.00000000     -0.00000000     -0.00000000      0.00000000      0.00000000      0.00000000     -0.00000000
 aa00000 000000     -0.00000000     -0.00000000     -0.00000000      0.00000000     -0.00000000      0.00000000      0.00000000
 000a0a0 000000      0.99999084      0.00424556     -0.00047305      0.00004982      0.00026930     -0.00000000      0.00000000
 a00000a 000000      0.00000000      0.00000000      0.00000000     -0.00000000     -0.00000000      0.98229601      0.00000000
 000aa00 000000     -0.00375419      0.88262961     -0.00048579      0.14472878     -0.00205009      0.00000000     -0.00000019
 0a0a000 000000      0.00040070      0.00044146      0.87392871      0.00012579      0.00013482      0.00000000     -0.36824267
 0aa0000 000000      0.00149504     -0.36080259      0.00014752      0.81829714     -0.01445244      0.00000000     -0.00000019
 00a0a00 000000      0.00023431      0.00035643      0.40282600     -0.00027626      0.00026681     -0.00000000      0.36824265
 a0000a0 000000      0.00000000      0.00000000     -0.00000000      0.00000000      0.00000000      0.00000000      0.00000000
 a00a000 000000      0.00000000      0.00000000     -0.00000000      0.00000000      0.00000000     -0.00000000     -0.00000000
 00aa000 000000      0.00006801      0.00013405      0.00007195     -0.00552724     -0.31841463     -0.00000000     -0.00001858
 00a00a0 000000     -0.00022742     -0.00045927     -0.00012910      0.01228098      0.70196621     -0.00000000      0.00000000
 0000aa0 000000     -0.00130432      0.30127696     -0.00019530      0.55600328     -0.00952774     -0.00000000      0.00000032
 0a000a0 000000      0.00009607      0.00004909      0.27199129      0.00023212     -0.00007620     -0.00000000      0.63781500
 0a00a00 000000      0.00013602      0.00026810      0.00014390     -0.01105449     -0.63682929      0.00000000      0.00000929
 0000000 aa0000     -0.00000000     -0.00000000     -0.00000001      0.00000000     -0.00000000      0.00000000     -0.56733856
 0000000 a0a000     -0.00000000     -0.00000000     -0.00000000      0.00000000      0.00000001     -0.00000000     -0.00001431
 0000000 0aa000      0.00000000     -0.00000001      0.00000000      0.00000000     -0.00000000     -0.00000000      0.00000029
 0000000 a00a00      0.00000000      0.00000000     -0.00000000      0.00000000      0.00000000     -0.10815814      0.00000000
 0000000 0a00a0      0.00000000      0.00000000     -0.00000000      0.00000000      0.00000000     -0.10815814      0.00000000
 0000000 00a00a     -0.00000000     -0.00000000      0.00000000      0.00000000     -0.00000000     -0.10815814     -0.00000000
 
 Energy:         -8131.90699284  -8131.90699284  -8131.90699284  -8131.90699284  -8131.90699284  -8131.90568442  -8131.90291015

 State:                  15              16
 a000a00 000000      0.00000000     -0.00000000
 a0a0000 000000     -0.00000000     -0.00000000
 aa00000 000000      0.00000000     -0.00000000
 000a0a0 000000     -0.00000000     -0.00000000
 a00000a 000000      0.00000000      0.00000000
 000aa00 000000      0.00001512     -0.36824265
 0a0a000 000000     -0.00000929      0.00000019
 0aa0000 000000      0.00001512     -0.36824268
 00a0a00 000000      0.00000929     -0.00000019
 a0000a0 000000      0.00000000      0.00000000
 a00a000 000000     -0.00000000      0.00000000
 00aa000 000000      0.73648533      0.00003025
 00a00a0 000000     -0.00000001      0.00000000
 0000aa0 000000     -0.00002620      0.63781500
 0a000a0 000000      0.00001609     -0.00000032
 0a00a00 000000     -0.36824265     -0.00001512
 0000000 aa0000     -0.00001431      0.00000029
 0000000 a0a000      0.56733855      0.00002330
 0000000 0aa000     -0.00002330      0.56733854
 0000000 a00a00      0.00000000     -0.00000000
 0000000 0a00a0      0.00000000     -0.00000000
 0000000 00a00a     -0.00000000      0.00000000
 
 Energy:         -8131.90291015  -8131.90291015
 


 **********************************************************************************************************************************
 DATASETS  * FILE   NREC   LENGTH (MB)   RECORD NAMES
              1      24      163.55       500      610      700      900      950      970     1000      129      960     1700   
                                          VAR    BASINP    GEOM    SYMINP    ZMAT    AOBASIS   BASIS     P2S    ABASIS    OPER   
                                         1101     1401     1411     1412     1650     1100     1400     1410     1200     1210   
                                          SR      EKINR    POTR     PVPR    MOLCAS      S      EKIN      POT      H0       H01  
                                         1080     1600     1380     1700(1)
                                         AOSYM     SMH     JKOP     OPER   

              2       5        5.79       700     1000      520     2100     2140   
                                         GEOM     BASIS   MCVARS     RHF     MCSCF   

 PROGRAMS   *        TOTAL     MULTI   RHF-SCF       INT
 CPU TIMES  *        30.96     16.19      0.12     14.23
 REAL TIME  *        39.68 SEC
 DISK USED  *       169.43 MB (local),        4.22 GB (total)
 SF USED    *       335.06 MB
 GA USED    *         0.00 MB       (max)       0.00 MB       (current)
 **********************************************************************************************************************************

 Energies and &lt;L**2&gt; values

          ENERGY     LL
    -8132.019210   -0.0
    -8131.957014    6.0
    -8131.957014    6.0
    -8131.957014    6.0
    -8131.957014    6.0
    -8131.957014    6.0
    -8131.902626    6.0
    -8131.902626    6.0
    -8131.902626    6.0
    -8131.902626    6.0
    -8131.902626    6.0
    -8131.900719   -0.0
    -8131.963488    6.0
    -8131.963488    6.0
    -8131.963488    6.0
    -8131.963488    6.0
    -8131.963488    6.0
    -8131.906993   12.0
    -8131.906993   12.0
    -8131.906993   12.0
    -8131.906993   12.0
    -8131.906993   12.0
    -8131.906993   12.0
    -8131.906993   12.0
    -8131.905684   -0.0
    -8131.902910    2.0
    -8131.902910    2.0
    -8131.902910    2.0
                                                  


 PROGRAM * CI (Multireference internally contracted CI)     Authors: H.-J. Werner, P.J. Knowles, 1987


 Convergence thresholds:  THRVAR = 1.00D-08  THRDEN = 1.00D-06

 Number of optimized states: 12  Roots:   1   2   3   4   5   6   7   8   9  10  11  12
 Number of reference states: 12  Roots:   1   2   3   4   5   6   7   8   9  10  11  12

 Reference symmetry:                   1   Singlet 
 Number of electrons:                 56
 Maximum number of shells:             5
 Maximum number of spin couplings:    14

 Reference space:       49 conf       49 CSFs
 N elec internal:    78364 conf   221221 CSFs
 N-1 el internal:    20722 conf    70798 CSFs
 N-2 el internal:     2323 conf     8416 CSFs

 Number of electrons in valence space:                     20
 Maximum number of open shell orbitals in reference space:  2
 Maximum number of open shell orbitals in internal spaces:  8


 Number of core orbitals:          18 (   9   9 )
 Number of closed-shell orbitals:   9 (   6   3 )
 Number of active  orbitals:       13 (   7   6 )
 Number of external orbitals:     128 (  68  60 )

 Molecular orbitals read from record     2140.2  Type=MCSCF/NATURAL (state averaged)

 Integral transformation finished. Total CPU:   0.67 sec, npass=  1  Memory used:   4.19 MW


 Number of p-space configurations:  49

 Reference wavefunction optimized for reference space (refopt=1)

 State     Reference Energy 
     1     -8132.01920970
     2     -8131.95701428
     3     -8131.95701428
     4     -8131.95701428
     5     -8131.95701428
     6     -8131.95701428
     7     -8131.90262562
     8     -8131.90262562
     9     -8131.90262562
    10     -8131.90262562
    11     -8131.90262562
    12     -8131.90071887

 Number of blocks in overlap matrix:  1099   Smallest eigenvalue:  0.30D+00
 Number of N-2 electron functions:    1207
 Number of N-1 electron functions:   70798

 Number of internal configurations:               110803
 Number of singly external configurations:       4531088
 Number of doubly external configurations:       4952688
 Total number of contracted configurations:      9594579
 Total number of uncontracted configurations:   39092259

 Diagonal Coupling coefficients finished.               Storage:76303170 words, CPU-Time:    114.54 seconds.
 Energy denominators for pairs finished in 1 passes.    Storage: 2955570 words, CPU-time:      1.30 seconds.

  ITER. STATE  ROOT     SQ.NORM     CORR.ENERGY   TOTAL ENERGY   ENERGY CHANGE       DEN1      VAR(S)    VAR(P)      TIME
    1     1     1     1.00000000     0.00000000 -8132.01920970     0.00000000    -0.67764404  0.39D-01  0.76D-01   141.12
    1     2     2     1.00000000     0.00000000 -8131.95701428    -0.00000000    -0.69419864  0.50D-01  0.83D-01   141.12
    1     3     3     1.00000000     0.00000000 -8131.95701428    -0.00000000    -0.69428107  0.50D-01  0.83D-01   141.12
    1     4     4     1.00000000     0.00000000 -8131.95701428     0.00000000    -0.69433604  0.50D-01  0.83D-01   141.12
    1     5     5     1.00000000     0.00000000 -8131.95701428    -0.00000000    -0.69444402  0.50D-01  0.83D-01   141.12
    1     6     6     1.00000000     0.00000000 -8131.95701428    -0.00000000    -0.69422264  0.50D-01  0.83D-01   141.12
    1     7     7     1.00000000     0.00000000 -8131.90262562    -0.00000000    -0.70015830  0.45D-01  0.91D-01   141.12
    1     8     8     1.00000000     0.00000000 -8131.90262562     0.00000000    -0.70092207  0.45D-01  0.92D-01   141.12
    1     9     9     1.00000000     0.00000000 -8131.90262562     0.00000000    -0.70099778  0.45D-01  0.92D-01   141.12
    1    10    10     1.00000000     0.00000000 -8131.90262562     0.00000000    -0.70093758  0.45D-01  0.92D-01   141.12
    1    11    11     1.00000000     0.00000000 -8131.90262562    -0.00000000    -0.70024564  0.45D-01  0.91D-01   141.12
    1    12    12     1.00000000     0.00000000 -8131.90071887    -0.00000000    -0.67369896  0.38D-01  0.77D-01   141.12
    2     1     1     1.07748534    -0.57461609 -8132.59382579    -0.57461609    -0.00969885  0.15D-02  0.83D-03   640.25
    2     2     2     1.08698711    -0.57521325 -8132.53222753    -0.57521325    -0.01172817  0.25D-02  0.11D-02   640.25
    2     3     3     1.08701667    -0.57520009 -8132.53221437    -0.57520009    -0.01174382  0.25D-02  0.11D-02   640.25
    2     4     4     1.08706306    -0.57516676 -8132.53218104    -0.57516676    -0.01178841  0.26D-02  0.12D-02   640.25
    2     5     5     1.08707576    -0.57516373 -8132.53217801    -0.57516373    -0.01178966  0.26D-02  0.12D-02   640.25
    2     6     6     1.08711698    -0.57512894 -8132.53214322    -0.57512894    -0.01183186  0.26D-02  0.12D-02   640.25
    2     7     7     1.08796140    -0.57510529 -8132.47773091    -0.57510529    -0.01206251  0.26D-02  0.15D-02   640.25
    2     8     8     1.08814416    -0.57494134 -8132.47756697    -0.57494134    -0.01226260  0.27D-02  0.16D-02   640.25
    2     9     9     1.08832196    -0.57477420 -8132.47739982    -0.57477420    -0.01247903  0.28D-02  0.16D-02   640.25
[...]
 48  1     4    1  |1 1>-         0.00%    0.00%    0.00%    0.00%    0.00%    0.00%    0.00%    0.00%
 49  1     5    1  |1 1>-         0.00%    0.00%    0.00%    0.00%    0.00%    0.00%    0.00%    0.00%
 50  1     6    1  |1 1>-         0.00%    0.00%    0.00%    0.00%   38.21%    0.00%    0.00%    0.00%
 51  1     7    1  |1 1>-         0.00%   48.90%    0.00%    0.00%    0.00%    0.11%    0.00%    0.00%
 52  1     8    1  |1 1>-         2.05%    0.00%   48.14%    0.00%    0.00%    0.00%    5.32%    0.00%
 53  1     9    1  |1 1>-         0.00%    0.00%    0.00%   36.69%    0.00%    0.00%    0.00%    6.18%
 54  1    10    1  |1 1>-        45.88%    0.00%    1.84%    0.00%    0.00%    0.00%   23.28%    0.00%
 55  1    11    1  |1 1>-         0.00%    0.82%    0.00%    0.00%    0.00%   28.16%    0.00%    0.00%
 56  1    12    1  |1 1>-         0.00%    0.00%    0.00%    0.00%    0.02%    0.00%    0.00%    0.00%
 57  1    13    1  |1 1>-         0.00%    0.00%    0.00%    0.00%    0.00%    0.00%    0.00%    0.00%
 58  1    14    1  |1 1>-         0.00%    0.00%    0.00%    0.00%    0.00%    0.00%    0.00%    0.00%
 59  1    15    1  |1 1>-         0.00%    0.00%    0.00%    0.00%    0.00%    0.00%    0.00%    0.00%
 60  1    16    1  |1 1>-         0.00%    0.00%    0.00%    0.00%    0.00%    0.00%    0.00%    0.00%

   Total
 Nr Sym  State Sym Spin / Nr.     41       42       43       44       45       46       47       48

  1  1     1    1  |0 0>          0.00%    0.00%    0.00%    0.00%    0.00%    0.00%    0.00%    0.01%
  2  1     2    1  |0 0>          0.00%    0.00%    0.00%    0.00%    0.00%    0.00%    0.00%    0.00%
  3  1     3    1  |0 0>          0.00%    0.00%    0.00%    0.00%    0.00%    0.00%    0.00%    0.00%
  4  1     4    1  |0 0>          0.00%    0.00%    0.00%    0.00%    0.00%    0.00%    0.00%    0.00%
  5  1     5    1  |0 0>          0.00%    0.00%    0.00%    0.00%    0.00%    0.00%    0.00%    0.00%
  6  1     6    1  |0 0>          0.00%    0.00%    0.00%    0.00%    0.00%    0.00%    0.00%    0.00%
  7  1     7    1  |0 0>          0.00%    0.00%    0.00%    0.00%    0.00%    0.00%   81.76%    0.00%
  8  1     8    1  |0 0>          0.00%    0.00%    0.00%    0.00%   81.76%    0.00%    0.00%    0.00%
  9  1     9    1  |0 0>          0.00%    0.00%    0.00%    0.00%    0.00%   81.76%    0.00%    0.00%
 10  1    10    1  |0 0>          0.00%    0.00%   65.26%   16.48%    0.00%    0.00%    0.00%    0.00%
 11  1    11    1  |0 0>          0.00%    0.00%   16.48%   65.27%    0.00%    0.00%    0.00%    0.00%
 12  1    12    1  |0 0>          0.00%    0.00%    0.00%    0.00%    0.00%    0.00%    0.00%    1.55%
 13  1     1    1  |1 1>+         0.00%    0.00%    0.00%    0.00%    0.00%    0.00%    0.00%    0.00%
 14  1     2    1  |1 1>+         0.00%    0.00%    0.00%    0.00%    0.00%    0.00%    0.00%    0.00%
 15  1     3    1  |1 1>+         0.00%    0.00%    0.00%    0.00%    0.00%    0.00%    0.00%    0.00%
 16  1     4    1  |1 1>+         0.00%    0.00%    0.00%    0.00%    0.00%    0.00%    0.00%    0.00%
 17  1     5    1  |1 1>+         0.00%    0.00%    0.00%    0.00%    0.00%    0.00%    0.00%    0.00%
 18  1     6    1  |1 1>+         0.00%    0.00%    0.00%    0.00%    0.00%    0.24%    0.00%    0.00%
 19  1     7    1  |1 1>+         0.00%    0.00%    0.00%    0.00%    0.38%    0.00%    0.00%    0.00%
 20  1     8    1  |1 1>+         0.00%    0.05%    0.01%    0.31%    0.00%    0.00%    0.00%    0.00%
 21  1     9    1  |1 1>+         6.12%    0.00%    0.00%    0.00%    0.00%    0.00%    0.24%    0.00%
 22  1    10    1  |1 1>+         0.00%   21.29%    0.28%    0.06%    0.00%    0.00%    0.00%    0.00%
 23  1    11    1  |1 1>+         0.00%    0.00%    0.00%    0.00%    0.00%    0.00%    0.00%    0.00%
 24  1    12    1  |1 1>+         0.00%    0.00%    0.00%    0.00%    0.00%    0.14%    0.00%    0.00%
 25  1    13    1  |1 1>+         0.00%    0.00%    0.00%    0.00%    0.00%    8.63%    0.00%    0.00%
 26  1    14    1  |1 1>+         0.00%    0.00%    3.27%    8.24%    0.00%    0.00%    0.00%   32.81%
 27  1    15    1  |1 1>+         0.00%    0.00%    0.00%    0.00%    8.63%    0.00%    0.00%    0.00%
 28  1    16    1  |1 1>+         0.00%    0.00%    0.00%    0.00%    0.00%    0.00%    0.00%    0.00%
 29  1     1    1  |1 0>          0.00%    0.00%    0.00%    0.00%    0.00%    0.00%    0.00%    0.00%
 30  1     2    1  |1 0>          0.00%    0.00%    0.00%    0.00%    0.00%    0.00%    0.00%    0.00%
 31  1     3    1  |1 0>          0.00%    0.00%    0.00%    0.00%    0.00%    0.00%    0.00%    0.00%
 32  1     4    1  |1 0>          0.00%    0.00%    0.00%    0.00%    0.00%    0.00%    0.00%    0.00%
 33  1     5    1  |1 0>          0.00%    0.00%    0.00%    0.00%    0.00%    0.00%    0.00%    0.00%
 34  1     6    1  |1 0>          0.00%    0.00%    0.00%    0.23%    0.00%    0.00%    0.00%    0.00%
 35  1     7    1  |1 0>          2.32%    0.00%    0.00%    0.00%    0.00%    0.00%    0.01%    0.00%
 36  1     8    1  |1 0>          0.00%    0.00%    0.00%    0.00%    0.00%    0.01%    0.00%    0.00%
 37  1     9    1  |1 0>          0.00%    0.00%    0.00%    0.00%    0.24%    0.00%    0.00%    0.00%
 38  1    10    1  |1 0>          0.00%    0.00%    0.00%    0.00%    0.00%    0.36%    0.00%    0.00%
 39  1    11    1  |1 0>         51.23%    0.00%    0.00%    0.00%    0.00%    0.00%    0.36%    0.00%
 40  1    12    1  |1 0>          0.00%   56.63%    0.43%    0.00%    0.00%    0.00%    0.00%    0.00%
 41  1    13    1  |1 0>          0.00%    0.00%   11.50%    0.02%    0.00%    0.00%    0.00%   32.81%
 42  1    14    1  |1 0>          0.00%    0.00%    0.00%    0.00%    0.00%    8.63%    0.00%    0.00%
 43  1    15    1  |1 0>          0.00%    0.00%    0.00%    0.00%    0.00%    0.00%    8.63%    0.00%
 44  1    16    1  |1 0>          0.00%    0.00%    0.00%    0.00%    0.00%    0.00%    0.00%    0.00%
 45  1     1    1  |1 1>-         0.00%    0.00%    0.00%    0.00%    0.00%    0.00%    0.00%    0.00%
 46  1     2    1  |1 1>-         0.00%    0.00%    0.00%    0.00%    0.00%    0.00%    0.00%    0.00%
 47  1     3    1  |1 1>-         0.00%    0.00%    0.00%    0.00%    0.00%    0.00%    0.00%    0.00%
 48  1     4    1  |1 1>-         0.00%    0.00%    0.00%    0.00%    0.00%    0.00%    0.00%    0.00%
 49  1     5    1  |1 1>-         0.00%    0.00%    0.00%    0.00%    0.00%    0.00%    0.00%    0.00%
 50  1     6    1  |1 1>-         4.63%    0.00%    0.00%    0.00%    0.00%    0.00%    0.24%    0.00%
 51  1     7    1  |1 1>-         0.00%    0.05%    0.02%    0.30%    0.00%    0.00%    0.00%    0.00%
 52  1     8    1  |1 1>-         0.00%    0.00%    0.00%    0.00%    0.38%    0.00%    0.00%    0.00%
 53  1     9    1  |1 1>-         0.00%    0.00%    0.00%    0.00%    0.00%    0.24%    0.00%    0.00%
 54  1    10    1  |1 1>-         0.00%    0.00%    0.00%    0.00%    0.00%    0.00%    0.00%    0.00%
 55  1    11    1  |1 1>-         0.00%   21.97%    0.26%    0.08%    0.00%    0.00%    0.00%    0.00%
 56  1    12    1  |1 1>-        35.70%    0.00%    0.00%    0.00%    0.00%    0.00%    0.14%    0.00%
 57  1    13    1  |1 1>-         0.00%    0.00%    0.00%    0.00%    0.00%    0.00%    8.63%    0.00%
 58  1    14    1  |1 1>-         0.00%    0.00%    0.00%    0.00%    8.63%    0.00%    0.00%    0.00%
 59  1    15    1  |1 1>-         0.00%    0.00%    2.50%    9.00%    0.00%    0.00%    0.00%   32.81%
 60  1    16    1  |1 1>-         0.00%    0.00%    0.00%    0.00%    0.00%    0.00%    0.00%    0.00%

   Total
 Nr Sym  State Sym Spin / Nr.     49       50       51       52       53       54       55       56

  1  1     1    1  |0 0>          0.00%    0.00%    0.00%    0.00%    0.00%    0.00%    0.00%    0.00%
  2  1     2    1  |0 0>          0.00%    0.00%    0.00%    0.00%    0.00%    0.00%    0.00%    0.00%
  3  1     3    1  |0 0>          0.00%    0.00%    0.00%    0.00%    0.00%    0.00%    0.00%    0.00%
  4  1     4    1  |0 0>          0.00%    0.00%    0.00%    0.00%    0.00%    0.00%    0.00%    0.00%
  5  1     5    1  |0 0>          0.00%    0.00%    0.00%    0.00%    0.00%    0.00%    0.00%    0.00%
  6  1     6    1  |0 0>          0.00%    0.00%    0.00%    0.00%    0.00%    0.00%    0.00%    0.00%
  7  1     7    1  |0 0>          0.00%    0.00%    0.00%   17.18%    0.00%    0.00%    0.00%    0.00%
  8  1     8    1  |0 0>          0.00%    0.00%    0.00%    0.00%    0.00%   17.18%    0.00%    0.00%
  9  1     9    1  |0 0>          0.00%    0.00%    0.00%    0.00%   17.18%    0.00%    0.00%    0.00%
 10  1    10    1  |0 0>          0.00%    0.00%    0.00%    0.00%    0.00%    0.00%    3.02%   14.17%
 11  1    11    1  |0 0>          0.00%    0.00%    0.00%    0.00%    0.00%    0.00%   14.16%    3.02%
 12  1    12    1  |0 0>          0.00%    0.00%    0.00%    0.00%    0.00%    0.00%    0.00%    0.00%
 13  1     1    1  |1 1>+         0.00%    0.00%    0.00%    0.00%    0.00%    0.00%    0.00%    0.00%
 14  1     2    1  |1 1>+         0.00%    0.00%    0.00%    0.00%    0.00%    0.00%    0.00%    0.00%
 15  1     3    1  |1 1>+         0.00%    0.00%    0.00%    0.00%    0.00%    0.00%    0.00%    0.00%
 16  1     4    1  |1 1>+         0.00%    0.00%    0.00%    0.00%    0.00%    0.00%    0.00%    0.00%
 17  1     5    1  |1 1>+         0.00%    0.00%    0.00%    0.00%    0.00%    0.00%    0.00%    0.00%
 18  1     6    1  |1 1>+         0.00%    0.00%    0.00%    0.00%    0.02%    0.00%    0.00%    0.00%
 19  1     7    1  |1 1>+         0.00%    0.00%    0.00%    0.00%    0.00%    0.04%    0.00%    0.00%
 20  1     8    1  |1 1>+         0.00%    0.00%    0.00%    0.00%    0.00%    0.00%    0.03%    0.00%
 21  1     9    1  |1 1>+         0.00%    0.00%    0.00%    0.02%    0.00%    0.00%    0.00%    0.00%
 22  1    10    1  |1 1>+         0.00%    0.00%    0.00%    0.00%    0.00%    0.00%    0.01%    0.03%
 23  1    11    1  |1 1>+         0.00%    0.00%    0.00%    0.00%    0.00%    0.00%    0.00%    0.00%
 24  1    12    1  |1 1>+         0.00%    0.00%    0.00%    0.00%    0.01%    0.00%    0.00%    0.00%
 25  1    13    1  |1 1>+         0.00%   49.78%    0.00%    0.00%   41.36%    0.00%    0.00%    0.00%
 26  1    14    1  |1 1>+         0.00%    0.00%    0.00%    0.00%    0.00%    0.00%   41.10%   14.04%
 27  1    15    1  |1 1>+         0.00%    0.00%   49.78%    0.00%    0.00%   41.36%    0.00%    0.00%
 28  1    16    1  |1 1>+         0.44%    0.00%    0.00%    0.00%    0.00%    0.00%    0.00%    0.00%
 29  1     1    1  |1 0>          0.00%    0.00%    0.00%    0.00%    0.00%    0.00%    0.00%    0.00%
 30  1     2    1  |1 0>          0.00%    0.00%    0.00%    0.00%    0.00%    0.00%    0.00%    0.00%
 31  1     3    1  |1 0>          0.00%    0.00%    0.00%    0.00%    0.00%    0.00%    0.00%    0.00%
 32  1     4    1  |1 0>          0.00%    0.00%    0.00%    0.00%    0.00%    0.00%    0.00%    0.00%
 33  1     5    1  |1 0>          0.00%    0.00%    0.00%    0.00%    0.00%    0.00%    0.00%    0.00%
 34  1     6    1  |1 0>          0.00%    0.00%    0.00%    0.00%    0.00%    0.00%    0.02%    0.00%
 35  1     7    1  |1 0>          0.00%    0.00%    0.00%    0.00%    0.00%    0.00%    0.00%    0.00%
 36  1     8    1  |1 0>          0.00%    0.00%    0.00%    0.00%    0.00%    0.00%    0.00%    0.00%
 37  1     9    1  |1 0>          0.00%    0.00%    0.00%    0.00%    0.00%    0.02%    0.00%    0.00%
 38  1    10    1  |1 0>          0.00%    0.00%    0.00%    0.00%    0.03%    0.00%    0.00%    0.00%
 39  1    11    1  |1 0>          0.00%    0.00%    0.00%    0.03%    0.00%    0.00%    0.00%    0.00%
 40  1    12    1  |1 0>          0.00%    0.00%    0.00%    0.00%    0.00%    0.00%    0.00%    0.04%
 41  1    13    1  |1 0>          0.00%    0.00%    0.00%    0.00%    0.00%    0.00%    0.00%   55.14%
 42  1    14    1  |1 0>          0.00%   49.78%    0.00%    0.00%   41.36%    0.00%    0.00%    0.00%
 43  1    15    1  |1 0>         49.78%    0.00%    0.00%   41.36%    0.00%    0.00%    0.00%    0.00%
 44  1    16    1  |1 0>          0.00%    0.00%    0.44%    0.00%    0.00%    0.00%    0.00%    0.00%
 45  1     1    1  |1 1>-         0.00%    0.00%    0.00%    0.00%    0.00%    0.00%    0.00%    0.00%
 46  1     2    1  |1 1>-         0.00%    0.00%    0.00%    0.00%    0.00%    0.00%    0.00%    0.00%
 47  1     3    1  |1 1>-         0.00%    0.00%    0.00%    0.00%    0.00%    0.00%    0.00%    0.00%
 48  1     4    1  |1 1>-         0.00%    0.00%    0.00%    0.00%    0.00%    0.00%    0.00%    0.00%
 49  1     5    1  |1 1>-         0.00%    0.00%    0.00%    0.00%    0.00%    0.00%    0.00%    0.00%
 50  1     6    1  |1 1>-         0.00%    0.00%    0.00%    0.02%    0.00%    0.00%    0.00%    0.00%
 51  1     7    1  |1 1>-         0.00%    0.00%    0.00%    0.00%    0.00%    0.00%    0.03%    0.00%
 52  1     8    1  |1 1>-         0.00%    0.00%    0.00%    0.00%    0.00%    0.04%    0.00%    0.00%
 53  1     9    1  |1 1>-         0.00%    0.00%    0.00%    0.00%    0.02%    0.00%    0.00%    0.00%
 54  1    10    1  |1 1>-         0.00%    0.00%    0.00%    0.00%    0.00%    0.00%    0.00%    0.00%
 55  1    11    1  |1 1>-         0.00%    0.00%    0.00%    0.00%    0.00%    0.00%    0.01%    0.03%
 56  1    12    1  |1 1>-         0.00%    0.00%    0.00%    0.01%    0.00%    0.00%    0.00%    0.00%
 57  1    13    1  |1 1>-        49.78%    0.00%    0.00%   41.36%    0.00%    0.00%    0.00%    0.00%
 58  1    14    1  |1 1>-         0.00%    0.00%   49.78%    0.00%    0.00%   41.36%    0.00%    0.00%
 59  1    15    1  |1 1>-         0.00%    0.00%    0.00%    0.00%    0.00%    0.00%   41.61%   13.53%
 60  1    16    1  |1 1>-         0.00%    0.44%    0.00%    0.00%    0.00%    0.00%    0.00%    0.00%

   Total
 Nr Sym  State Sym Spin / Nr.     57       58       59       60

  1  1     1    1  |0 0>          0.00%    0.00%    0.00%    0.00%
  2  1     2    1  |0 0>          0.00%    0.00%    0.00%    0.00%
  3  1     3    1  |0 0>          0.00%    0.00%    0.00%    0.00%
  4  1     4    1  |0 0>          0.00%    0.00%    0.00%    0.00%
  5  1     5    1  |0 0>          0.00%    0.00%    0.00%    0.00%
  6  1     6    1  |0 0>          0.00%    0.00%    0.00%    0.00%
  7  1     7    1  |0 0>          0.00%    0.00%    0.00%    0.00%
  8  1     8    1  |0 0>          0.00%    0.00%    0.00%    0.00%
  9  1     9    1  |0 0>          0.00%    0.00%    0.00%    0.00%
 10  1    10    1  |0 0>          0.00%    0.00%    0.00%    0.00%
 11  1    11    1  |0 0>          0.00%    0.00%    0.00%    0.00%
 12  1    12    1  |0 0>          0.00%    0.00%    0.00%   98.45%
 13  1     1    1  |1 1>+         0.00%    0.00%    0.00%    0.00%
 14  1     2    1  |1 1>+         0.00%    0.00%    0.00%    0.00%
 15  1     3    1  |1 1>+         0.00%    0.00%    0.00%    0.00%
 16  1     4    1  |1 1>+         0.00%    0.00%    0.00%    0.00%
 17  1     5    1  |1 1>+         0.00%    0.00%    0.00%    0.00%
 18  1     6    1  |1 1>+         0.00%    0.00%    0.00%    0.00%
 19  1     7    1  |1 1>+         0.00%    0.00%    0.00%    0.00%
 20  1     8    1  |1 1>+         0.00%    0.00%    0.00%    0.00%
 21  1     9    1  |1 1>+         0.00%    0.00%    0.00%    0.00%
 22  1    10    1  |1 1>+         0.00%    0.00%    0.00%    0.00%
 23  1    11    1  |1 1>+         0.00%    0.00%    0.00%    0.00%
 24  1    12    1  |1 1>+         0.00%    0.00%    0.00%    0.00%
 25  1    13    1  |1 1>+         0.00%    0.00%    0.22%    0.00%
 26  1    14    1  |1 1>+         0.00%    0.00%    0.00%    0.52%
 27  1    15    1  |1 1>+         0.22%    0.00%    0.00%    0.00%
 28  1    16    1  |1 1>+         0.00%   99.56%    0.00%    0.00%
 29  1     1    1  |1 0>          0.00%    0.00%    0.00%    0.00%
 30  1     2    1  |1 0>          0.00%    0.00%    0.00%    0.00%
 31  1     3    1  |1 0>          0.00%    0.00%    0.00%    0.00%
 32  1     4    1  |1 0>          0.00%    0.00%    0.00%    0.00%
 33  1     5    1  |1 0>          0.00%    0.00%    0.00%    0.00%
 34  1     6    1  |1 0>          0.00%    0.00%    0.00%    0.00%
 35  1     7    1  |1 0>          0.00%    0.00%    0.00%    0.00%
 36  1     8    1  |1 0>          0.00%    0.00%    0.00%    0.00%
 37  1     9    1  |1 0>          0.00%    0.00%    0.00%    0.00%
 38  1    10    1  |1 0>          0.00%    0.00%    0.00%    0.00%
 39  1    11    1  |1 0>          0.00%    0.00%    0.00%    0.00%
 40  1    12    1  |1 0>          0.00%    0.00%    0.00%    0.00%
 41  1    13    1  |1 0>          0.00%    0.00%    0.00%    0.52%
 42  1    14    1  |1 0>          0.00%    0.00%    0.22%    0.00%
 43  1    15    1  |1 0>          0.00%    0.22%    0.00%    0.00%
 44  1    16    1  |1 0>         99.56%    0.00%    0.00%    0.00%
 45  1     1    1  |1 1>-         0.00%    0.00%    0.00%    0.00%
 46  1     2    1  |1 1>-         0.00%    0.00%    0.00%    0.00%
 47  1     3    1  |1 1>-         0.00%    0.00%    0.00%    0.00%
 48  1     4    1  |1 1>-         0.00%    0.00%    0.00%    0.00%
 49  1     5    1  |1 1>-         0.00%    0.00%    0.00%    0.00%
 50  1     6    1  |1 1>-         0.00%    0.00%    0.00%    0.00%
 51  1     7    1  |1 1>-         0.00%    0.00%    0.00%    0.00%
 52  1     8    1  |1 1>-         0.00%    0.00%    0.00%    0.00%
 53  1     9    1  |1 1>-         0.00%    0.00%    0.00%    0.00%
 54  1    10    1  |1 1>-         0.00%    0.00%    0.00%    0.00%
 55  1    11    1  |1 1>-         0.00%    0.00%    0.00%    0.00%
 56  1    12    1  |1 1>-         0.00%    0.00%    0.00%    0.00%
 57  1    13    1  |1 1>-         0.00%    0.22%    0.00%    0.00%
 58  1    14    1  |1 1>-         0.22%    0.00%    0.00%    0.00%
 59  1    15    1  |1 1>-         0.00%    0.00%    0.00%    0.52%
 60  1    16    1  |1 1>-         0.00%    0.00%   99.56%    0.00%



 **********************************************************************************************************************************
 DATASETS  * FILE   NREC   LENGTH (MB)   RECORD NAMES
              1      24      163.72       500      610      700      900      950      970     1000      129      960     1700   
                                          VAR    BASINP    GEOM    SYMINP    ZMAT    AOBASIS   BASIS     P2S    ABASIS    OPER   
                                         1101     1401     1411     1412     1650     1100     1400     1410     1200     1210   
                                          SR      EKINR    POTR     PVPR    MOLCAS      S      EKIN      POT      H0       H01  
                                         1080     1600     1380     1700(1)
                                         AOSYM     SMH     JKOP     OPER   

              2       7     3029.88       700     1000      520     2100     2140     5101     5103   
                                         GEOM     BASIS   MCVARS     RHF     MCSCF    MRCI     MRCI   

 PROGRAMS   *        TOTAL        CI     LSINT        CI        CI     MULTI   RHF-SCF       INT
 CPU TIMES  *    218379.30 172137.83    225.42  36340.98   9643.98     16.19      0.12     14.23
 REAL TIME  *    220084.79 SEC
 DISK USED  *         3.12 GB (local),       76.85 GB (total)
 SF USED    *        17.54 GB
 GA USED    *         0.00 MB       (max)       0.00 MB       (current)
 **********************************************************************************************************************************

 CI/aug-cc-pWCVQZ-X2C energy=  -8132.530544063629

              CI              CI           MULTI         RHF-SCF
  -8132.48490885  -8132.48188023  -8131.90699284  -8131.99704825
 **********************************************************************************************************************************
 Molpro calculation terminated
