
 Working directory              : /wrk/irikura/molpro.RvoDGSEoTL/
 Global scratch directory       : /wrk/irikura/molpro.RvoDGSEoTL/
 Wavefunction directory         : /home/irikura/wfu/
 Main file repository           : /wrk/irikura/molpro.RvoDGSEoTL/

 id        : nistki

 Nodes            nprocs
 pn125343.nist.gov   12
 GA implementation: MPI file
 GA implementation (serial work in mppx): MPI file

 Using customized tuning parameters: mindgm=1; mindgv=20; mindgc=4; mindgr=1; noblas=0; minvec=7
 default implementation of scratch files=sf  


 Variables initialized (1009), CPU time= 0.00 sec
 ***,Ba SO-CI
 memory,1000,M;
 
 gprint,orbitals,civector;
 gthresh,twoint=1.d-12
 
 symmetry,xyz
 geometry={Ba};
 
 basis=aug-cc-pwCVQZ-PP
 
 {rhf;wf,sym=1,spin=0}
 
                                                                                 ! start with fewer terms
 {multi
     closed,1,3
     occ,8,3
     wf,sym=1,spin=0;state,1;
     wf,sym=1,spin=2;state,15;
     expec2,lxx,lyy,lzz;
 }
 table, energy, ll
 title, Prep energies and &lt;L**2&gt; values
 
 NSING=12
 NTRIP=16
 
                                                                                 ! active space (2/10)
 {multi
     closed,1,3
     occ,8,6
     wf,sym=1,spin=0;state,NSING;
     wf,sym=1,spin=2;state,NTRIP;
     expec2,lxx,lyy,lzz;
 }
 table, energy, ll
 title, Energies and &lt;L**2&gt; values
 
 core,0,0
 
 {ci;wf,sym=1,spin=0;state,NSING; save,5101.2}
 hlsdiag = energd4
 {ci;wf,sym=1,spin=2;state,NTRIP; save,5103.2}
 hlsdiag(NSING+1) = energd4
 
 table,hlsdiag
 
 lsint
 {ci;hlsmat,ecp,5101.2,5103.2;print,vls=0,hls=0}                                 !compute and diagonalize SO matrix
 Commands initialized (810), CPU time= 0.01 sec, 661 directives.
 Default parameters read. Elapsed time= 0.08 sec

 Checking input...
 Passed
1


                                         ***  PROGRAM SYSTEM MOLPRO  ***
                                       Copyright, TTI GmbH Stuttgart, 2015
                                    Version 2021.2 linked Jun  2 2021 00:13:23


 **********************************************************************************************************************************
 LABEL *   Ba SO-CI                                                                      
  64 bit mpp version                                                                     DATE: 17-Apr-24          TIME: 16:01:59  
 **********************************************************************************************************************************

 SHA1:             1987c3f1b0c3ae76932bc24993909f2d7ae6b1f1
 **********************************************************************************************************************************

 Memory per process:      1000 MW
 Total memory per node:  12000 MW

 GA preallocation disabled
 GA check disabled

 Variable memory set to 1000.0 MW



 THRESHOLDS:

 ZERO    =  1.00D-12  ONEINT  =  1.00D-12  TWOINT  =  1.00D-12  PREFAC  =  1.00D-14  XXXXXX  =  1.00D-09  EORDER  =  1.00D-04
 ENERGY  =  0.00D+00  ETEST   =  0.00D+00  EDENS   =  0.00D+00  THRDEDEF=  1.00D-06  GRADIENT=  1.00D-05  STEP    =  1.00D-03
 ORBITAL =  1.00D-05  CIVEC   =  1.00D-05  COEFF   =  1.00D-04  PRINTCI =  5.00D-02  PUNCHCI =  9.90D+01  OPTGRAD =  3.00D-04
 OPTENERG=  1.00D-06  OPTSTEP =  3.00D-04  THRGRAD =  1.00D-10  COMPRESS=  1.00D-11  VARMIN  =  1.00D-07  VARMAX  =  1.00D-03
 THRDOUB =  0.00D+00  THRDIV  =  1.00D-05  THRRED  =  1.00D-07  THRPSP  =  1.00D+00  THRDC   =  1.00D-10  THRCS   =  1.00D-10
 THRNRM  =  1.00D-08  THREQ   =  0.00D+00  THRDE   =  1.00D+00  THRREF  =  1.00D-05  SPARFAC =  1.00D+00  THRDLP  =  1.00D-07
 THRDIA  =  1.00D-10  THRDLS  =  1.00D-07  THRGPS  =  0.00D+00  THRKEX  =  0.00D+00  THRDIS  =  2.00D-01  THRVAR  =  1.00D-10
 THRLOC  =  1.00D-06  THRGAP  =  1.00D-06  THRLOCT = -1.00D+00  THRGAPT = -1.00D+00  THRORB  =  1.00D-06  THRMLTP =  0.00D+00
 THRCPQCI=  1.00D-10  KEXTA   =  0.00D+00  THRCOARS=  0.00D+00  SYMTOL  =  1.00D-06  GRADTOL =  1.00D-06  THROVL  =  1.00D-08
 THRORTH =  1.00D-08  THRDLOVL= -1.00D+00  GRID    =  1.00D-06  GRIDMAX =  1.00D-03  DTMAX   =  0.00D+00  THROCCDE=  1.00D-01
 THROCCDE=  1.00D-01  THRPRINT=  2.50D-01

 ZSYMEL=XYZ

 SETTING BASIS          =    AUG-CC-PWCVQZ-PP


 Recomputing integrals since basis changed


 Using spherical harmonics

 Library entry Ba   ECP ECP46MDF                 selected for group  1
 Library entry BA     S aug-cc-pwCVQZ-PP     selected for orbital group  1
 Library entry BA     P aug-cc-pwCVQZ-PP     selected for orbital group  1
 Library entry BA     D aug-cc-pwCVQZ-PP     selected for orbital group  1
 Library entry BA     F aug-cc-pwCVQZ-PP     selected for orbital group  1
 Library entry BA     G aug-cc-pwCVQZ-PP     selected for orbital group  1


 PROGRAM * SEWARD (Integral evaluation for generally contracted gaussian basis sets)     Author: Roland Lindh, 1990

 Geometry written to block  1 of record 700

 Orientation using atomic masses  
 Molecule type: Atom
 User-specified symmetry elements: XYZ
 Symmetry elements: XYZ
 Rotational constants:       0.0000000      0.0000000      0.0000000 GHz  (calculated with average atomic masses)

 Point group  Ci  



 ATOMIC COORDINATES

 NR  ATOM    CHARGE       X              Y              Z

   1  BA     10.00    0.000000000    0.000000000    0.000000000

 NUCLEAR CHARGE:                   10
 NUMBER OF PRIMITIVE AOS:         268
 NUMBER OF SYMMETRY AOS:          210
 NUMBER OF CONTRACTIONS:          146   (   77Ag  +   69Au  )
 NUMBER OF INNER CORE ORBITALS:     0   (    0Ag  +    0Au  )
 NUMBER OF OUTER CORE ORBITALS:     4   (    1Ag  +    3Au  )
 NUMBER OF VALENCE ORBITALS:        1   (    1Ag  +    0Au  )


 LX: Ag           LY: Ag           LZ: Ag 


 NUCLEAR REPULSION ENERGY    0.00000000

 EXTRA SYMMETRY OF AOS IN SYMMETRY 1:   1 1 1 1 1 1 1 1 1 1   2 3 4 5 6 2 3 4 5 6   2 3 4 5 6 2 3 4 5 6   2 3 4 5 6 2 3 4 5 6
                                        2 3 4 5 6 2 3 4 5 6   7 8 9101112131415 7   8 9101112131415 7 8   9101112131415
 EXTRA SYMMETRY OF AOS IN SYMMETRY 2:   1 2 3 1 2 3 1 2 3 1   2 3 1 2 3 1 2 3 1 2   3 1 2 3 1 2 3 4 5 6   7 8 910 4 5 6 7 8 9
                                       10 4 5 6 7 8 910 4 5   6 7 8 910 4 5 6 7 8   910 4 5 6 7 8 910


 Eigenvalues of metric

         1 0.825E-05 0.527E-04 0.527E-04 0.527E-04 0.527E-04 0.527E-04 0.169E-03 0.185E-02
         2 0.515E-04 0.515E-04 0.515E-04 0.328E-02 0.328E-02 0.328E-02 0.741E-02 0.741E-02


 Contracted 2-electron integrals neglected if value below      1.0D-12
 AO integral compression algorithm  1   Integral accuracy      1.0D-12

     72.090 MB (compressed) written to integral file ( 15.8%)

     Node minimum: 3.408 MB, node maximum: 8.389 MB


 NUMBER OF SORTED TWO-ELECTRON INTEGRALS:    2430921.     BUFFER LENGTH:  32768
 NUMBER OF SEGMENTS:   1  SEGMENT LENGTH:    2430921      RECORD LENGTH: 524288

 Memory used in sort:       2.99 MW

 SORT1 READ    56868420. AND WROTE      454064. INTEGRALS IN      2 RECORDS. CPU TIME:     0.28 SEC, REAL TIME:     0.29 SEC
 SORT2 READ     5623101. AND WROTE    29184561. INTEGRALS IN    312 RECORDS. CPU TIME:     0.04 SEC, REAL TIME:     0.06 SEC

 Node minimum:     2427313.  Node maximum:     2441289. integrals

 OPERATOR DM      FOR CENTER  0  COORDINATES:    0.000000    0.000000    0.000000


 **********************************************************************************************************************************
 DATASETS  * FILE   NREC   LENGTH (MB)   RECORD NAMES
              1      19       29.14       500      610      700      900      950      970     1000      129      960     1100   
                                          VAR    BASINP    GEOM    SYMINP    ZMAT    AOBASIS   BASIS     P2S    ABASIS      S 
                                         1400     1410     1420     1200     1210     1080     1700     1600     1650   
                                           T        V       ECP      H0       H01     AOSYM    OPER      SMH    MOLCAS    

 PROGRAMS   *        TOTAL       INT
 CPU TIMES  *         1.42      1.23
 REAL TIME  *         2.01 SEC
 DISK USED  *        29.44 MB (local),      486.51 MB (total)
 GA USED    *         0.00 MB       (max)       0.00 MB       (current)
 **********************************************************************************************************************************


 Program * Restricted Hartree-Fock

 Orbital guess generated from atomic densities. Full valence occupancy:    2   3

 Initial occupancy:   2   3

 NELEC=   10   SYM=1   MS2= 0   THRE=1.0D-08   THRD=3.2D-06   THRG=3.2D-06  HFMA2=F  DIIS_START=2   DIIS_MAX=10   DIIS_INCORE=F

 Level shifts:    0.00 (CLOSED)    0.00 (OPEN)    0.30 (GAP_MIN)

 ITER           ETOT              DE          GRAD        DDIFF     DIIS  NEXP   TIME(IT)  TIME(TOT)  DIAG
   1      -25.09501583     -25.09501583     0.00D+00     0.61D-01     0     0       0.03      0.04    start
   2      -25.09501583      -0.00000000     0.33D-06     0.12D-04     1     0       0.01      0.05    diag
   3      -25.09501583      -0.00000000     0.73D-07     0.28D-05     2     0       0.02      0.07    diag
   4      -25.09501583      -0.00000000     0.37D-07     0.82D-06     0     0       0.01      0.08    diag

 Final occupancy:   2   3

 !RHF STATE 1.1 Energy                -25.095015830786
  RHF One-electron energy             -41.272197745096
  RHF Two-electron energy              16.177181914310
  RHF Kinetic energy                    6.695431520635
  RHF Nuclear energy                    0.000000000000
  RHF Virial quotient                  -3.748080426697

 !RHF STATE 1.1 Dipole moment           0.00000000     0.00000000     0.00000000
 Dipole moment /Debye                   0.00000000     0.00000000     0.00000000

 ELECTRON ORBITALS
 =================

  Orbital  Occupation    Energy    Cen Mu Typ  Coefficients
    1.1     2.00000    -1.60487     1  1  s    0.99978
    2.1     2.00000    -0.16318     1  2  s    1.00202
    1.2     2.00000    -0.89696     1  1  pz   1.00050
    2.2     2.00000    -0.89696     1  1  px   1.00050
    3.2     2.00000    -0.89696     1  1  py   1.00050


 HOMO      2.1    -0.163179 =      -4.4403eV
 LUMO      4.2     0.006937 =       0.1888eV
 LUMO-HOMO         0.170116 =       4.6291eV

 Orbitals saved in record  2100.2


 **********************************************************************************************************************************
 DATASETS  * FILE   NREC   LENGTH (MB)   RECORD NAMES
              1      19       29.14       500      610      700      900      950      970     1000      129      960     1100   
                                          VAR    BASINP    GEOM    SYMINP    ZMAT    AOBASIS   BASIS     P2S    ABASIS      S 
                                         1400     1410     1420     1200     1210     1080     1700     1600     1650   
                                           T        V       ECP      H0       H01     AOSYM    OPER      SMH    MOLCAS    

              2       4        2.80       700     1000      520     2100   
                                         GEOM     BASIS   MCVARS     RHF  

 PROGRAMS   *        TOTAL   RHF-SCF       INT
 CPU TIMES  *         1.52      0.10      1.23
 REAL TIME  *         2.14 SEC
 DISK USED  *        32.46 MB (local),      522.79 MB (total)
 GA USED    *         0.00 MB       (max)       0.00 MB       (current)
 **********************************************************************************************************************************

 PROGRAM * MULTI (Direct Multiconfiguration SCF)       Authors: P.J. Knowles, H.-J. Werner (1984)
                                                                D.A. Kreplin, P.J. Knowles, H.-J. Werner (2019)

 Number of closed-shell orbitals:   4 (   1   3 )
 Number of active  orbitals:        7 (   7   0 )
 Number of external orbitals:     135 (  69  66 )

 State symmetry 1

 Number of active electrons:   2    Spin symmetry=Singlet   Space symmetry=1
 Number of states:             1
 Number of CSFs:              28   (49 determinants, 49 intermediate states)

 State symmetry 2

 Number of active electrons:   2    Spin symmetry=Triplet   Space symmetry=1
 Number of states:            15
 Number of CSFs:              21   (21 determinants, 21 intermediate states)

 Molecular orbitals read from record     2100.2  Type=RHF/CANONICAL  
 *** IN SYMMETRY 1 ORBITAL  4 SYMMETRY CONTAMINATION OF 0.591D+00 HAS BEEN REMOVED
 *** IN SYMMETRY 1 ORBITAL  5 SYMMETRY CONTAMINATION OF 0.634D+00 HAS BEEN REMOVED
 *** IN SYMMETRY 1 ORBITAL  6 SYMMETRY CONTAMINATION OF 0.571D+00 HAS BEEN REMOVED
 *** IN SYMMETRY 1 ORBITAL  7 SYMMETRY CONTAMINATION OF 0.606D+00 HAS BEEN REMOVED

 EXTRA SYMMETRY OF MOS IN SYMMETRY 1:   1 1 1 4 6 3 5 2 3 5   4 6 2 1 5 3 6 4 2 1  13101514 812 711 9 2   6 4 5 3 1 2 6 4 5 3
                                        812 7 91114151310 1   4 6 3 5 213101415 9  11 7 812 4 6 3 5 2 1   4 6 3 5 2 1 1
 *** IN SYMMETRY 2 ORBITAL  1 SYMMETRY CONTAMINATION OF 0.188D-02 HAS BEEN REMOVED
 *** IN SYMMETRY 2 ORBITAL  3 SYMMETRY CONTAMINATION OF 0.188D-02 HAS BEEN REMOVED
 EXTRA SYMMETRY OF MOS IN SYMMETRY 2:   3 1 2 3 1 2 1 2 3 3   1 2 6 9 7 4 5 810 1   2 3 4 5 7 910 8 6 1   2 3 9 7 810 4 5 6 1
                                        2 3 5 410 8 6 9 7 8  10 6 5 4 9 7 1 2 3 4   5 610 8 9 7 1 2 3

 Wavefunction dump at record             2140.2

 Convergence thresholds  0.10E-04 (gradient)  0.10E-05 (energy)

 Weight factors for state symmetry  1:    0.06250
 Weight factors for state symmetry  2:    0.06250   0.06250   0.06250   0.06250   0.06250   0.06250   0.06250   0.06250
                                          0.06250   0.06250   0.06250   0.06250   0.06250   0.06250   0.06250
 
 Number of orbital rotations:  757  ( 7 closed/active, 267 closed/virtual, 0 active/active, 483 active/virtual )
 Total number of variables:    1121
 
  Second-order MCSCF: L-BFGS accelerated
 
 ITER  MIC  NCI  NEG     ENERGY(VAR)    ENERGY(PROJ) ENERGY CHANGE       GRAD(0)  GRAD(ORB)   GRAD(CI)      STEP      TIME
   1   12   22    5    -24.90420515     -25.04352267   -0.13931751    0.05839273 0.00029714 0.00000000  0.21E+01      0.53
   2    7   12    0    -25.01776700     -25.02476407   -0.00699707    0.07790947 0.00000875 0.00000000  0.44E+00      0.97
   3    8   14    0    -25.02481472     -25.02481826   -0.00000354    0.00134515 0.00000045 0.00000000  0.83E-02      1.44
   4    5   10    0    -25.02481826     -25.02481826   -0.00000000    0.00000197 0.00000000 0.00000000  0.17E-04      1.79

 CONVERGENCE REACHED!  Final gradient:    0.00000000 ( 0.69E-11)
                       Final energy:    -25.02481826
 
 Results for state 1.1 Singlet
 =============================
 !MCSCF STATE 1.1 Singlet Energy               -25.101298492080
 Nuclear energy                                  0.00000000
 Kinetic energy                                  6.62020344
 One electron energy                           -41.24996156
 Two electron energy                            16.14866307
 Virial ratio                                    4.79162041
 
 !MCSCF STATE 1.1 Singlet Dipole moment          0.00000000     0.00000000     0.00000000
 Dipole moment /Debye                            0.00000000     0.00000000     0.00000000
 
 Results for state 1.1 Triplet
 =============================
 !MCSCF STATE 1.1 Triplet Energy               -25.061337069362
 Nuclear energy                                  0.00000000
 Kinetic energy                                  6.80640263
 One electron energy                           -41.50980667
 Two electron energy                            16.44846961
 Virial ratio                                    4.68202389
 
 !MCSCF STATE 1.1 Triplet Dipole moment          0.00000000     0.00000000     0.00000000
 Dipole moment /Debye                            0.00000000     0.00000000     0.00000000
 
 Results for state 2.1 Triplet
 =============================
 !MCSCF STATE 2.1 Triplet Energy               -25.061337069362
 Nuclear energy                                  0.00000000
 Kinetic energy                                  6.80640263
 One electron energy                           -41.50980667
 Two electron energy                            16.44846961
 Virial ratio                                    4.68202389
 
 !MCSCF STATE 2.1 Triplet Dipole moment          0.00000000     0.00000000     0.00000000
 Dipole moment /Debye                            0.00000000     0.00000000     0.00000000
 
 Results for state 3.1 Triplet
 =============================
 !MCSCF STATE 3.1 Triplet Energy               -25.061337069362
 Nuclear energy                                  0.00000000
 Kinetic energy                                  6.80640263
 One electron energy                           -41.50980667
 Two electron energy                            16.44846961
 Virial ratio                                    4.68202389
 
 !MCSCF STATE 3.1 Triplet Dipole moment          0.00000000     0.00000000     0.00000000
 Dipole moment /Debye                            0.00000000     0.00000000     0.00000000
 
 Results for state 4.1 Triplet
 =============================
 !MCSCF STATE 4.1 Triplet Energy               -25.061337069362
 Nuclear energy                                  0.00000000
 Kinetic energy                                  6.80640263
 One electron energy                           -41.50980667
 Two electron energy                            16.44846961
 Virial ratio                                    4.68202389
 
 !MCSCF STATE 4.1 Triplet Dipole moment          0.00000000     0.00000000     0.00000000
 Dipole moment /Debye                            0.00000000     0.00000000     0.00000000
 
 Results for state 5.1 Triplet
 =============================
 !MCSCF STATE 5.1 Triplet Energy               -25.061337069362
 Nuclear energy                                  0.00000000
 Kinetic energy                                  6.80640263
 One electron energy                           -41.50980667
 Two electron energy                            16.44846961
 Virial ratio                                    4.68202389
 
 !MCSCF STATE 5.1 Triplet Dipole moment          0.00000000     0.00000000     0.00000000
 Dipole moment /Debye                            0.00000000     0.00000000     0.00000000
 
 Results for state 6.1 Triplet
 =============================
 !MCSCF STATE 6.1 Triplet Energy               -25.005097128294
 Nuclear energy                                  0.00000000
 Kinetic energy                                  7.05209748
 One electron energy                           -41.91454139
 Two electron energy                            16.90944426
 Virial ratio                                    4.54576737
 
 !MCSCF STATE 6.1 Triplet Dipole moment          0.00000000     0.00000000     0.00000000
 Dipole moment /Debye                            0.00000000     0.00000000     0.00000000
 
 Results for state 7.1 Triplet
 =============================
 !MCSCF STATE 7.1 Triplet Energy               -25.005097128294
 Nuclear energy                                  0.00000000
 Kinetic energy                                  7.05209748
 One electron energy                           -41.91454139
 Two electron energy                            16.90944426
 Virial ratio                                    4.54576737
 
 !MCSCF STATE 7.1 Triplet Dipole moment          0.00000000     0.00000000     0.00000000
 Dipole moment /Debye                            0.00000000     0.00000000     0.00000000
 
 Results for state 8.1 Triplet
 =============================
 !MCSCF STATE 8.1 Triplet Energy               -25.005097128293
 Nuclear energy                                  0.00000000
 Kinetic energy                                  7.05209748
 One electron energy                           -41.91454139
 Two electron energy                            16.90944426
 Virial ratio                                    4.54576737
 
 !MCSCF STATE 8.1 Triplet Dipole moment          0.00000000     0.00000000     0.00000000
 Dipole moment /Debye                            0.00000000     0.00000000     0.00000000
 
 Results for state 9.1 Triplet
 =============================
 !MCSCF STATE 9.1 Triplet Energy               -25.005097128293
 Nuclear energy                                  0.00000000
 Kinetic energy                                  7.05209748
 One electron energy                           -41.91454139
 Two electron energy                            16.90944426
 Virial ratio                                    4.54576737
 
 !MCSCF STATE 9.1 Triplet Dipole moment          0.00000000     0.00000000     0.00000000
 Dipole moment /Debye                            0.00000000     0.00000000     0.00000000
 
 Results for state 10.1 Triplet
 ==============================
 !MCSCF STATE 10.1 Triplet Energy              -25.005097128293
 Nuclear energy                                  0.00000000
 Kinetic energy                                  7.05209748
 One electron energy                           -41.91454139
 Two electron energy                            16.90944426
 Virial ratio                                    4.54576737
 
 !MCSCF STATE 10.1 Triplet Dipole moment         0.00000000     0.00000000     0.00000000
 Dipole moment /Debye                            0.00000000     0.00000000     0.00000000
 
 Results for state 11.1 Triplet
 ==============================
 !MCSCF STATE 11.1 Triplet Energy              -25.005097128293
 Nuclear energy                                  0.00000000
 Kinetic energy                                  7.05209748
 One electron energy                           -41.91454139
 Two electron energy                            16.90944426
 Virial ratio                                    4.54576737
 
 !MCSCF STATE 11.1 Triplet Dipole moment         0.00000000     0.00000000     0.00000000
 Dipole moment /Debye                            0.00000000     0.00000000     0.00000000
 
 Results for state 12.1 Triplet
 ==============================
 !MCSCF STATE 12.1 Triplet Energy              -25.005097128293
 Nuclear energy                                  0.00000000
 Kinetic energy                                  7.05209748
 One electron energy                           -41.91454139
 Two electron energy                            16.90944426
 Virial ratio                                    4.54576737
 
 !MCSCF STATE 12.1 Triplet Dipole moment         0.00000000     0.00000000     0.00000000
 Dipole moment /Debye                            0.00000000     0.00000000     0.00000000
 
 Results for state 13.1 Triplet
 ==============================
 !MCSCF STATE 13.1 Triplet Energy              -24.984476160247
 Nuclear energy                                  0.00000000
 Kinetic energy                                  7.05209748
 One electron energy                           -41.91454139
 Two electron energy                            16.93006523
 Virial ratio                                    4.54284328
 
 !MCSCF STATE 13.1 Triplet Dipole moment         0.00000000     0.00000000     0.00000000
 Dipole moment /Debye                            0.00000000     0.00000000     0.00000000
 
 Results for state 14.1 Triplet
 ==============================
 !MCSCF STATE 14.1 Triplet Energy              -24.984476160247
 Nuclear energy                                  0.00000000
 Kinetic energy                                  7.05209748
 One electron energy                           -41.91454139
 Two electron energy                            16.93006523
 Virial ratio                                    4.54284328
 
 !MCSCF STATE 14.1 Triplet Dipole moment         0.00000000     0.00000000     0.00000000
 Dipole moment /Debye                            0.00000000     0.00000000     0.00000000
 
 Results for state 15.1 Triplet
 ==============================
 !MCSCF STATE 15.1 Triplet Energy              -24.984476160246
 Nuclear energy                                  0.00000000
 Kinetic energy                                  7.05209748
 One electron energy                           -41.91454139
 Two electron energy                            16.93006523
 Virial ratio                                    4.54284328
 
 !MCSCF STATE 15.1 Triplet Dipole moment         0.00000000     0.00000000     0.00000000
 Dipole moment /Debye                            0.00000000     0.00000000     0.00000000
 
 State-averaged charge density matrix saved on record 2140.2 (density set 1)
 
 No non-zero expectation values
 
 Expectation values for two-electron operators:
 
 !MCSCF expec      <1.1 Singlet|LXLX|1.1 Singlet>    -0.000000000000
 !MCSCF expec      <1.1 Triplet|LXLX|1.1 Triplet>     0.999922572686
 !MCSCF expec      <2.1 Triplet|LXLX|2.1 Triplet>     1.006180374210
 !MCSCF expec      <3.1 Triplet|LXLX|3.1 Triplet>     2.993897053122
 !MCSCF expec      <4.1 Triplet|LXLX|4.1 Triplet>     1.000000000000
 !MCSCF expec      <5.1 Triplet|LXLX|5.1 Triplet>     3.999999999981
 !MCSCF expec      <6.1 Triplet|LXLX|6.1 Triplet>     3.999401219044
 !MCSCF expec      <7.1 Triplet|LXLX|7.1 Triplet>     3.999998900207
 !MCSCF expec      <8.1 Triplet|LXLX|8.1 Triplet>     2.548311713152
 !MCSCF expec      <9.1 Triplet|LXLX|9.1 Triplet>     0.774187688155
 !MCSCF expec    <10.1 Triplet|LXLX|10.1 Triplet>     6.000598487026
 !MCSCF expec    <11.1 Triplet|LXLX|11.1 Triplet>     7.451689386642
 !MCSCF expec    <12.1 Triplet|LXLX|12.1 Triplet>     3.225812605775
 !MCSCF expec    <13.1 Triplet|LXLX|13.1 Triplet>     0.000000001783
 !MCSCF expec    <14.1 Triplet|LXLX|14.1 Triplet>     1.000000000000
 !MCSCF expec    <15.1 Triplet|LXLX|15.1 Triplet>     0.999999998217
 
 !MCSCF expec      <1.1 Singlet|LYLY|1.1 Singlet>    -0.000000000000
 !MCSCF expec      <1.1 Triplet|LYLY|1.1 Triplet>     1.000085899094
 !MCSCF expec      <2.1 Triplet|LYLY|2.1 Triplet>     0.993832335338
 !MCSCF expec      <3.1 Triplet|LYLY|3.1 Triplet>     3.006081765568
 !MCSCF expec      <4.1 Triplet|LYLY|4.1 Triplet>     4.000000000000
 !MCSCF expec      <5.1 Triplet|LYLY|5.1 Triplet>     1.000000000000
 !MCSCF expec      <6.1 Triplet|LYLY|6.1 Triplet>     4.000597972406
 !MCSCF expec      <7.1 Triplet|LYLY|7.1 Triplet>     3.999998238217
 !MCSCF expec      <8.1 Triplet|LYLY|8.1 Triplet>     0.776357307949
 !MCSCF expec      <9.1 Triplet|LYLY|9.1 Triplet>     2.552649060449
 !MCSCF expec    <10.1 Triplet|LYLY|10.1 Triplet>     5.999399817157
 !MCSCF expec    <11.1 Triplet|LYLY|11.1 Triplet>     3.223644453834
 !MCSCF expec    <12.1 Triplet|LYLY|12.1 Triplet>     7.447353149989
 !MCSCF expec    <13.1 Triplet|LYLY|13.1 Triplet>     1.000000000000
 !MCSCF expec    <14.1 Triplet|LYLY|14.1 Triplet>    -0.000000000000
 !MCSCF expec    <15.1 Triplet|LYLY|15.1 Triplet>     1.000000000000
 
 !MCSCF expec      <1.1 Singlet|LZLZ|1.1 Singlet>    -0.000000000000
 !MCSCF expec      <1.1 Triplet|LZLZ|1.1 Triplet>     3.999991528220
 !MCSCF expec      <2.1 Triplet|LZLZ|2.1 Triplet>     3.999987290452
 !MCSCF expec      <3.1 Triplet|LZLZ|3.1 Triplet>     0.000021181310
 !MCSCF expec      <4.1 Triplet|LZLZ|4.1 Triplet>     1.000000000000
 !MCSCF expec      <5.1 Triplet|LZLZ|5.1 Triplet>     1.000000000019
 !MCSCF expec      <6.1 Triplet|LZLZ|6.1 Triplet>     4.000000808550
 !MCSCF expec      <7.1 Triplet|LZLZ|7.1 Triplet>     4.000002861577
 !MCSCF expec      <8.1 Triplet|LZLZ|8.1 Triplet>     8.675330978899
 !MCSCF expec      <9.1 Triplet|LZLZ|9.1 Triplet>     8.673163251397
 !MCSCF expec    <10.1 Triplet|LZLZ|10.1 Triplet>     0.000001695818
 !MCSCF expec    <11.1 Triplet|LZLZ|11.1 Triplet>     1.324666159524
 !MCSCF expec    <12.1 Triplet|LZLZ|12.1 Triplet>     1.326834244236
 !MCSCF expec    <13.1 Triplet|LZLZ|13.1 Triplet>     0.999999998217
 !MCSCF expec    <14.1 Triplet|LZLZ|14.1 Triplet>     1.000000000000
 !MCSCF expec    <15.1 Triplet|LZLZ|15.1 Triplet>     0.000000001783
 
 !MCSCF expec      <1.1 Singlet|L**2|1.1 Singlet>    -0.000000000000
 !MCSCF expec      <1.1 Triplet|L**2|1.1 Triplet>     6.000000000000
 !MCSCF expec      <2.1 Triplet|L**2|2.1 Triplet>     6.000000000000
 !MCSCF expec      <3.1 Triplet|L**2|3.1 Triplet>     6.000000000000
 !MCSCF expec      <4.1 Triplet|L**2|4.1 Triplet>     6.000000000000
 !MCSCF expec      <5.1 Triplet|L**2|5.1 Triplet>     6.000000000000
 !MCSCF expec      <6.1 Triplet|L**2|6.1 Triplet>    12.000000000000
 !MCSCF expec      <7.1 Triplet|L**2|7.1 Triplet>    12.000000000000
 !MCSCF expec      <8.1 Triplet|L**2|8.1 Triplet>    12.000000000000
 !MCSCF expec      <9.1 Triplet|L**2|9.1 Triplet>    12.000000000000
 !MCSCF expec    <10.1 Triplet|L**2|10.1 Triplet>    12.000000000000
 !MCSCF expec    <11.1 Triplet|L**2|11.1 Triplet>    12.000000000000
 !MCSCF expec    <12.1 Triplet|L**2|12.1 Triplet>    12.000000000000
 !MCSCF expec    <13.1 Triplet|L**2|13.1 Triplet>     2.000000000000
 !MCSCF expec    <14.1 Triplet|L**2|14.1 Triplet>     2.000000000000
 !MCSCF expec    <15.1 Triplet|L**2|15.1 Triplet>     2.000000000000
 
  NATURAL ORBITALS (STATE AVERAGED)
  =================================

  Orbital  Occupation    Energy    Cen Mu Typ  Coefficients
    1.1     2.00000    -1.52888     1  1  s    1.04699
    2.1     0.43189    -0.01817     1  2  s    0.79212
    3.1     0.31353     0.06709     1  1  d2-  0.84866
    4.1     0.31353     0.06709     1  1  d2+  0.84866
    5.1     0.31353     0.06709     1  1  d1+  0.84866
    6.1     0.31353     0.06709     1  1  d1-  0.84866
    7.1     0.31353     0.06709     1  1  d0   0.84866
    8.1     0.00045     0.20604     1  1  s    2.01230    1  2  s    7.70271    1  3  s    1.90965    1  5  s   -7.00980
                                    1  6  s   -1.97429    1  9  s    0.38220
    1.2     2.00000    -0.83296     1  1  pz   1.02715
    2.2     2.00000    -0.83296     1  1  py   1.02715
    3.2     2.00000    -0.83296     1  1  px   1.02715
 *** IN SYMMETRY  1 ORBITAL  11 SYMMETRY CONTAMINATION OF 0.632D-02 HAS BEEN REMOVED
 *** IN SYMMETRY  1 ORBITAL  12 SYMMETRY CONTAMINATION OF 0.584D+00 HAS BEEN REMOVED
 *** IN SYMMETRY  1 ORBITAL  13 SYMMETRY CONTAMINATION OF 0.584D+00 HAS BEEN REMOVED
 *** IN SYMMETRY  1 ORBITAL  14 SYMMETRY CONTAMINATION OF 0.460D-04 HAS BEEN REMOVED
 *** IN SYMMETRY  1 ORBITAL  16 SYMMETRY CONTAMINATION OF 0.500D-02 HAS BEEN REMOVED
 *** IN SYMMETRY  1 ORBITAL  17 SYMMETRY CONTAMINATION OF 0.562D+00 HAS BEEN REMOVED
 *** IN SYMMETRY  1 ORBITAL  18 SYMMETRY CONTAMINATION OF 0.562D+00 HAS BEEN REMOVED
 *** IN SYMMETRY  1 ORBITAL  19 SYMMETRY CONTAMINATION OF 0.794D-03 HAS BEEN REMOVED
 *** IN SYMMETRY  1 ORBITAL  21 SYMMETRY CONTAMINATION OF 0.593D+00 HAS BEEN REMOVED
 *** IN SYMMETRY  1 ORBITAL  22 SYMMETRY CONTAMINATION OF 0.593D+00 HAS BEEN REMOVED
 *** IN SYMMETRY  1 ORBITAL  23 SYMMETRY CONTAMINATION OF 0.868D-01 HAS BEEN REMOVED
 *** IN SYMMETRY  1 ORBITAL  24 SYMMETRY CONTAMINATION OF 0.113D+00 HAS BEEN REMOVED
 *** IN SYMMETRY  1 ORBITAL  25 SYMMETRY CONTAMINATION OF 0.757D-01 HAS BEEN REMOVED
 *** IN SYMMETRY  1 ORBITAL  26 SYMMETRY CONTAMINATION OF 0.219D-01 HAS BEEN REMOVED
 *** IN SYMMETRY  1 ORBITAL  27 SYMMETRY CONTAMINATION OF 0.402D-03 HAS BEEN REMOVED
 *** IN SYMMETRY  1 ORBITAL  28 SYMMETRY CONTAMINATION OF 0.314D+00 HAS BEEN REMOVED
 *** IN SYMMETRY  1 ORBITAL  29 SYMMETRY CONTAMINATION OF 0.314D+00 HAS BEEN REMOVED
 *** IN SYMMETRY  1 ORBITAL  30 SYMMETRY CONTAMINATION OF 0.287D-02 HAS BEEN REMOVED
 *** IN SYMMETRY  1 ORBITAL  32 SYMMETRY CONTAMINATION OF 0.410D+00 HAS BEEN REMOVED
 *** IN SYMMETRY  1 ORBITAL  33 SYMMETRY CONTAMINATION OF 0.410D+00 HAS BEEN REMOVED
 *** IN SYMMETRY  1 ORBITAL  34 SYMMETRY CONTAMINATION OF 0.140D-03 HAS BEEN REMOVED
 *** IN SYMMETRY  1 ORBITAL  36 SYMMETRY CONTAMINATION OF 0.865D-02 HAS BEEN REMOVED
 *** IN SYMMETRY  1 ORBITAL  37 SYMMETRY CONTAMINATION OF 0.878D-02 HAS BEEN REMOVED
 *** IN SYMMETRY  1 ORBITAL  38 SYMMETRY CONTAMINATION OF 0.163D-02 HAS BEEN REMOVED
 *** IN SYMMETRY  1 ORBITAL  41 SYMMETRY CONTAMINATION OF 0.234D-01 HAS BEEN REMOVED
 *** IN SYMMETRY  1 ORBITAL  42 SYMMETRY CONTAMINATION OF 0.234D-01 HAS BEEN REMOVED
 *** IN SYMMETRY  1 ORBITAL  43 SYMMETRY CONTAMINATION OF 0.148D+00 HAS BEEN REMOVED
 *** IN SYMMETRY  1 ORBITAL  44 SYMMETRY CONTAMINATION OF 0.202D+00 HAS BEEN REMOVED
 *** IN SYMMETRY  1 ORBITAL  45 SYMMETRY CONTAMINATION OF 0.185D+00 HAS BEEN REMOVED
 *** IN SYMMETRY  1 ORBITAL  46 SYMMETRY CONTAMINATION OF 0.485D+00 HAS BEEN REMOVED
 *** IN SYMMETRY  1 ORBITAL  47 SYMMETRY CONTAMINATION OF 0.485D+00 HAS BEEN REMOVED
 *** IN SYMMETRY  1 ORBITAL  48 SYMMETRY CONTAMINATION OF 0.421D+00 HAS BEEN REMOVED
 *** IN SYMMETRY  1 ORBITAL  49 SYMMETRY CONTAMINATION OF 0.421D+00 HAS BEEN REMOVED
 *** IN SYMMETRY  1 ORBITAL  51 SYMMETRY CONTAMINATION OF 0.122D-02 HAS BEEN REMOVED
 *** IN SYMMETRY  1 ORBITAL  52 SYMMETRY CONTAMINATION OF 0.122D-02 HAS BEEN REMOVED
 *** IN SYMMETRY  1 ORBITAL  53 SYMMETRY CONTAMINATION OF 0.344D-04 HAS BEEN REMOVED
 *** IN SYMMETRY  1 ORBITAL  56 SYMMETRY CONTAMINATION OF 0.807D-01 HAS BEEN REMOVED
 *** IN SYMMETRY  1 ORBITAL  57 SYMMETRY CONTAMINATION OF 0.807D-01 HAS BEEN REMOVED
 *** IN SYMMETRY  1 ORBITAL  58 SYMMETRY CONTAMINATION OF 0.578D+00 HAS BEEN REMOVED
 *** IN SYMMETRY  1 ORBITAL  59 SYMMETRY CONTAMINATION OF 0.577D+00 HAS BEEN REMOVED
 *** IN SYMMETRY  1 ORBITAL  60 SYMMETRY CONTAMINATION OF 0.873D-01 HAS BEEN REMOVED
 *** IN SYMMETRY  1 ORBITAL  61 SYMMETRY CONTAMINATION OF 0.571D-02 HAS BEEN REMOVED
 *** IN SYMMETRY  1 ORBITAL  62 SYMMETRY CONTAMINATION OF 0.292D-01 HAS BEEN REMOVED
 *** IN SYMMETRY  1 ORBITAL  63 SYMMETRY CONTAMINATION OF 0.287D-01 HAS BEEN REMOVED
 *** IN SYMMETRY  1 ORBITAL  64 SYMMETRY CONTAMINATION OF 0.129D-01 HAS BEEN REMOVED
 *** IN SYMMETRY  1 ORBITAL  65 SYMMETRY CONTAMINATION OF 0.267D-04 HAS BEEN REMOVED
 *** IN SYMMETRY  1 ORBITAL  67 SYMMETRY CONTAMINATION OF 0.165D-03 HAS BEEN REMOVED
 *** IN SYMMETRY  1 ORBITAL  68 SYMMETRY CONTAMINATION OF 0.165D-03 HAS BEEN REMOVED
 *** IN SYMMETRY  1 ORBITAL  71 SYMMETRY CONTAMINATION OF 0.363D-04 HAS BEEN REMOVED
 *** IN SYMMETRY  1 ORBITAL  73 SYMMETRY CONTAMINATION OF 0.136D-01 HAS BEEN REMOVED
 *** IN SYMMETRY  1 ORBITAL  74 SYMMETRY CONTAMINATION OF 0.136D-01 HAS BEEN REMOVED

 EXTRA SYMMETRY OF MOS IN SYMMETRY 1:   1 1 3 5 4 6 2 1 1 3   5 6 4 2 3 5 6 4 2 1  15141310 812 7 911 5   3 4 6 2 1 4 6 5 3 2
                                        911 7 81214151310 1   4 6 5 3 211 91310 8  121514 7 5 3 4 6 2 1   5 3 4 6 2 1 1
 *** IN SYMMETRY  2 ORBITAL   5 SYMMETRY CONTAMINATION OF 0.320D+00 HAS BEEN REMOVED
 *** IN SYMMETRY  2 ORBITAL   6 SYMMETRY CONTAMINATION OF 0.320D+00 HAS BEEN REMOVED
 *** IN SYMMETRY  2 ORBITAL   8 SYMMETRY CONTAMINATION OF 0.138D+00 HAS BEEN REMOVED
 *** IN SYMMETRY  2 ORBITAL   9 SYMMETRY CONTAMINATION OF 0.138D+00 HAS BEEN REMOVED
 *** IN SYMMETRY  2 ORBITAL  10 SYMMETRY CONTAMINATION OF 0.989D-01 HAS BEEN REMOVED
 *** IN SYMMETRY  2 ORBITAL  11 SYMMETRY CONTAMINATION OF 0.989D-01 HAS BEEN REMOVED
 *** IN SYMMETRY  2 ORBITAL  13 SYMMETRY CONTAMINATION OF 0.736D-03 HAS BEEN REMOVED
 *** IN SYMMETRY  2 ORBITAL  14 SYMMETRY CONTAMINATION OF 0.528D+00 HAS BEEN REMOVED
 *** IN SYMMETRY  2 ORBITAL  15 SYMMETRY CONTAMINATION OF 0.528D+00 HAS BEEN REMOVED
 *** IN SYMMETRY  2 ORBITAL  16 SYMMETRY CONTAMINATION OF 0.475D+00 HAS BEEN REMOVED
 *** IN SYMMETRY  2 ORBITAL  17 SYMMETRY CONTAMINATION OF 0.475D+00 HAS BEEN REMOVED
 *** IN SYMMETRY  2 ORBITAL  18 SYMMETRY CONTAMINATION OF 0.183D+00 HAS BEEN REMOVED
 *** IN SYMMETRY  2 ORBITAL  19 SYMMETRY CONTAMINATION OF 0.183D+00 HAS BEEN REMOVED
 *** IN SYMMETRY  2 ORBITAL  20 SYMMETRY CONTAMINATION OF 0.885D-01 HAS BEEN REMOVED
 *** IN SYMMETRY  2 ORBITAL  21 SYMMETRY CONTAMINATION OF 0.885D-01 HAS BEEN REMOVED
 *** IN SYMMETRY  2 ORBITAL  23 SYMMETRY CONTAMINATION OF 0.112D-01 HAS BEEN REMOVED
 *** IN SYMMETRY  2 ORBITAL  24 SYMMETRY CONTAMINATION OF 0.113D-01 HAS BEEN REMOVED
 *** IN SYMMETRY  2 ORBITAL  25 SYMMETRY CONTAMINATION OF 0.514D+00 HAS BEEN REMOVED
 *** IN SYMMETRY  2 ORBITAL  26 SYMMETRY CONTAMINATION OF 0.514D+00 HAS BEEN REMOVED
 *** IN SYMMETRY  2 ORBITAL  27 SYMMETRY CONTAMINATION OF 0.172D+00 HAS BEEN REMOVED
 *** IN SYMMETRY  2 ORBITAL  28 SYMMETRY CONTAMINATION OF 0.172D+00 HAS BEEN REMOVED
 *** IN SYMMETRY  2 ORBITAL  29 SYMMETRY CONTAMINATION OF 0.190D-02 HAS BEEN REMOVED
 *** IN SYMMETRY  2 ORBITAL  30 SYMMETRY CONTAMINATION OF 0.364D-03 HAS BEEN REMOVED
 *** IN SYMMETRY  2 ORBITAL  31 SYMMETRY CONTAMINATION OF 0.364D-03 HAS BEEN REMOVED
 *** IN SYMMETRY  2 ORBITAL  33 SYMMETRY CONTAMINATION OF 0.534D+00 HAS BEEN REMOVED
 *** IN SYMMETRY  2 ORBITAL  34 SYMMETRY CONTAMINATION OF 0.534D+00 HAS BEEN REMOVED
 *** IN SYMMETRY  2 ORBITAL  35 SYMMETRY CONTAMINATION OF 0.138D-01 HAS BEEN REMOVED
 *** IN SYMMETRY  2 ORBITAL  36 SYMMETRY CONTAMINATION OF 0.137D-01 HAS BEEN REMOVED
 *** IN SYMMETRY  2 ORBITAL  37 SYMMETRY CONTAMINATION OF 0.250D-02 HAS BEEN REMOVED
 *** IN SYMMETRY  2 ORBITAL  38 SYMMETRY CONTAMINATION OF 0.178D+00 HAS BEEN REMOVED
 *** IN SYMMETRY  2 ORBITAL  39 SYMMETRY CONTAMINATION OF 0.178D+00 HAS BEEN REMOVED
 *** IN SYMMETRY  2 ORBITAL  40 SYMMETRY CONTAMINATION OF 0.178D-02 HAS BEEN REMOVED
 *** IN SYMMETRY  2 ORBITAL  41 SYMMETRY CONTAMINATION OF 0.178D-02 HAS BEEN REMOVED
 *** IN SYMMETRY  2 ORBITAL  43 SYMMETRY CONTAMINATION OF 0.131D-01 HAS BEEN REMOVED
 *** IN SYMMETRY  2 ORBITAL  44 SYMMETRY CONTAMINATION OF 0.129D-01 HAS BEEN REMOVED
 *** IN SYMMETRY  2 ORBITAL  45 SYMMETRY CONTAMINATION OF 0.241D-01 HAS BEEN REMOVED
 *** IN SYMMETRY  2 ORBITAL  46 SYMMETRY CONTAMINATION OF 0.241D-01 HAS BEEN REMOVED
 *** IN SYMMETRY  2 ORBITAL  47 SYMMETRY CONTAMINATION OF 0.345D-03 HAS BEEN REMOVED
 *** IN SYMMETRY  2 ORBITAL  48 SYMMETRY CONTAMINATION OF 0.142D+00 HAS BEEN REMOVED
 *** IN SYMMETRY  2 ORBITAL  49 SYMMETRY CONTAMINATION OF 0.142D+00 HAS BEEN REMOVED
 *** IN SYMMETRY  2 ORBITAL  50 SYMMETRY CONTAMINATION OF 0.572D-02 HAS BEEN REMOVED
 *** IN SYMMETRY  2 ORBITAL  51 SYMMETRY CONTAMINATION OF 0.571D-02 HAS BEEN REMOVED
 *** IN SYMMETRY  2 ORBITAL  52 SYMMETRY CONTAMINATION OF 0.175D-03 HAS BEEN REMOVED
 *** IN SYMMETRY  2 ORBITAL  53 SYMMETRY CONTAMINATION OF 0.112D+00 HAS BEEN REMOVED
 *** IN SYMMETRY  2 ORBITAL  54 SYMMETRY CONTAMINATION OF 0.112D+00 HAS BEEN REMOVED
 *** IN SYMMETRY  2 ORBITAL  55 SYMMETRY CONTAMINATION OF 0.159D+00 HAS BEEN REMOVED
 *** IN SYMMETRY  2 ORBITAL  56 SYMMETRY CONTAMINATION OF 0.159D+00 HAS BEEN REMOVED
 *** IN SYMMETRY  2 ORBITAL  57 SYMMETRY CONTAMINATION OF 0.284D-02 HAS BEEN REMOVED
 *** IN SYMMETRY  2 ORBITAL  58 SYMMETRY CONTAMINATION OF 0.284D-02 HAS BEEN REMOVED
 *** IN SYMMETRY  2 ORBITAL  60 SYMMETRY CONTAMINATION OF 0.370D-02 HAS BEEN REMOVED
 *** IN SYMMETRY  2 ORBITAL  61 SYMMETRY CONTAMINATION OF 0.371D-02 HAS BEEN REMOVED
 *** IN SYMMETRY  2 ORBITAL  62 SYMMETRY CONTAMINATION OF 0.531D-02 HAS BEEN REMOVED
 *** IN SYMMETRY  2 ORBITAL  63 SYMMETRY CONTAMINATION OF 0.299D-02 HAS BEEN REMOVED
 *** IN SYMMETRY  2 ORBITAL  64 SYMMETRY CONTAMINATION OF 0.438D-02 HAS BEEN REMOVED
 *** IN SYMMETRY  2 ORBITAL  65 SYMMETRY CONTAMINATION OF 0.294D+00 HAS BEEN REMOVED
 *** IN SYMMETRY  2 ORBITAL  66 SYMMETRY CONTAMINATION OF 0.294D+00 HAS BEEN REMOVED
 *** IN SYMMETRY  2 ORBITAL  67 SYMMETRY CONTAMINATION OF 0.349D+00 HAS BEEN REMOVED
 *** IN SYMMETRY  2 ORBITAL  68 SYMMETRY CONTAMINATION OF 0.349D+00 HAS BEEN REMOVED
 EXTRA SYMMETRY OF MOS IN SYMMETRY 2:   3 2 1 3 1 2 3 1 2 1   2 3 6 5 4 7 9 810 1   2 3 4 5 7 9 810 6 1   2 3 7 9 4 5 6 810 1
                                        2 3 4 5 810 6 9 7 4   5 6 9 7 810 1 2 310   8 4 5 6 9 7 1 2 3
 
 Natural orbital dump (state averaged) at molpro section 2140.2 (Orbital set 2)
 
 Reoptimze the CI vectors with natural orbitals 
 
 CI Coefficients of symmetry 1 (Singlet)
 =======================================
 
 2000000        0.97688596
 0200000       -0.09094390
 0020000       -0.09094390
 0002000       -0.09094390
 0000200       -0.09094390
 0000020       -0.09094390
 
 Energy:      -25.10129849
 
 
 CI Coefficients of symmetry 1 (Triplet)
 =======================================

 State:              1               2               3               4               5               6               7
 00a00a0        0.00000000      0.00000000      0.00000000      0.00000000     -0.00000000     -0.00000000      1.00000000
 0a000a0        0.00000000      0.00000000     -0.00000000      0.00000000     -0.00000000      1.00000000     -0.00000000
 aa00000        0.99991742     -0.00000000     -0.00000000     -0.00000000      0.00000000     -0.00000000     -0.00000000
 a0a0000        0.00000000      0.99991742     -0.00000000     -0.00000125      0.00000000     -0.00000000     -0.00000000
 a0000a0       -0.00000000     -0.00000000      0.99991737     -0.00030799      0.00000106      0.00000000     -0.00000000
 a000a00        0.00000000     -0.00000000     -0.00000094      0.00039422      0.99991734      0.00000000      0.00000000
 a00a000        0.00000000      0.00000125      0.00030799      0.99991729     -0.00039422     -0.00000000     -0.00000000
 0aa0000       -0.00000000      0.00000000      0.00000000     -0.00000000     -0.00000000     -0.00000326     -0.00000000
 000aa00       -0.00000000     -0.00000000      0.00000000     -0.00000000      0.00000000     -0.00000653     -0.00000000
 0a0a000        0.00000000      0.00000000      0.00000000     -0.00000000     -0.00000000     -0.00000000     -0.00000001
 0a00a00        0.00000000      0.00000000     -0.00000000     -0.00000000     -0.00000000     -0.00000000      0.00000000
 0000aa0        0.00000000      0.00000000      0.00000000      0.00000000      0.00000000     -0.00000000      0.00000000
 000a0a0        0.00000000      0.00000000      0.00000000      0.00000000     -0.00000000     -0.00000000      0.00000014
 00a0a00        0.00000000     -0.00000000     -0.00000000      0.00000000      0.00000000      0.00000000      0.00000000
 00aa000        0.00000000      0.00000000     -0.00000000     -0.00000000      0.00000000     -0.00000000     -0.00000025
 
 Energy:      -25.06133707    -25.06133707    -25.06133707    -25.06133707    -25.06133707    -25.00509713    -25.00509713

 State:              8               9              10              11              12              13              14
 00a00a0        0.00000000     -0.00000013      0.00000000      0.00000026     -0.00000000      0.00000000     -0.00000000
 0a000a0       -0.00000000      0.00000000      0.00000730      0.00000000     -0.00000000      0.00000000      0.00000000
 aa00000        0.00000000      0.00000000      0.00000000     -0.00000000      0.00000000     -0.00000000     -0.00000000
 a0a0000        0.00000000      0.00000000      0.00000000     -0.00000000     -0.00000000     -0.00000000     -0.00000000
 a0000a0       -0.00000000      0.00000000     -0.00000000      0.00000000      0.00000000      0.00000000     -0.00000000
 a000a00        0.00000000     -0.00000000      0.00000000      0.00000000     -0.00000000     -0.00000000     -0.00000000
 a00a000        0.00000000      0.00000000      0.00000000      0.00000000      0.00000000     -0.00000000      0.00000000
 0aa0000        0.00000000      0.00000000      0.44721360      0.00000000      0.00000000      0.00000000      0.00000000
 000aa00        0.00000000      0.00000000      0.89442719      0.00000000      0.00000000      0.00000000      0.00000000
 0a0a000        0.80311369     -0.00956226     -0.00000000      0.00140533     -0.39359242      0.00002415      0.44721359
 0a00a00        0.00956637      0.80306255     -0.00000000      0.39369661      0.00141534      0.44721359     -0.00002415
 0000aa0       -0.12774792      0.00150808     -0.00000000     -0.00219886      0.61941372      0.00004182      0.77459667
 000a0a0       -0.00151456     -0.12766746      0.00000000     -0.61943029     -0.00220045      0.77459667     -0.00004182
 00a0a00        0.58184780     -0.00695018      0.00000000     -0.00240320      0.67926362     -0.00002415     -0.44721359
 00aa000       -0.00694308     -0.58193603     -0.00000000      0.67918813      0.00239595      0.44721359     -0.00002415
 
 Energy:      -25.00509713    -25.00509713    -25.00509713    -25.00509713    -25.00509713    -24.98447616    -24.98447616

 State:             15
 00a00a0        0.00000000
 0a000a0       -0.00000000
 aa00000        0.00000000
 a0a0000       -0.00000000
 a0000a0       -0.00000000
 a000a00        0.00000000
 a00a000       -0.00000000
 0aa0000        0.89442719
 000aa00       -0.44721360
 0a0a000       -0.00000000
 0a00a00       -0.00000000
 0000aa0       -0.00000000
 000a0a0       -0.00000000
 00a0a00        0.00000000
 00aa000       -0.00000000
 
 Energy:      -24.98447616
 


 **********************************************************************************************************************************
 DATASETS  * FILE   NREC   LENGTH (MB)   RECORD NAMES
              1      21       37.76       500      610      700      900      950      970     1000      129      960     1100   
                                          VAR    BASINP    GEOM    SYMINP    ZMAT    AOBASIS   BASIS     P2S    ABASIS      S 
                                         1400     1410     1420     1200     1210     1080     1700     1600     1650     1380   
                                           T        V       ECP      H0       H01     AOSYM    OPER      SMH    MOLCAS    JKOP   
                                         1700(1)
                                         OPER   

              2       5        5.59       700     1000      520     2100     2140   
                                         GEOM     BASIS   MCVARS     RHF     MCSCF   

 PROGRAMS   *        TOTAL     MULTI   RHF-SCF       INT
 CPU TIMES  *         3.10      1.58      0.10      1.23
 REAL TIME  *         4.22 SEC
 DISK USED  *        43.41 MB (local),      654.16 MB (total)
 SF USED    *        25.32 MB
 GA USED    *         0.00 MB       (max)       0.00 MB       (current)
 **********************************************************************************************************************************

 Prep energies and &lt;L**2&gt; values

        ENERGY       LL
    -25.10129849   -0.0
    -25.06133707    6.0
    -25.06133707    6.0
    -25.06133707    6.0
    -25.06133707    6.0
    -25.06133707    6.0
    -25.00509713   12.0
    -25.00509713   12.0
    -25.00509713   12.0
    -25.00509713   12.0
    -25.00509713   12.0
    -25.00509713   12.0
    -25.00509713   12.0
    -24.98447616    2.0
    -24.98447616    2.0
    -24.98447616    2.0
                                                  
 SETTING NSING          =        12.00000000                                  
 SETTING NTRIP          =        16.00000000                                  

 PROGRAM * MULTI (Direct Multiconfiguration SCF)       Authors: P.J. Knowles, H.-J. Werner (1984)
                                                                D.A. Kreplin, P.J. Knowles, H.-J. Werner (2019)

 Number of closed-shell orbitals:   4 (   1   3 )
 Number of active  orbitals:       10 (   7   3 )
 Number of external orbitals:     132 (  69  63 )

 State symmetry 1

 Number of active electrons:   2    Spin symmetry=Singlet   Space symmetry=1
 Number of states:            12
 Number of CSFs:              34   (58 determinants, 100 intermediate states)

 State symmetry 2

 Number of active electrons:   2    Spin symmetry=Triplet   Space symmetry=1
 Number of states:            16
 Number of CSFs:              24   (24 determinants, 45 intermediate states)

 Molecular orbitals read from record     2140.2  Type=MCSCF/NATURAL (state averaged)

 EXTRA SYMMETRY OF MOS IN SYMMETRY 1:   1 1 3 5 4 6 2 1 1 3   5 6 4 2 3 5 6 4 2 1  15141310 812 7 911 5   3 4 6 2 1 4 6 5 3 2
                                        911 7 81214151310 1   4 6 5 3 211 91310 8  121514 7 5 3 4 6 2 1   5 3 4 6 2 1 1
 EXTRA SYMMETRY OF MOS IN SYMMETRY 2:   3 2 1 3 1 2 3 1 2 1   2 3 6 5 4 7 9 810 1   2 3 4 5 7 9 810 6 1   2 3 7 9 4 5 6 810 1
                                        2 3 4 5 810 6 9 7 4   5 6 9 7 810 1 2 310   8 4 5 6 9 7 1 2 3

 Wavefunction dump at record             2141.2

 Convergence thresholds  0.10E-04 (gradient)  0.10E-05 (energy)

 Weight factors for state symmetry  1:    0.03571   0.03571   0.03571   0.03571   0.03571   0.03571   0.03571   0.03571
                                          0.03571   0.03571   0.03571   0.03571
 Weight factors for state symmetry  2:    0.03571   0.03571   0.03571   0.03571   0.03571   0.03571   0.03571   0.03571
                                          0.03571   0.03571   0.03571   0.03571   0.03571   0.03571   0.03571   0.03571
 
 Number of orbital rotations:  946  ( 16 closed/active, 258 closed/virtual, 0 active/active, 672 active/virtual )
 Total number of variables:    2026
 
  Second-order MCSCF: L-BFGS accelerated
 
 ITER  MIC  NCI  NEG     ENERGY(VAR)    ENERGY(PROJ) ENERGY CHANGE       GRAD(0)  GRAD(ORB)   GRAD(CI)      STEP      TIME
   1   12   22   10    -25.01473171     -25.02658342   -0.01185171    0.00498715 0.00001582 0.00000000  0.16E+01      0.73
   2    9   16    0    -25.02475644     -25.02559567   -0.00083923    0.00501211 0.00000122 0.00000000  0.31E+00      1.41
   3    5   10    0    -25.02559794     -25.02559801   -0.00000007    0.00002569 0.00000001 0.00000000  0.29E-02      1.88
   4    2    4    0    -25.02559801     -25.02559801    0.00000000    0.00000000 0.00000000 0.00000000  0.17E-06      2.17

 CONVERGENCE REACHED!  Final gradient:    0.00000000 ( 0.86E-10)
                       Final energy:    -25.02559801
 
 Results for state 1.1 Singlet
 =============================
 !MCSCF STATE 1.1 Singlet Energy               -25.115993391416
 Nuclear energy                                  0.00000000
 Kinetic energy                                  6.62050619
 One electron energy                           -41.16125136
 Two electron energy                            16.04525797
 Virial ratio                                    4.79366663
 
 !MCSCF STATE 1.1 Singlet Dipole moment          0.00000000     0.00000000     0.00000000
 Dipole moment /Debye                            0.00000000     0.00000000     0.00000000
 
 Results for state 2.1 Singlet
 =============================
 !MCSCF STATE 2.1 Singlet Energy               -25.054238491341
 Nuclear energy                                  0.00000000
 Kinetic energy                                  6.81671796
 One electron energy                           -41.41069466
 Two electron energy                            16.35645617
 Virial ratio                                    4.67541075
 
 !MCSCF STATE 2.1 Singlet Dipole moment          0.00000000     0.00000000     0.00000000
 Dipole moment /Debye                            0.00000000     0.00000000     0.00000000
 
 Results for state 3.1 Singlet
 =============================
 !MCSCF STATE 3.1 Singlet Energy               -25.054238491340
 Nuclear energy                                  0.00000000
 Kinetic energy                                  6.81671796
 One electron energy                           -41.41069466
 Two electron energy                            16.35645617
 Virial ratio                                    4.67541075
 
 !MCSCF STATE 3.1 Singlet Dipole moment          0.00000000     0.00000000     0.00000000
 Dipole moment /Debye                            0.00000000     0.00000000     0.00000000
 
 Results for state 4.1 Singlet
 =============================
 !MCSCF STATE 4.1 Singlet Energy               -25.054238491340
 Nuclear energy                                  0.00000000
 Kinetic energy                                  6.81671796
 One electron energy                           -41.41069466
 Two electron energy                            16.35645617
 Virial ratio                                    4.67541075
 
 !MCSCF STATE 4.1 Singlet Dipole moment          0.00000000     0.00000000     0.00000000
 Dipole moment /Debye                            0.00000000     0.00000000     0.00000000
 
 Results for state 5.1 Singlet
 =============================
 !MCSCF STATE 5.1 Singlet Energy               -25.054238491339
 Nuclear energy                                  0.00000000
 Kinetic energy                                  6.81671796
 One electron energy                           -41.41069466
 Two electron energy                            16.35645617
 Virial ratio                                    4.67541075
 
 !MCSCF STATE 5.1 Singlet Dipole moment          0.00000000     0.00000000     0.00000000
 Dipole moment /Debye                            0.00000000     0.00000000     0.00000000
 
 Results for state 6.1 Singlet
 =============================
 !MCSCF STATE 6.1 Singlet Energy               -25.054238491338
 Nuclear energy                                  0.00000000
 Kinetic energy                                  6.81671796
 One electron energy                           -41.41069466
 Two electron energy                            16.35645617
 Virial ratio                                    4.67541075
 
 !MCSCF STATE 6.1 Singlet Dipole moment          0.00000000     0.00000000     0.00000000
 Dipole moment /Debye                            0.00000000     0.00000000     0.00000000
 
 Results for state 7.1 Singlet
 =============================
 !MCSCF STATE 7.1 Singlet Energy               -24.999992947135
 Nuclear energy                                  0.00000000
 Kinetic energy                                  6.96795732
 One electron energy                           -41.58861092
 Two electron energy                            16.58861797
 Virial ratio                                    4.58785104
 
 !MCSCF STATE 7.1 Singlet Dipole moment          0.00000000     0.00000000     0.00000000
 Dipole moment /Debye                            0.00000000     0.00000000     0.00000000
 
 Results for state 8.1 Singlet
 =============================
 !MCSCF STATE 8.1 Singlet Energy               -24.999992947134
 Nuclear energy                                  0.00000000
 Kinetic energy                                  6.96795732
 One electron energy                           -41.58861092
 Two electron energy                            16.58861797
 Virial ratio                                    4.58785104
 
 !MCSCF STATE 8.1 Singlet Dipole moment          0.00000000     0.00000000     0.00000000
 Dipole moment /Debye                            0.00000000     0.00000000     0.00000000
 
 Results for state 9.1 Singlet
 =============================
 !MCSCF STATE 9.1 Singlet Energy               -24.999992947133
 Nuclear energy                                  0.00000000
 Kinetic energy                                  6.96795732
 One electron energy                           -41.58861092
 Two electron energy                            16.58861797
 Virial ratio                                    4.58785104
 
 !MCSCF STATE 9.1 Singlet Dipole moment          0.00000000     0.00000000     0.00000000
 Dipole moment /Debye                            0.00000000     0.00000000     0.00000000
 
 Results for state 10.1 Singlet
 ==============================
 !MCSCF STATE 10.1 Singlet Energy              -24.999992947132
 Nuclear energy                                  0.00000000
 Kinetic energy                                  6.96795732
 One electron energy                           -41.58861092
 Two electron energy                            16.58861797
 Virial ratio                                    4.58785104
 
 !MCSCF STATE 10.1 Singlet Dipole moment         0.00000000     0.00000000     0.00000000
 Dipole moment /Debye                            0.00000000     0.00000000     0.00000000
 
 Results for state 11.1 Singlet
 ==============================
 !MCSCF STATE 11.1 Singlet Energy              -24.999992947132
 Nuclear energy                                  0.00000000
 Kinetic energy                                  6.96795732
 One electron energy                           -41.58861092
 Two electron energy                            16.58861797
 Virial ratio                                    4.58785104
 
 !MCSCF STATE 11.1 Singlet Dipole moment         0.00000000     0.00000000     0.00000000
 Dipole moment /Debye                            0.00000000     0.00000000     0.00000000
 
 Results for state 12.1 Singlet
 ==============================
 !MCSCF STATE 12.1 Singlet Energy              -24.992819881602
 Nuclear energy                                  0.00000000
 Kinetic energy                                  6.71145626
 One electron energy                           -40.75757862
 Two electron energy                            15.76475874
 Virial ratio                                    4.72390416
 
 !MCSCF STATE 12.1 Singlet Dipole moment         0.00000000     0.00000000     0.00000000
 Dipole moment /Debye                            0.00000000     0.00000000     0.00000000
 
 Results for state 1.1 Triplet
 =============================
 !MCSCF STATE 1.1 Triplet Energy               -25.061184032748
 Nuclear energy                                  0.00000000
 Kinetic energy                                  6.83268623
 One electron energy                           -41.52150947
 Two electron energy                            16.46032544
 Virial ratio                                    4.66783769
 
 !MCSCF STATE 1.1 Triplet Dipole moment          0.00000000     0.00000000     0.00000000
 Dipole moment /Debye                            0.00000000     0.00000000     0.00000000
 
 Results for state 2.1 Triplet
 =============================
 !MCSCF STATE 2.1 Triplet Energy               -25.061184032748
 Nuclear energy                                  0.00000000
 Kinetic energy                                  6.83268623
 One electron energy                           -41.52150947
 Two electron energy                            16.46032544
 Virial ratio                                    4.66783769
 
 !MCSCF STATE 2.1 Triplet Dipole moment          0.00000000     0.00000000     0.00000000
 Dipole moment /Debye                            0.00000000     0.00000000     0.00000000
 
 Results for state 3.1 Triplet
 =============================
 !MCSCF STATE 3.1 Triplet Energy               -25.061184032748
 Nuclear energy                                  0.00000000
 Kinetic energy                                  6.83268623
 One electron energy                           -41.52150947
 Two electron energy                            16.46032544
 Virial ratio                                    4.66783769
 
 !MCSCF STATE 3.1 Triplet Dipole moment          0.00000000     0.00000000     0.00000000
 Dipole moment /Debye                            0.00000000     0.00000000     0.00000000
 
 Results for state 4.1 Triplet
 =============================
 !MCSCF STATE 4.1 Triplet Energy               -25.061184032748
 Nuclear energy                                  0.00000000
 Kinetic energy                                  6.83268623
 One electron energy                           -41.52150947
 Two electron energy                            16.46032544
 Virial ratio                                    4.66783769
 
 !MCSCF STATE 4.1 Triplet Dipole moment          0.00000000     0.00000000     0.00000000
 Dipole moment /Debye                            0.00000000     0.00000000     0.00000000
 
 Results for state 5.1 Triplet
 =============================
 !MCSCF STATE 5.1 Triplet Energy               -25.061184032748
 Nuclear energy                                  0.00000000
 Kinetic energy                                  6.83268623
 One electron energy                           -41.52150947
 Two electron energy                            16.46032544
 Virial ratio                                    4.66783769
 
 !MCSCF STATE 5.1 Triplet Dipole moment          0.00000000     0.00000000     0.00000000
 Dipole moment /Debye                            0.00000000     0.00000000     0.00000000
 
 Results for state 6.1 Triplet
 =============================
 !MCSCF STATE 6.1 Triplet Energy               -25.004525960492
 Nuclear energy                                  0.00000000
 Kinetic energy                                  7.06394140
 One electron energy                           -41.88809453
 Two electron energy                            16.88356857
 Virial ratio                                    4.53974142
 
 !MCSCF STATE 6.1 Triplet Dipole moment          0.00000000     0.00000000     0.00000000
 Dipole moment /Debye                            0.00000000     0.00000000     0.00000000
 
 Results for state 7.1 Triplet
 =============================
 !MCSCF STATE 7.1 Triplet Energy               -25.004525960492
 Nuclear energy                                  0.00000000
 Kinetic energy                                  7.06394140
 One electron energy                           -41.88809453
 Two electron energy                            16.88356857
 Virial ratio                                    4.53974142
 
 !MCSCF STATE 7.1 Triplet Dipole moment          0.00000000     0.00000000     0.00000000
 Dipole moment /Debye                            0.00000000     0.00000000     0.00000000
 
 Results for state 8.1 Triplet
 =============================
 !MCSCF STATE 8.1 Triplet Energy               -25.004525960492
 Nuclear energy                                  0.00000000
 Kinetic energy                                  7.06394140
 One electron energy                           -41.88809453
 Two electron energy                            16.88356857
 Virial ratio                                    4.53974142
 
 !MCSCF STATE 8.1 Triplet Dipole moment          0.00000000     0.00000000     0.00000000
 Dipole moment /Debye                            0.00000000     0.00000000     0.00000000
 
 Results for state 9.1 Triplet
 =============================
 !MCSCF STATE 9.1 Triplet Energy               -25.004525960492
 Nuclear energy                                  0.00000000
 Kinetic energy                                  7.06394140
 One electron energy                           -41.88809453
 Two electron energy                            16.88356857
 Virial ratio                                    4.53974142
 
 !MCSCF STATE 9.1 Triplet Dipole moment          0.00000000     0.00000000     0.00000000
 Dipole moment /Debye                            0.00000000     0.00000000     0.00000000
 
 Results for state 10.1 Triplet
 ==============================
 !MCSCF STATE 10.1 Triplet Energy              -25.004525960492
 Nuclear energy                                  0.00000000
 Kinetic energy                                  7.06394140
 One electron energy                           -41.88809453
 Two electron energy                            16.88356857
 Virial ratio                                    4.53974142
 
 !MCSCF STATE 10.1 Triplet Dipole moment         0.00000000     0.00000000     0.00000000
 Dipole moment /Debye                            0.00000000     0.00000000     0.00000000
 
 Results for state 11.1 Triplet
 ==============================
 !MCSCF STATE 11.1 Triplet Energy              -25.004525960492
 Nuclear energy                                  0.00000000
 Kinetic energy                                  7.06394140
 One electron energy                           -41.88809453
 Two electron energy                            16.88356857
 Virial ratio                                    4.53974142
 
 !MCSCF STATE 11.1 Triplet Dipole moment         0.00000000     0.00000000     0.00000000
 Dipole moment /Debye                            0.00000000     0.00000000     0.00000000
 
 Results for state 12.1 Triplet
 ==============================
 !MCSCF STATE 12.1 Triplet Energy              -25.004525960492
 Nuclear energy                                  0.00000000
 Kinetic energy                                  7.06394140
 One electron energy                           -41.88809453
 Two electron energy                            16.88356857
 Virial ratio                                    4.53974142
 
 !MCSCF STATE 12.1 Triplet Dipole moment         0.00000000     0.00000000     0.00000000
 Dipole moment /Debye                            0.00000000     0.00000000     0.00000000
 
 Results for state 13.1 Triplet
 ==============================
 !MCSCF STATE 13.1 Triplet Energy              -25.000217005305
 Nuclear energy                                  0.00000000
 Kinetic energy                                  6.92850176
 One electron energy                           -41.47585358
 Two electron energy                            16.47563658
 Virial ratio                                    4.60831502
 
 !MCSCF STATE 13.1 Triplet Dipole moment         0.00000000     0.00000000     0.00000000
 Dipole moment /Debye                            0.00000000     0.00000000     0.00000000
 
 Results for state 14.1 Triplet
 ==============================
 !MCSCF STATE 14.1 Triplet Energy              -25.000217005305
 Nuclear energy                                  0.00000000
 Kinetic energy                                  6.92850176
 One electron energy                           -41.47585358
 Two electron energy                            16.47563658
 Virial ratio                                    4.60831502
 
 !MCSCF STATE 14.1 Triplet Dipole moment         0.00000000     0.00000000     0.00000000
 Dipole moment /Debye                            0.00000000     0.00000000     0.00000000
 
 Results for state 15.1 Triplet
 ==============================
 !MCSCF STATE 15.1 Triplet Energy              -25.000217005305
 Nuclear energy                                  0.00000000
 Kinetic energy                                  6.92850176
 One electron energy                           -41.47585358
 Two electron energy                            16.47563658
 Virial ratio                                    4.60831502
 
 !MCSCF STATE 15.1 Triplet Dipole moment         0.00000000     0.00000000     0.00000000
 Dipole moment /Debye                            0.00000000     0.00000000     0.00000000
 
 Results for state 16.1 Triplet
 ==============================
 !MCSCF STATE 16.1 Triplet Energy              -24.998520815234
 Nuclear energy                                  0.00000000
 Kinetic energy                                  6.53170061
 One electron energy                           -40.17016447
 Two electron energy                            15.17164365
 Virial ratio                                    4.82726067
 
 !MCSCF STATE 16.1 Triplet Dipole moment         0.00000000     0.00000000     0.00000000
 Dipole moment /Debye                            0.00000000     0.00000000     0.00000000
 
 State-averaged charge density matrix saved on record 2141.2 (density set 1)
 
 No non-zero expectation values
 
 Expectation values for two-electron operators:
 
 !MCSCF expec      <1.1 Singlet|LXLX|1.1 Singlet>    -0.000000000000
 !MCSCF expec      <2.1 Singlet|LXLX|2.1 Singlet>     2.999986646652
 !MCSCF expec      <3.1 Singlet|LXLX|3.1 Singlet>     1.000000704657
 !MCSCF expec      <4.1 Singlet|LXLX|4.1 Singlet>     3.999999292515
 !MCSCF expec      <5.1 Singlet|LXLX|5.1 Singlet>     1.000013353348
 !MCSCF expec      <6.1 Singlet|LXLX|6.1 Singlet>     1.000000002828
 !MCSCF expec      <7.1 Singlet|LXLX|7.1 Singlet>     0.999574265395
 !MCSCF expec      <8.1 Singlet|LXLX|8.1 Singlet>     3.000425734605
 !MCSCF expec      <9.1 Singlet|LXLX|9.1 Singlet>     1.000000001620
 !MCSCF expec    <10.1 Singlet|LXLX|10.1 Singlet>     3.999999906369
 !MCSCF expec    <11.1 Singlet|LXLX|11.1 Singlet>     1.000000092011
 !MCSCF expec    <12.1 Singlet|LXLX|12.1 Singlet>    -0.000000000000
 !MCSCF expec      <1.1 Triplet|LXLX|1.1 Triplet>     3.000000006203
 !MCSCF expec      <2.1 Triplet|LXLX|2.1 Triplet>     3.999896718556
 !MCSCF expec      <3.1 Triplet|LXLX|3.1 Triplet>     1.000103275227
 !MCSCF expec      <4.1 Triplet|LXLX|4.1 Triplet>     1.000000000014
 !MCSCF expec      <5.1 Triplet|LXLX|5.1 Triplet>     1.000000000000
 !MCSCF expec      <6.1 Triplet|LXLX|6.1 Triplet>     4.000034544762
 !MCSCF expec      <7.1 Triplet|LXLX|7.1 Triplet>     3.999999981700
 !MCSCF expec      <8.1 Triplet|LXLX|8.1 Triplet>     2.672564072446
 !MCSCF expec      <9.1 Triplet|LXLX|9.1 Triplet>     0.718305738897
 !MCSCF expec    <10.1 Triplet|LXLX|10.1 Triplet>     5.999965455238
 !MCSCF expec    <11.1 Triplet|LXLX|11.1 Triplet>     7.327435943389
 !MCSCF expec    <12.1 Triplet|LXLX|12.1 Triplet>     3.281694263568
 !MCSCF expec    <13.1 Triplet|LXLX|13.1 Triplet>     0.999960984743
 !MCSCF expec    <14.1 Triplet|LXLX|14.1 Triplet>     0.000039015257
 !MCSCF expec    <15.1 Triplet|LXLX|15.1 Triplet>     1.000000000000
 !MCSCF expec    <16.1 Triplet|LXLX|16.1 Triplet>    -0.000000000000
 
 !MCSCF expec      <1.1 Singlet|LYLY|1.1 Singlet>    -0.000000000000
 !MCSCF expec      <2.1 Singlet|LYLY|2.1 Singlet>     3.000013353289
 !MCSCF expec      <3.1 Singlet|LYLY|3.1 Singlet>     3.999999293129
 !MCSCF expec      <4.1 Singlet|LYLY|4.1 Singlet>     1.000000704654
 !MCSCF expec      <5.1 Singlet|LYLY|5.1 Singlet>     0.999986646711
 !MCSCF expec      <6.1 Singlet|LYLY|6.1 Singlet>     1.000000002217
 !MCSCF expec      <7.1 Singlet|LYLY|7.1 Singlet>     1.000425795031
 !MCSCF expec      <8.1 Singlet|LYLY|8.1 Singlet>     2.999574204969
 !MCSCF expec      <9.1 Singlet|LYLY|9.1 Singlet>     1.000000002265
 !MCSCF expec    <10.1 Singlet|LYLY|10.1 Singlet>     1.000000092012
 !MCSCF expec    <11.1 Singlet|LYLY|11.1 Singlet>     3.999999905723
 !MCSCF expec    <12.1 Singlet|LYLY|12.1 Singlet>    -0.000000000000
 !MCSCF expec      <1.1 Triplet|LYLY|1.1 Triplet>     2.999999953083
 !MCSCF expec      <2.1 Triplet|LYLY|2.1 Triplet>     1.000103310830
 !MCSCF expec      <3.1 Triplet|LYLY|3.1 Triplet>     3.999896736100
 !MCSCF expec      <4.1 Triplet|LYLY|4.1 Triplet>     0.999999999987
 !MCSCF expec      <5.1 Triplet|LYLY|5.1 Triplet>     1.000000000000
 !MCSCF expec      <6.1 Triplet|LYLY|6.1 Triplet>     3.999965455317
 !MCSCF expec      <7.1 Triplet|LYLY|7.1 Triplet>     3.999999986454
 !MCSCF expec      <8.1 Triplet|LYLY|8.1 Triplet>     0.716000786048
 !MCSCF expec      <9.1 Triplet|LYLY|9.1 Triplet>     2.667679758308
 !MCSCF expec    <10.1 Triplet|LYLY|10.1 Triplet>     6.000034544683
 !MCSCF expec    <11.1 Triplet|LYLY|11.1 Triplet>     3.283999218005
 !MCSCF expec    <12.1 Triplet|LYLY|12.1 Triplet>     7.332320251185
 !MCSCF expec    <13.1 Triplet|LYLY|13.1 Triplet>     0.000039015257
 !MCSCF expec    <14.1 Triplet|LYLY|14.1 Triplet>     0.999960984743
 !MCSCF expec    <15.1 Triplet|LYLY|15.1 Triplet>     1.000000000000
 !MCSCF expec    <16.1 Triplet|LYLY|16.1 Triplet>    -0.000000000000
 
 !MCSCF expec      <1.1 Singlet|LZLZ|1.1 Singlet>    -0.000000000000
 !MCSCF expec      <2.1 Singlet|LZLZ|2.1 Singlet>     0.000000000059
 !MCSCF expec      <3.1 Singlet|LZLZ|3.1 Singlet>     1.000000002214
 !MCSCF expec      <4.1 Singlet|LZLZ|4.1 Singlet>     1.000000002831
 !MCSCF expec      <5.1 Singlet|LZLZ|5.1 Singlet>     3.999999999941
 !MCSCF expec      <6.1 Singlet|LZLZ|6.1 Singlet>     3.999999994955
 !MCSCF expec      <7.1 Singlet|LZLZ|7.1 Singlet>     3.999999939575
 !MCSCF expec      <8.1 Singlet|LZLZ|8.1 Singlet>     0.000000060425
 !MCSCF expec      <9.1 Singlet|LZLZ|9.1 Singlet>     3.999999996115
 !MCSCF expec    <10.1 Singlet|LZLZ|10.1 Singlet>     1.000000001620
 !MCSCF expec    <11.1 Singlet|LZLZ|11.1 Singlet>     1.000000002266
 !MCSCF expec    <12.1 Singlet|LZLZ|12.1 Singlet>    -0.000000000000
 !MCSCF expec      <1.1 Triplet|LZLZ|1.1 Triplet>     0.000000040714
 !MCSCF expec      <2.1 Triplet|LZLZ|2.1 Triplet>     0.999999970614
 !MCSCF expec      <3.1 Triplet|LZLZ|3.1 Triplet>     0.999999988672
 !MCSCF expec      <4.1 Triplet|LZLZ|4.1 Triplet>     4.000000000000
 !MCSCF expec      <5.1 Triplet|LZLZ|5.1 Triplet>     4.000000000000
 !MCSCF expec      <6.1 Triplet|LZLZ|6.1 Triplet>     3.999999999920
 !MCSCF expec      <7.1 Triplet|LZLZ|7.1 Triplet>     4.000000031846
 !MCSCF expec      <8.1 Triplet|LZLZ|8.1 Triplet>     8.611435141506
 !MCSCF expec      <9.1 Triplet|LZLZ|9.1 Triplet>     8.614014502795
 !MCSCF expec    <10.1 Triplet|LZLZ|10.1 Triplet>     0.000000000080
 !MCSCF expec    <11.1 Triplet|LZLZ|11.1 Triplet>     1.388564838606
 !MCSCF expec    <12.1 Triplet|LZLZ|12.1 Triplet>     1.385985485247
 !MCSCF expec    <13.1 Triplet|LZLZ|13.1 Triplet>     1.000000000000
 !MCSCF expec    <14.1 Triplet|LZLZ|14.1 Triplet>     1.000000000000
 !MCSCF expec    <15.1 Triplet|LZLZ|15.1 Triplet>    -0.000000000000
 !MCSCF expec    <16.1 Triplet|LZLZ|16.1 Triplet>    -0.000000000000
 
 !MCSCF expec      <1.1 Singlet|L**2|1.1 Singlet>    -0.000000000000
 !MCSCF expec      <2.1 Singlet|L**2|2.1 Singlet>     6.000000000000
 !MCSCF expec      <3.1 Singlet|L**2|3.1 Singlet>     6.000000000000
 !MCSCF expec      <4.1 Singlet|L**2|4.1 Singlet>     6.000000000000
 !MCSCF expec      <5.1 Singlet|L**2|5.1 Singlet>     6.000000000000
 !MCSCF expec      <6.1 Singlet|L**2|6.1 Singlet>     6.000000000000
 !MCSCF expec      <7.1 Singlet|L**2|7.1 Singlet>     6.000000000000
 !MCSCF expec      <8.1 Singlet|L**2|8.1 Singlet>     6.000000000000
 !MCSCF expec      <9.1 Singlet|L**2|9.1 Singlet>     6.000000000000
 !MCSCF expec    <10.1 Singlet|L**2|10.1 Singlet>     6.000000000000
 !MCSCF expec    <11.1 Singlet|L**2|11.1 Singlet>     6.000000000000
 !MCSCF expec    <12.1 Singlet|L**2|12.1 Singlet>    -0.000000000000
 !MCSCF expec      <1.1 Triplet|L**2|1.1 Triplet>     6.000000000000
 !MCSCF expec      <2.1 Triplet|L**2|2.1 Triplet>     6.000000000000
 !MCSCF expec      <3.1 Triplet|L**2|3.1 Triplet>     6.000000000000
 !MCSCF expec      <4.1 Triplet|L**2|4.1 Triplet>     6.000000000000
 !MCSCF expec      <5.1 Triplet|L**2|5.1 Triplet>     6.000000000000
 !MCSCF expec      <6.1 Triplet|L**2|6.1 Triplet>    12.000000000000
 !MCSCF expec      <7.1 Triplet|L**2|7.1 Triplet>    12.000000000000
 !MCSCF expec      <8.1 Triplet|L**2|8.1 Triplet>    12.000000000000
 !MCSCF expec      <9.1 Triplet|L**2|9.1 Triplet>    12.000000000000
 !MCSCF expec    <10.1 Triplet|L**2|10.1 Triplet>    12.000000000000
 !MCSCF expec    <11.1 Triplet|L**2|11.1 Triplet>    12.000000000000
 !MCSCF expec    <12.1 Triplet|L**2|12.1 Triplet>    12.000000000000
 !MCSCF expec    <13.1 Triplet|L**2|13.1 Triplet>     2.000000000000
 !MCSCF expec    <14.1 Triplet|L**2|14.1 Triplet>     2.000000000000
 !MCSCF expec    <15.1 Triplet|L**2|15.1 Triplet>     2.000000000000
 !MCSCF expec    <16.1 Triplet|L**2|16.1 Triplet>    -0.000000000000
 
  NATURAL ORBITALS (STATE AVERAGED)
  =================================

  Orbital  Occupation    Energy    Cen Mu Typ  Coefficients
    1.1     2.00000    -1.55769     1  1  s    1.03258
    2.1     0.45199    -0.03371     1  2  s    0.65644    1  5  s    0.29301
    3.1     0.25845     0.05515     1  1  d2-  0.81166
    4.1     0.25845     0.05515     1  1  d2+  0.81166
    5.1     0.25845     0.05515     1  1  d1-  0.81166
    6.1     0.25845     0.05515     1  1  d1+  0.81166
    7.1     0.25845     0.05515     1  1  d0   0.81166
    8.1     0.06368     0.03917     1  2  s    0.90474    1  6  s   -0.32803    1 10  s   -1.24583
    1.2     2.00000    -0.85947     1  1  pz   1.01498
    2.2     2.00000    -0.85947     1  1  py   1.01498
    3.2     2.00000    -0.85947     1  1  px   1.01498
    4.2     0.06403     0.05074     1  2  pz   1.74429    1  3  pz  -0.31246    1  4  pz  -0.40596
    5.2     0.06403     0.05074     1  2  px   1.74429    1  3  px  -0.31246    1  4  px  -0.40596
    6.2     0.06403     0.05074     1  2  py   1.74429    1  3  py  -0.31246    1  4  py  -0.40596
 *** IN SYMMETRY  1 ORBITAL   9 SYMMETRY CONTAMINATION OF 0.384D+00 HAS BEEN REMOVED
 *** IN SYMMETRY  1 ORBITAL  10 SYMMETRY CONTAMINATION OF 0.369D+00 HAS BEEN REMOVED
 *** IN SYMMETRY  1 ORBITAL  11 SYMMETRY CONTAMINATION OF 0.272D+00 HAS BEEN REMOVED
 *** IN SYMMETRY  1 ORBITAL  12 SYMMETRY CONTAMINATION OF 0.137D+00 HAS BEEN REMOVED
 *** IN SYMMETRY  1 ORBITAL  13 SYMMETRY CONTAMINATION OF 0.769D-03 HAS BEEN REMOVED
 *** IN SYMMETRY  1 ORBITAL  15 SYMMETRY CONTAMINATION OF 0.137D+00 HAS BEEN REMOVED
 *** IN SYMMETRY  1 ORBITAL  16 SYMMETRY CONTAMINATION OF 0.137D+00 HAS BEEN REMOVED
 *** IN SYMMETRY  1 ORBITAL  17 SYMMETRY CONTAMINATION OF 0.360D+00 HAS BEEN REMOVED
 *** IN SYMMETRY  1 ORBITAL  18 SYMMETRY CONTAMINATION OF 0.360D+00 HAS BEEN REMOVED
 *** IN SYMMETRY  1 ORBITAL  19 SYMMETRY CONTAMINATION OF 0.268D-02 HAS BEEN REMOVED
 *** IN SYMMETRY  1 ORBITAL  20 SYMMETRY CONTAMINATION OF 0.483D+00 HAS BEEN REMOVED
 *** IN SYMMETRY  1 ORBITAL  21 SYMMETRY CONTAMINATION OF 0.483D+00 HAS BEEN REMOVED
 *** IN SYMMETRY  1 ORBITAL  22 SYMMETRY CONTAMINATION OF 0.189D+00 HAS BEEN REMOVED
 *** IN SYMMETRY  1 ORBITAL  23 SYMMETRY CONTAMINATION OF 0.189D+00 HAS BEEN REMOVED
 *** IN SYMMETRY  1 ORBITAL  24 SYMMETRY CONTAMINATION OF 0.274D+00 HAS BEEN REMOVED
 *** IN SYMMETRY  1 ORBITAL  25 SYMMETRY CONTAMINATION OF 0.274D+00 HAS BEEN REMOVED
 *** IN SYMMETRY  1 ORBITAL  26 SYMMETRY CONTAMINATION OF 0.353D-03 HAS BEEN REMOVED
 *** IN SYMMETRY  1 ORBITAL  27 SYMMETRY CONTAMINATION OF 0.369D+00 HAS BEEN REMOVED
 *** IN SYMMETRY  1 ORBITAL  28 SYMMETRY CONTAMINATION OF 0.369D+00 HAS BEEN REMOVED
 *** IN SYMMETRY  1 ORBITAL  30 SYMMETRY CONTAMINATION OF 0.688D+00 HAS BEEN REMOVED
 *** IN SYMMETRY  1 ORBITAL  31 SYMMETRY CONTAMINATION OF 0.688D+00 HAS BEEN REMOVED
 *** IN SYMMETRY  1 ORBITAL  32 SYMMETRY CONTAMINATION OF 0.419D+00 HAS BEEN REMOVED
 *** IN SYMMETRY  1 ORBITAL  33 SYMMETRY CONTAMINATION OF 0.420D+00 HAS BEEN REMOVED
 *** IN SYMMETRY  1 ORBITAL  34 SYMMETRY CONTAMINATION OF 0.627D-02 HAS BEEN REMOVED
 *** IN SYMMETRY  1 ORBITAL  36 SYMMETRY CONTAMINATION OF 0.847D-01 HAS BEEN REMOVED
 *** IN SYMMETRY  1 ORBITAL  37 SYMMETRY CONTAMINATION OF 0.570D-01 HAS BEEN REMOVED
 *** IN SYMMETRY  1 ORBITAL  38 SYMMETRY CONTAMINATION OF 0.831D-01 HAS BEEN REMOVED
 *** IN SYMMETRY  1 ORBITAL  39 SYMMETRY CONTAMINATION OF 0.537D-01 HAS BEEN REMOVED
 *** IN SYMMETRY  1 ORBITAL  41 SYMMETRY CONTAMINATION OF 0.956D-01 HAS BEEN REMOVED
 *** IN SYMMETRY  1 ORBITAL  42 SYMMETRY CONTAMINATION OF 0.955D-01 HAS BEEN REMOVED
 *** IN SYMMETRY  1 ORBITAL  43 SYMMETRY CONTAMINATION OF 0.463D+00 HAS BEEN REMOVED
 *** IN SYMMETRY  1 ORBITAL  44 SYMMETRY CONTAMINATION OF 0.463D+00 HAS BEEN REMOVED
 *** IN SYMMETRY  1 ORBITAL  45 SYMMETRY CONTAMINATION OF 0.662D+00 HAS BEEN REMOVED
 *** IN SYMMETRY  1 ORBITAL  46 SYMMETRY CONTAMINATION OF 0.662D+00 HAS BEEN REMOVED
 *** IN SYMMETRY  1 ORBITAL  47 SYMMETRY CONTAMINATION OF 0.339D-02 HAS BEEN REMOVED
 *** IN SYMMETRY  1 ORBITAL  48 SYMMETRY CONTAMINATION OF 0.865D-01 HAS BEEN REMOVED
 *** IN SYMMETRY  1 ORBITAL  49 SYMMETRY CONTAMINATION OF 0.865D-01 HAS BEEN REMOVED
 *** IN SYMMETRY  1 ORBITAL  51 SYMMETRY CONTAMINATION OF 0.110D+00 HAS BEEN REMOVED
 *** IN SYMMETRY  1 ORBITAL  52 SYMMETRY CONTAMINATION OF 0.114D+00 HAS BEEN REMOVED
 *** IN SYMMETRY  1 ORBITAL  53 SYMMETRY CONTAMINATION OF 0.301D-01 HAS BEEN REMOVED
 *** IN SYMMETRY  1 ORBITAL  54 SYMMETRY CONTAMINATION OF 0.611D-03 HAS BEEN REMOVED
 *** IN SYMMETRY  1 ORBITAL  56 SYMMETRY CONTAMINATION OF 0.953D-01 HAS BEEN REMOVED
 *** IN SYMMETRY  1 ORBITAL  57 SYMMETRY CONTAMINATION OF 0.364D-01 HAS BEEN REMOVED
 *** IN SYMMETRY  1 ORBITAL  58 SYMMETRY CONTAMINATION OF 0.403D+00 HAS BEEN REMOVED
 *** IN SYMMETRY  1 ORBITAL  59 SYMMETRY CONTAMINATION OF 0.400D+00 HAS BEEN REMOVED
 *** IN SYMMETRY  1 ORBITAL  60 SYMMETRY CONTAMINATION OF 0.368D-01 HAS BEEN REMOVED
 *** IN SYMMETRY  1 ORBITAL  61 SYMMETRY CONTAMINATION OF 0.180D-01 HAS BEEN REMOVED
 *** IN SYMMETRY  1 ORBITAL  62 SYMMETRY CONTAMINATION OF 0.666D+00 HAS BEEN REMOVED
[...]
 49  1     5    1  |1 1>-         0.00%    0.00%    0.00%    0.00%    0.00%    0.00%    0.00%    0.00%
 50  1     6    1  |1 1>-         0.00%    0.00%    0.00%    0.00%   38.77%    0.00%    0.00%    4.07%
 51  1     7    1  |1 1>-         1.55%    0.00%   48.45%    0.00%    0.00%    0.00%    4.96%    0.00%
 52  1     8    1  |1 1>-         0.00%   48.91%    0.00%    0.00%    0.00%    0.16%    0.00%    0.00%
 53  1     9    1  |1 1>-         0.00%    0.00%    0.00%   36.09%    0.00%    0.00%    0.00%    0.00%
 54  1    10    1  |1 1>-         0.00%    1.00%    0.00%    0.00%    0.00%   28.44%    0.00%    0.00%
 55  1    11    1  |1 1>-        48.49%    0.00%    1.56%    0.00%    0.00%    0.00%   23.62%    0.00%
 56  1    12    1  |1 1>-         0.00%    0.00%    0.00%    0.00%    0.08%    0.00%    0.00%   35.65%
 57  1    13    1  |1 1>-         0.00%    0.00%    0.00%    0.00%    0.00%    0.00%    0.00%    0.00%
 58  1    14    1  |1 1>-         0.00%    0.00%    0.00%    0.00%    0.00%    0.00%    0.00%    0.00%
 59  1    15    1  |1 1>-         0.00%    0.00%    0.00%    0.00%    0.00%    0.00%    0.00%    0.00%
 60  1    16    1  |1 1>-         0.00%    0.00%    0.00%    0.00%    0.00%    0.00%    0.00%    0.00%

   Total
 Nr Sym  State Sym Spin / Nr.     41       42       43       44       45       46       47       48

  1  1     1    1  |0 0>          0.00%    0.00%    0.00%    0.00%    0.00%    0.00%    0.00%    0.00%
  2  1     2    1  |0 0>          0.00%    0.00%    0.00%    0.00%    0.00%    0.00%    0.00%    0.00%
  3  1     3    1  |0 0>          0.00%    0.00%    0.00%    0.00%    0.00%    0.00%    0.00%    0.00%
  4  1     4    1  |0 0>          0.00%    0.00%    0.00%    0.00%    0.00%    0.00%    0.00%    0.00%
  5  1     5    1  |0 0>          0.00%    0.00%    0.00%    0.00%    0.00%    0.00%    0.00%    0.00%
  6  1     6    1  |0 0>          0.00%    0.00%    0.00%    0.00%    0.00%    0.00%    0.00%    0.00%
  7  1     7    1  |0 0>          0.00%    0.00%    0.00%    0.00%    0.00%    0.00%   83.82%    0.00%
  8  1     8    1  |0 0>          0.00%    0.00%    0.00%    0.00%    0.00%   83.82%    0.00%    0.00%
  9  1     9    1  |0 0>          0.00%    0.00%    0.00%   83.82%    0.00%    0.00%    0.00%    0.00%
 10  1    10    1  |0 0>          0.00%    0.00%    0.32%    0.00%   83.50%    0.00%    0.00%    0.00%
 11  1    11    1  |0 0>          0.00%    0.00%   83.49%    0.00%    0.32%    0.00%    0.00%    0.00%
 12  1    12    1  |0 0>          0.00%    0.00%    0.00%    0.00%    0.00%    0.00%    0.00%    2.68%
 13  1     1    1  |1 1>+         0.00%    0.00%    0.00%    0.00%    0.00%    0.00%    0.00%    0.00%
 14  1     2    1  |1 1>+         0.00%    0.00%    0.00%    0.00%    0.00%    0.00%    0.00%    0.00%
 15  1     3    1  |1 1>+         0.00%    0.00%    0.00%    0.00%    0.00%    0.00%    0.00%    0.00%
 16  1     4    1  |1 1>+         0.00%    0.00%    0.00%    0.00%    0.00%    0.00%    0.00%    0.00%
 17  1     5    1  |1 1>+         0.00%    0.00%    0.00%    0.00%    0.00%    0.00%    0.00%    0.00%
 18  1     6    1  |1 1>+         4.07%    0.00%    0.00%    0.00%    0.00%    0.00%    0.25%    0.00%
 19  1     7    1  |1 1>+         0.00%    0.20%    0.01%    0.00%    0.33%    0.00%    0.00%    0.00%
 20  1     8    1  |1 1>+         0.00%    0.00%    0.00%    0.40%    0.00%    0.00%    0.00%    0.00%
 21  1     9    1  |1 1>+         0.00%    0.00%    0.00%    0.00%    0.00%    0.25%    0.00%    0.00%
 22  1    10    1  |1 1>+         0.00%    0.00%    0.00%    0.00%    0.00%    0.00%    0.00%    0.00%
 23  1    11    1  |1 1>+         0.00%   21.31%    0.29%    0.00%    0.08%    0.00%    0.00%    0.00%
 24  1    12    1  |1 1>+        35.65%    0.00%    0.00%    0.00%    0.00%    0.00%    0.15%    0.00%
 25  1    13    1  |1 1>+         0.00%    0.00%    0.00%    0.00%    0.00%    0.00%    7.56%    0.00%
 26  1    14    1  |1 1>+         0.00%    0.00%    0.00%    7.56%    0.00%    0.00%    0.00%    0.00%
 27  1    15    1  |1 1>+         0.00%    0.00%    2.25%    0.00%    7.83%    0.00%    0.00%   32.44%
 28  1    16    1  |1 1>+         0.00%    0.00%    0.00%    0.00%    0.00%    0.00%    0.00%    0.00%
 29  1     1    1  |1 0>          0.00%    0.00%    0.00%    0.00%    0.00%    0.00%    0.00%    0.00%
 30  1     2    1  |1 0>          0.00%    0.00%    0.00%    0.00%    0.00%    0.00%    0.00%    0.00%
 31  1     3    1  |1 0>          0.00%    0.00%    0.00%    0.00%    0.00%    0.00%    0.00%    0.00%
 32  1     4    1  |1 0>          0.00%    0.00%    0.00%    0.00%    0.00%    0.00%    0.00%    0.00%
 33  1     5    1  |1 0>          0.00%    0.00%    0.00%    0.00%    0.00%    0.00%    0.00%    0.00%
 34  1     6    1  |1 0>          0.00%    0.00%    0.00%    0.00%    0.25%    0.00%    0.00%    0.00%
 35  1     7    1  |1 0>          2.32%    0.00%    0.00%    0.00%    0.00%    0.00%    0.01%    0.00%
 36  1     8    1  |1 0>          0.00%    0.00%    0.00%    0.00%    0.00%    0.01%    0.00%    0.00%
 37  1     9    1  |1 0>          0.00%    0.00%    0.00%    0.25%    0.00%    0.00%    0.00%    0.00%
 38  1    10    1  |1 0>          0.00%    0.00%    0.00%    0.00%    0.00%    0.39%    0.00%    0.00%
 39  1    11    1  |1 0>         51.18%    0.00%    0.00%    0.00%    0.00%    0.00%    0.39%    0.00%
 40  1    12    1  |1 0>          0.00%   56.98%    0.46%    0.00%    0.00%    0.00%    0.00%    0.00%
 41  1    13    1  |1 0>          0.00%    0.00%   10.07%    0.00%    0.01%    0.00%    0.00%   32.44%
 42  1    14    1  |1 0>          0.00%    0.00%    0.00%    0.00%    0.00%    7.56%    0.00%    0.00%
 43  1    15    1  |1 0>          0.00%    0.00%    0.00%    0.00%    0.00%    0.00%    7.56%    0.00%
 44  1    16    1  |1 0>          0.00%    0.00%    0.00%    0.00%    0.00%    0.00%    0.00%    0.00%
 45  1     1    1  |1 1>-         0.00%    0.00%    0.00%    0.00%    0.00%    0.00%    0.00%    0.00%
 46  1     2    1  |1 1>-         0.00%    0.00%    0.00%    0.00%    0.00%    0.00%    0.00%    0.00%
 47  1     3    1  |1 1>-         0.00%    0.00%    0.00%    0.00%    0.00%    0.00%    0.00%    0.00%
 48  1     4    1  |1 1>-         0.00%    0.00%    0.00%    0.00%    0.00%    0.00%    0.00%    0.00%
 49  1     5    1  |1 1>-         0.00%    0.00%    0.00%    0.00%    0.00%    0.00%    0.00%    0.00%
 50  1     6    1  |1 1>-         0.00%    0.00%    0.00%    0.00%    0.00%    0.25%    0.00%    0.00%
 51  1     7    1  |1 1>-         0.00%    0.00%    0.00%    0.40%    0.00%    0.00%    0.00%    0.00%
 52  1     8    1  |1 1>-         0.00%    0.20%    0.01%    0.00%    0.34%    0.00%    0.00%    0.00%
 53  1     9    1  |1 1>-         6.78%    0.00%    0.00%    0.00%    0.00%    0.00%    0.25%    0.00%
 54  1    10    1  |1 1>-         0.00%   21.31%    0.30%    0.00%    0.06%    0.00%    0.00%    0.00%
 55  1    11    1  |1 1>-         0.00%    0.00%    0.00%    0.00%    0.00%    0.00%    0.00%    0.00%
 56  1    12    1  |1 1>-         0.00%    0.00%    0.00%    0.00%    0.00%    0.15%    0.00%    0.00%
 57  1    13    1  |1 1>-         0.00%    0.00%    0.00%    0.00%    0.00%    7.56%    0.00%    0.00%
 58  1    14    1  |1 1>-         0.00%    0.00%    2.80%    0.00%    7.28%    0.00%    0.00%   32.44%
 59  1    15    1  |1 1>-         0.00%    0.00%    0.00%    7.56%    0.00%    0.00%    0.00%    0.00%
 60  1    16    1  |1 1>-         0.00%    0.00%    0.00%    0.00%    0.00%    0.00%    0.00%    0.00%

   Total
 Nr Sym  State Sym Spin / Nr.     49       50       51       52       53       54       55       56

  1  1     1    1  |0 0>          0.00%    0.00%    0.00%    0.00%    0.00%    0.00%    0.00%    0.00%
  2  1     2    1  |0 0>          0.00%    0.00%    0.00%    0.00%    0.00%    0.00%    0.00%    0.00%
  3  1     3    1  |0 0>          0.00%    0.00%    0.00%    0.00%    0.00%    0.00%    0.00%    0.00%
  4  1     4    1  |0 0>          0.00%    0.00%    0.00%    0.00%    0.00%    0.00%    0.00%    0.00%
  5  1     5    1  |0 0>          0.00%    0.00%    0.00%    0.00%    0.00%    0.00%    0.00%    0.00%
  6  1     6    1  |0 0>          0.00%    0.00%    0.00%    0.00%    0.00%    0.00%    0.00%    0.00%
  7  1     7    1  |0 0>          0.00%    0.00%    0.00%    0.00%    0.00%   15.04%    0.00%    0.00%
  8  1     8    1  |0 0>          0.00%    0.00%    0.00%    0.00%   15.04%    0.00%    0.00%    0.00%
  9  1     9    1  |0 0>          0.00%    0.00%    0.00%   15.04%    0.00%    0.00%    0.00%    0.00%
 10  1    10    1  |0 0>          0.00%    0.00%    0.00%    0.00%    0.00%    0.00%   15.03%    0.01%
 11  1    11    1  |0 0>          0.00%    0.00%    0.00%    0.00%    0.00%    0.00%    0.01%   15.04%
 12  1    12    1  |0 0>          0.00%    0.00%    0.00%    0.00%    0.00%    0.00%    0.00%    0.00%
 13  1     1    1  |1 1>+         0.00%    0.00%    0.00%    0.00%    0.00%    0.00%    0.00%    0.00%
 14  1     2    1  |1 1>+         0.00%    0.00%    0.00%    0.00%    0.00%    0.00%    0.00%    0.00%
 15  1     3    1  |1 1>+         0.00%    0.00%    0.00%    0.00%    0.00%    0.00%    0.00%    0.00%
 16  1     4    1  |1 1>+         0.00%    0.00%    0.00%    0.00%    0.00%    0.00%    0.00%    0.00%
 17  1     5    1  |1 1>+         0.00%    0.00%    0.00%    0.00%    0.00%    0.00%    0.00%    0.00%
 18  1     6    1  |1 1>+         0.00%    0.00%    0.00%    0.00%    0.00%    0.02%    0.00%    0.00%
 19  1     7    1  |1 1>+         0.00%    0.00%    0.00%    0.00%    0.00%    0.00%    0.03%    0.00%
 20  1     8    1  |1 1>+         0.00%    0.00%    0.00%    0.03%    0.00%    0.00%    0.00%    0.00%
 21  1     9    1  |1 1>+         0.00%    0.00%    0.00%    0.00%    0.02%    0.00%    0.00%    0.00%
 22  1    10    1  |1 1>+         0.00%    0.00%    0.00%    0.00%    0.00%    0.00%    0.00%    0.00%
 23  1    11    1  |1 1>+         0.00%    0.00%    0.00%    0.00%    0.00%    0.00%    0.01%    0.03%
 24  1    12    1  |1 1>+         0.00%    0.00%    0.00%    0.00%    0.00%    0.01%    0.00%    0.00%
 25  1    13    1  |1 1>+         0.00%    0.00%   49.99%    0.00%    0.00%   42.44%    0.00%    0.00%
 26  1    14    1  |1 1>+        49.99%    0.00%    0.00%   42.43%    0.00%    0.00%    0.00%    0.00%
 27  1    15    1  |1 1>+         0.00%    0.00%    0.00%    0.00%    0.00%    0.00%   42.41%   14.16%
 28  1    16    1  |1 1>+         0.00%    0.02%    0.00%    0.00%    0.00%    0.00%    0.00%    0.00%
 29  1     1    1  |1 0>          0.00%    0.00%    0.00%    0.00%    0.00%    0.00%    0.00%    0.00%
 30  1     2    1  |1 0>          0.00%    0.00%    0.00%    0.00%    0.00%    0.00%    0.00%    0.00%
 31  1     3    1  |1 0>          0.00%    0.00%    0.00%    0.00%    0.00%    0.00%    0.00%    0.00%
 32  1     4    1  |1 0>          0.00%    0.00%    0.00%    0.00%    0.00%    0.00%    0.00%    0.00%
 33  1     5    1  |1 0>          0.00%    0.00%    0.00%    0.00%    0.00%    0.00%    0.00%    0.00%
 34  1     6    1  |1 0>          0.00%    0.00%    0.00%    0.00%    0.00%    0.00%    0.02%    0.00%
 35  1     7    1  |1 0>          0.00%    0.00%    0.00%    0.00%    0.00%    0.00%    0.00%    0.00%
 36  1     8    1  |1 0>          0.00%    0.00%    0.00%    0.00%    0.00%    0.00%    0.00%    0.00%
 37  1     9    1  |1 0>          0.00%    0.00%    0.00%    0.02%    0.00%    0.00%    0.00%    0.00%
 38  1    10    1  |1 0>          0.00%    0.00%    0.00%    0.00%    0.03%    0.00%    0.00%    0.00%
 39  1    11    1  |1 0>          0.00%    0.00%    0.00%    0.00%    0.00%    0.03%    0.00%    0.00%
 40  1    12    1  |1 0>          0.00%    0.00%    0.00%    0.00%    0.00%    0.00%    0.00%    0.04%
 41  1    13    1  |1 0>          0.00%    0.00%    0.00%    0.00%    0.00%    0.00%    0.00%   56.57%
 42  1    14    1  |1 0>          0.00%   49.99%    0.00%    0.00%   42.43%    0.00%    0.00%    0.00%
 43  1    15    1  |1 0>          0.00%    0.00%   49.99%    0.00%    0.00%   42.43%    0.00%    0.00%
 44  1    16    1  |1 0>          0.02%    0.00%    0.00%    0.00%    0.00%    0.00%    0.00%    0.00%
 45  1     1    1  |1 1>-         0.00%    0.00%    0.00%    0.00%    0.00%    0.00%    0.00%    0.00%
 46  1     2    1  |1 1>-         0.00%    0.00%    0.00%    0.00%    0.00%    0.00%    0.00%    0.00%
 47  1     3    1  |1 1>-         0.00%    0.00%    0.00%    0.00%    0.00%    0.00%    0.00%    0.00%
 48  1     4    1  |1 1>-         0.00%    0.00%    0.00%    0.00%    0.00%    0.00%    0.00%    0.00%
 49  1     5    1  |1 1>-         0.00%    0.00%    0.00%    0.00%    0.00%    0.00%    0.00%    0.00%
 50  1     6    1  |1 1>-         0.00%    0.00%    0.00%    0.00%    0.02%    0.00%    0.00%    0.00%
 51  1     7    1  |1 1>-         0.00%    0.00%    0.00%    0.03%    0.00%    0.00%    0.00%    0.00%
 52  1     8    1  |1 1>-         0.00%    0.00%    0.00%    0.00%    0.00%    0.00%    0.03%    0.00%
 53  1     9    1  |1 1>-         0.00%    0.00%    0.00%    0.00%    0.00%    0.02%    0.00%    0.00%
 54  1    10    1  |1 1>-         0.00%    0.00%    0.00%    0.00%    0.00%    0.00%    0.01%    0.03%
 55  1    11    1  |1 1>-         0.00%    0.00%    0.00%    0.00%    0.00%    0.00%    0.00%    0.00%
 56  1    12    1  |1 1>-         0.00%    0.00%    0.00%    0.00%    0.01%    0.00%    0.00%    0.00%
 57  1    13    1  |1 1>-         0.00%   49.99%    0.00%    0.00%   42.44%    0.00%    0.00%    0.00%
 58  1    14    1  |1 1>-         0.00%    0.00%    0.00%    0.00%    0.00%    0.00%   42.45%   14.12%
 59  1    15    1  |1 1>-        49.99%    0.00%    0.00%   42.43%    0.00%    0.00%    0.00%    0.00%
 60  1    16    1  |1 1>-         0.00%    0.00%    0.02%    0.00%    0.00%    0.00%    0.00%    0.00%

   Total
 Nr Sym  State Sym Spin / Nr.     57       58       59       60

  1  1     1    1  |0 0>          0.00%    0.00%    0.00%    0.00%
  2  1     2    1  |0 0>          0.00%    0.00%    0.00%    0.00%
  3  1     3    1  |0 0>          0.00%    0.00%    0.00%    0.00%
  4  1     4    1  |0 0>          0.00%    0.00%    0.00%    0.00%
  5  1     5    1  |0 0>          0.00%    0.00%    0.00%    0.00%
  6  1     6    1  |0 0>          0.00%    0.00%    0.00%    0.00%
  7  1     7    1  |0 0>          0.00%    0.00%    0.00%    0.00%
  8  1     8    1  |0 0>          0.00%    0.00%    0.00%    0.00%
  9  1     9    1  |0 0>          0.00%    0.00%    0.00%    0.00%
 10  1    10    1  |0 0>          0.00%    0.00%    0.00%    0.00%
 11  1    11    1  |0 0>          0.00%    0.00%    0.00%    0.00%
 12  1    12    1  |0 0>          0.00%    0.00%    0.00%   97.32%
 13  1     1    1  |1 1>+         0.00%    0.00%    0.00%    0.00%
 14  1     2    1  |1 1>+         0.00%    0.00%    0.00%    0.00%
 15  1     3    1  |1 1>+         0.00%    0.00%    0.00%    0.00%
 16  1     4    1  |1 1>+         0.00%    0.00%    0.00%    0.00%
 17  1     5    1  |1 1>+         0.00%    0.00%    0.00%    0.00%
 18  1     6    1  |1 1>+         0.00%    0.00%    0.00%    0.00%
 19  1     7    1  |1 1>+         0.00%    0.00%    0.00%    0.00%
 20  1     8    1  |1 1>+         0.00%    0.00%    0.00%    0.00%
 21  1     9    1  |1 1>+         0.00%    0.00%    0.00%    0.00%
 22  1    10    1  |1 1>+         0.00%    0.00%    0.00%    0.00%
 23  1    11    1  |1 1>+         0.00%    0.00%    0.00%    0.00%
 24  1    12    1  |1 1>+         0.00%    0.00%    0.00%    0.00%
 25  1    13    1  |1 1>+         0.00%    0.00%    0.01%    0.00%
 26  1    14    1  |1 1>+         0.01%    0.00%    0.00%    0.00%
 27  1    15    1  |1 1>+         0.00%    0.00%    0.00%    0.89%
 28  1    16    1  |1 1>+         0.00%   99.98%    0.00%    0.00%
 29  1     1    1  |1 0>          0.00%    0.00%    0.00%    0.00%
 30  1     2    1  |1 0>          0.00%    0.00%    0.00%    0.00%
 31  1     3    1  |1 0>          0.00%    0.00%    0.00%    0.00%
 32  1     4    1  |1 0>          0.00%    0.00%    0.00%    0.00%
 33  1     5    1  |1 0>          0.00%    0.00%    0.00%    0.00%
 34  1     6    1  |1 0>          0.00%    0.00%    0.00%    0.00%
 35  1     7    1  |1 0>          0.00%    0.00%    0.00%    0.00%
 36  1     8    1  |1 0>          0.00%    0.00%    0.00%    0.00%
 37  1     9    1  |1 0>          0.00%    0.00%    0.00%    0.00%
 38  1    10    1  |1 0>          0.00%    0.00%    0.00%    0.00%
 39  1    11    1  |1 0>          0.00%    0.00%    0.00%    0.00%
 40  1    12    1  |1 0>          0.00%    0.00%    0.00%    0.00%
 41  1    13    1  |1 0>          0.00%    0.00%    0.00%    0.89%
 42  1    14    1  |1 0>          0.00%    0.01%    0.00%    0.00%
 43  1    15    1  |1 0>          0.00%    0.00%    0.01%    0.00%
 44  1    16    1  |1 0>         99.98%    0.00%    0.00%    0.00%
 45  1     1    1  |1 1>-         0.00%    0.00%    0.00%    0.00%
 46  1     2    1  |1 1>-         0.00%    0.00%    0.00%    0.00%
 47  1     3    1  |1 1>-         0.00%    0.00%    0.00%    0.00%
 48  1     4    1  |1 1>-         0.00%    0.00%    0.00%    0.00%
 49  1     5    1  |1 1>-         0.00%    0.00%    0.00%    0.00%
 50  1     6    1  |1 1>-         0.00%    0.00%    0.00%    0.00%
 51  1     7    1  |1 1>-         0.00%    0.00%    0.00%    0.00%
 52  1     8    1  |1 1>-         0.00%    0.00%    0.00%    0.00%
 53  1     9    1  |1 1>-         0.00%    0.00%    0.00%    0.00%
 54  1    10    1  |1 1>-         0.00%    0.00%    0.00%    0.00%
 55  1    11    1  |1 1>-         0.00%    0.00%    0.00%    0.00%
 56  1    12    1  |1 1>-         0.00%    0.00%    0.00%    0.00%
 57  1    13    1  |1 1>-         0.00%    0.01%    0.00%    0.00%
 58  1    14    1  |1 1>-         0.00%    0.00%    0.00%    0.89%
 59  1    15    1  |1 1>-         0.01%    0.00%    0.00%    0.00%
 60  1    16    1  |1 1>-         0.00%    0.00%   99.98%    0.00%



 **********************************************************************************************************************************
 DATASETS  * FILE   NREC   LENGTH (MB)   RECORD NAMES
              1      26       42.91       500      610      700      900      950      970     1000      129      960     1100   
                                          VAR    BASINP    GEOM    SYMINP    ZMAT    AOBASIS   BASIS     P2S    ABASIS      S 
                                         1400     1410     1420     1200     1210     1080     1700     1600     1650     1700(1)
                                         EKIN      POT     PPINT     H0       H01     AOSYM    OPER      SMH    MOLCAS    OPER   
                                         1380     1101     1401     1411     1650(1)  1700(2)
                                         JKOP      SR      EKINR    POTR    MOLCAS    OPER   

              2       8      461.64       700     1000      520     2100     2140     2141     5101     5103   
                                         GEOM     BASIS   MCVARS     RHF     MCSCF    MCSCF    MRCI     MRCI   

 PROGRAMS   *        TOTAL        CI     LSINT        CI        CI     MULTI     MULTI   RHF-SCF       INT
 CPU TIMES  *      1495.72   1103.00      0.45    261.08    126.11      1.91      1.58      0.10      1.23
 REAL TIME  *      1593.60 SEC
 DISK USED  *       504.61 MB (local),        6.04 GB (total)
 SF USED    *         2.62 GB
 GA USED    *         0.00 MB       (max)       0.00 MB       (current)
 **********************************************************************************************************************************

 CI/aug-cc-pWCVQZ-PP energy=    -25.264107542629

              CI              CI           MULTI           MULTI         RHF-SCF
    -25.24165174    -25.24109189    -25.00452596    -25.00509713    -25.09501583
 **********************************************************************************************************************************
 Molpro calculation terminated
