
 Working directory              : /wrk/irikura/molpro.N9zm5xoqqp/
 Global scratch directory       : /wrk/irikura/molpro.N9zm5xoqqp/
 Wavefunction directory         : /home/irikura/wfu/
 Main file repository           : /wrk/irikura/molpro.N9zm5xoqqp/

 id        : nistki

 Nodes            nprocs
 pn125343.nist.gov   12
 GA implementation: MPI file
 GA implementation (serial work in mppx): MPI file

 Using customized tuning parameters: mindgm=1; mindgv=20; mindgc=4; mindgr=1; noblas=0; minvec=7
 default implementation of scratch files=sf  


 Variables initialized (1009), CPU time= 0.01 sec
 ***,Ba SO-CI
 memory,1000,M;
 
 gprint,orbitals,civector;
 
 symmetry,xyz
 geometry={Ba};
 
 basis=aug-cc-pwCVTZ-X2C
 
 set,dkho=101
 
 {rhf;wf,sym=1,spin=0}
 
 NSING=12
 NTRIP=16
 
                                                                                 ! active space (2/10)
 {multi
     closed,15,12
     occ,22,15
     wf,sym=1,spin=0;state,NSING;
     wf,sym=1,spin=2;state,NTRIP;
     expec2,lxx,lyy,lzz;
 }
 table, energy, ll
 title, Energies and &lt;L**2&gt; values
 
 core,9,9
 {ci;wf,sym=1,spin=0;state,NSING; save,5101.2}
 hlsdiag = energd4
 {ci;wf,sym=1,spin=2;state,NTRIP; save,5103.2}
 hlsdiag(NSING+1) = energd4
 
 table,hlsdiag
 
 lsint
 {ci;hlsmat,ls,5101.2,5103.2;print,vls=0,hls=0}                                  !compute and diagonalize SO matrix
 Commands initialized (810), CPU time= 0.01 sec, 661 directives.
 Default parameters read. Elapsed time= 0.09 sec

 Checking input...
 Passed
1


                                         ***  PROGRAM SYSTEM MOLPRO  ***
                                       Copyright, TTI GmbH Stuttgart, 2015
                                    Version 2021.2 linked Jun  2 2021 00:13:23


 **********************************************************************************************************************************
 LABEL *   Ba SO-CI                                                                      
  64 bit mpp version                                                                     DATE: 18-Apr-24          TIME: 13:57:00  
 **********************************************************************************************************************************

 SHA1:             1987c3f1b0c3ae76932bc24993909f2d7ae6b1f1
 **********************************************************************************************************************************

 Memory per process:      1000 MW
 Total memory per node:  12000 MW

 GA preallocation disabled
 GA check disabled

 Variable memory set to 1000.0 MW


 ZSYMEL=XYZ

 SETTING BASIS          =    AUG-CC-PWCVTZ-X2C
 SETTING DKHO           =       101.00000000                                  


 Recomputing integrals since basis changed


 Using spherical harmonics

 Library entry BA     S aug-cc-pwCVTZ-X      selected for orbital group  1
 Library entry BA     P aug-cc-pwCVTZ-X      selected for orbital group  1
 Library entry BA     D aug-cc-pwCVTZ-X      selected for orbital group  1
 Library entry BA     F aug-cc-pwCVTZ-X      selected for orbital group  1


 PROGRAM * SEWARD (Integral evaluation for generally contracted gaussian basis sets)     Author: Roland Lindh, 1990

 Geometry written to block  1 of record 700

 Orientation using atomic masses  
 Molecule type: Atom
 User-specified symmetry elements: XYZ
 Symmetry elements: XYZ
 Rotational constants:       0.0000000      0.0000000      0.0000000 GHz  (calculated with average atomic masses)

 Point group  Ci  



 ATOMIC COORDINATES

 NR  ATOM    CHARGE       X              Y              Z

   1  BA     56.00    0.000000000    0.000000000    0.000000000

 NUCLEAR CHARGE:                   56
 NUMBER OF PRIMITIVE AOS:         294
 NUMBER OF SYMMETRY AOS:          256
 NUMBER OF CONTRACTIONS:          109   (   51Ag  +   58Au  )
 NUMBER OF INNER CORE ORBITALS:    23   (   14Ag  +    9Au  )
 NUMBER OF OUTER CORE ORBITALS:     4   (    1Ag  +    3Au  )
 NUMBER OF VALENCE ORBITALS:        1   (    1Ag  +    0Au  )


 NUCLEAR REPULSION ENERGY    0.00000000

 One-electron integrals computed with SEWARD

 eXact-2-Component (X2C) method activated

 Computing Douglas-Kroll / X2C integrals

 AO integral compression algorithm  1   Integral accuracy      1.0D-11

     23.593 MB (compressed) written to integral file ( 14.4%)

     Node minimum: 0.262 MB, node maximum: 3.670 MB


 NUMBER OF SORTED TWO-ELECTRON INTEGRALS:     759972.     BUFFER LENGTH:  32768
 NUMBER OF SEGMENTS:   1  SEGMENT LENGTH:     759972      RECORD LENGTH: 524288

 Memory used in sort:       1.32 MW

 SORT1 READ    20698825. AND WROTE      158286. INTEGRALS IN      1 RECORDS. CPU TIME:     0.10 SEC, REAL TIME:     0.11 SEC
 SORT2 READ     1919742. AND WROTE     9150775. INTEGRALS IN    156 RECORDS. CPU TIME:     0.02 SEC, REAL TIME:     0.03 SEC

 Node minimum:      758964.  Node maximum:      765474. integrals

 OPERATOR DM      FOR CENTER  0  COORDINATES:    0.000000    0.000000    0.000000

 EXTRA SYMMETRY OF AOS IN SYMMETRY 1:   1 1 1 1 1 1 1 1 1 1   1 2 3 4 5 6 2 3 4 5   6 2 3 4 5 6 2 3 4 5   6 2 3 4 5 6 2 3 4 5
                                        6 2 3 4 5 6 2 3 4 5   6
 EXTRA SYMMETRY OF AOS IN SYMMETRY 2:   1 2 3 1 2 3 1 2 3 1   2 3 1 2 3 1 2 3 1 2   3 1 2 3 1 2 3 1 2 3   4 5 6 7 8 910 4 5 6
                                        7 8 910 4 5 6 7 8 9  10 4 5 6 7 8 910

 Eigenvalues of metric

         1 0.442E-03 0.170E-02 0.170E-02 0.170E-02 0.170E-02 0.170E-02 0.228E-02 0.222E-01
         2 0.132E-02 0.132E-02 0.132E-02 0.674E-02 0.674E-02 0.674E-02 0.690E-01 0.690E-01


 **********************************************************************************************************************************
 DATASETS  * FILE   NREC   LENGTH (MB)   RECORD NAMES
              1      22       29.43       500      610      700      900      950      970     1000      129      960     1700   
                                          VAR    BASINP    GEOM    SYMINP    ZMAT    AOBASIS   BASIS     P2S    ABASIS    OPER   
                                         1101     1401     1411     1412     1650     1100     1400     1410     1200     1210   
                                          SR      EKINR    POTR     PVPR    MOLCAS      S      EKIN      POT      H0       H01  
                                         1080     1600   
                                         AOSYM     SMH  

 PROGRAMS   *        TOTAL       INT
 CPU TIMES  *         4.02      3.84
 REAL TIME  *         4.63 SEC
 DISK USED  *        29.73 MB (local),      415.12 MB (total)
 GA USED    *         0.00 MB       (max)       0.00 MB       (current)
 **********************************************************************************************************************************


 Program * Restricted Hartree-Fock

 Orbital guess generated from atomic densities. Full valence occupancy:   16  12

 Initial occupancy:  16  12

 NELEC=   56   SYM=1   MS2= 0   THRE=1.0D-08   THRD=3.2D-06   THRG=3.2D-06  HFMA2=F  DIIS_START=2   DIIS_MAX=10   DIIS_INCORE=F

 Level shifts:    0.00 (CLOSED)    0.00 (OPEN)    0.30 (GAP_MIN)

 ITER           ETOT              DE          GRAD        DDIFF     DIIS  NEXP   TIME(IT)  TIME(TOT)  DIAG
   1    -8131.99670480   -8131.99670480     0.00D+00     0.19D+00     0     0       0.02      0.02    start
   2    -8131.99670480      -0.00000000     0.85D-06     0.19D-04     1     0       0.01      0.03    diag
   3    -8131.99670480      -0.00000000     0.14D-06     0.84D-05     2     0       0.01      0.04    diag
   4    -8131.99670480      -0.00000000     0.62D-07     0.40D-05     3     0       0.00      0.04    diag
   5    -8131.99670480      -0.00000000     0.32D-07     0.50D-05     4     0       0.01      0.05    diag
   6    -8131.99670480       0.00000000     0.49D-08     0.13D-06     5     0       0.00      0.05    diag
   7    -8131.99670480      -0.00000000     0.21D-08     0.18D-06     0     0       0.01      0.06    diag

 Final occupancy:  16  12

 !RHF STATE 1.1 Energy              -8131.996704798137
  RHF One-electron energy            -11100.0286158105    
  RHF Two-electron energy            2968.031911012387
  RHF Kinetic energy                 9672.733921040481
  RHF Nuclear energy                    0.000000000000
  RHF Virial quotient                  -0.840713367201

 !RHF STATE 1.1 Dipole moment           0.00000000     0.00000000     0.00000000
 Dipole moment /Debye                   0.00000000     0.00000000     0.00000000

 ELECTRON ORBITALS
 =================

  Orbital  Occupation    Energy    Cen Mu Typ  Coefficients
    1.1     2.00000 -1382.74847     1  1  s    1.00000
    2.1     2.00000  -222.46064     1  2  s    1.00000
    3.1     2.00000   -48.63407     1  3  s    1.00000
    4.1     2.00000   -29.94645     1  1  d1-  0.99987
    5.1     2.00000   -29.94645     1  1  d1+  0.99987
    6.1     2.00000   -29.94645     1  1  d2+  0.99958
    7.1     2.00000   -29.94645     1  1  d2-  0.99960
    8.1     2.00000   -29.94645     1  1  d0   1.00000
    9.1     2.00000   -10.25509     1  4  s    1.00008
   10.1     2.00000    -3.85433     1  2  d2-  0.99723
   11.1     2.00000    -3.85433     1  2  d2+  0.99654
   12.1     2.00000    -3.85433     1  2  d1-  0.99988
   13.1     2.00000    -3.85433     1  2  d1+  0.99995
   14.1     2.00000    -3.85433     1  2  d0   0.99937
   15.1     2.00000    -1.60335     1  5  s    0.99881
   16.1     2.00000    -0.16308     1  6  s    1.00172
    1.2     2.00000  -199.39477     1  1  pz   0.99981
    2.2     2.00000  -199.39477     1  1  px   0.99872
    3.2     2.00000  -199.39477     1  1  py   0.99880
    4.2     2.00000   -41.04464     1  2  pz   1.00000
    5.2     2.00000   -41.04464     1  2  px   0.99956
    6.2     2.00000   -41.04464     1  2  py   0.99956
    7.2     2.00000    -7.69922     1  3  pz   0.99997
    8.2     2.00000    -7.69922     1  3  py   0.99997
    9.2     2.00000    -7.69922     1  3  px   0.99998
   10.2     2.00000    -0.89930     1  4  pz   0.99992
   11.2     2.00000    -0.89930     1  4  py   0.99992
   12.2     2.00000    -0.89930     1  4  px   0.99992


 HOMO     16.1    -0.163084 =      -4.4378eV
 LUMO     13.2     0.008069 =       0.2196eV
 LUMO-HOMO         0.171153 =       4.6573eV

 Orbitals saved in record  2100.2


 **********************************************************************************************************************************
 DATASETS  * FILE   NREC   LENGTH (MB)   RECORD NAMES
              1      22       29.43       500      610      700      900      950      970     1000      129      960     1700   
                                          VAR    BASINP    GEOM    SYMINP    ZMAT    AOBASIS   BASIS     P2S    ABASIS    OPER   
                                         1101     1401     1411     1412     1650     1100     1400     1410     1200     1210   
                                          SR      EKINR    POTR     PVPR    MOLCAS      S      EKIN      POT      H0       H01  
                                         1080     1600   
                                         AOSYM     SMH  

              2       4        2.73       700     1000      520     2100   
                                         GEOM     BASIS   MCVARS     RHF  

 PROGRAMS   *        TOTAL   RHF-SCF       INT
 CPU TIMES  *         4.10      0.08      3.84
 REAL TIME  *         4.73 SEC
 DISK USED  *        32.55 MB (local),      448.93 MB (total)
 GA USED    *         0.00 MB       (max)       0.00 MB       (current)
 **********************************************************************************************************************************
 SETTING NSING          =        12.00000000                                  
 SETTING NTRIP          =        16.00000000                                  

 PROGRAM * MULTI (Direct Multiconfiguration SCF)       Authors: P.J. Knowles, H.-J. Werner (1984)
                                                                D.A. Kreplin, P.J. Knowles, H.-J. Werner (2019)

 Number of closed-shell orbitals:  27 (  15  12 )
 Number of active  orbitals:       10 (   7   3 )
 Number of external orbitals:      72 (  29  43 )

 State symmetry 1

 Number of active electrons:   2    Spin symmetry=Singlet   Space symmetry=1
 Number of states:            12
 Number of CSFs:              34   (58 determinants, 100 intermediate states)

 State symmetry 2

 Number of active electrons:   2    Spin symmetry=Triplet   Space symmetry=1
 Number of states:            16
 Number of CSFs:              24   (24 determinants, 45 intermediate states)

 Molecular orbitals read from record     2100.2  Type=RHF/CANONICAL  
 *** IN SYMMETRY 1 ORBITAL  4 SYMMETRY CONTAMINATION OF 0.213D-01 HAS BEEN REMOVED
 *** IN SYMMETRY 1 ORBITAL  5 SYMMETRY CONTAMINATION OF 0.221D-01 HAS BEEN REMOVED
 *** IN SYMMETRY 1 ORBITAL  6 SYMMETRY CONTAMINATION OF 0.362D-01 HAS BEEN REMOVED
 *** IN SYMMETRY 1 ORBITAL  7 SYMMETRY CONTAMINATION OF 0.323D-01 HAS BEEN REMOVED
 *** IN SYMMETRY 1 ORBITAL  8 SYMMETRY CONTAMINATION OF 0.144D-02 HAS BEEN REMOVED
 *** IN SYMMETRY 1 ORBITAL 10 SYMMETRY CONTAMINATION OF 0.742D-01 HAS BEEN REMOVED
 *** IN SYMMETRY 1 ORBITAL 11 SYMMETRY CONTAMINATION OF 0.113D+00 HAS BEEN REMOVED
 *** IN SYMMETRY 1 ORBITAL 12 SYMMETRY CONTAMINATION OF 0.204D-01 HAS BEEN REMOVED
 *** IN SYMMETRY 1 ORBITAL 13 SYMMETRY CONTAMINATION OF 0.101D-01 HAS BEEN REMOVED
 *** IN SYMMETRY 1 ORBITAL 14 SYMMETRY CONTAMINATION OF 0.364D-01 HAS BEEN REMOVED
 *** IN SYMMETRY 1 ORBITAL 18 SYMMETRY CONTAMINATION OF 0.285D+00 HAS BEEN REMOVED
 *** IN SYMMETRY 1 ORBITAL 19 SYMMETRY CONTAMINATION OF 0.287D+00 HAS BEEN REMOVED
 *** IN SYMMETRY 1 ORBITAL 20 SYMMETRY CONTAMINATION OF 0.484D+00 HAS BEEN REMOVED
 *** IN SYMMETRY 1 ORBITAL 21 SYMMETRY CONTAMINATION OF 0.485D+00 HAS BEEN REMOVED
 *** IN SYMMETRY 1 ORBITAL 22 SYMMETRY CONTAMINATION OF 0.102D-01 HAS BEEN REMOVED

 EXTRA SYMMETRY OF MOS IN SYMMETRY 1:   1 1 1 6 4 5 3 2 1 3   5 6 4 2 1 1 1 5 3 6   4 2 5 3 6 4 2 1 6 4   5 3 2 1 6 4 5 3 2 1
                                        6 4 2 5 3 2 4 6 5 3   1
 *** IN SYMMETRY 2 ORBITAL  1 SYMMETRY CONTAMINATION OF 0.259D-01 HAS BEEN REMOVED
 *** IN SYMMETRY 2 ORBITAL  2 SYMMETRY CONTAMINATION OF 0.601D-01 HAS BEEN REMOVED
 *** IN SYMMETRY 2 ORBITAL  3 SYMMETRY CONTAMINATION OF 0.554D-01 HAS BEEN REMOVED
 *** IN SYMMETRY 2 ORBITAL  4 SYMMETRY CONTAMINATION OF 0.196D-02 HAS BEEN REMOVED
 *** IN SYMMETRY 2 ORBITAL  5 SYMMETRY CONTAMINATION OF 0.287D-01 HAS BEEN REMOVED
 *** IN SYMMETRY 2 ORBITAL  6 SYMMETRY CONTAMINATION OF 0.304D-01 HAS BEEN REMOVED
 *** IN SYMMETRY 2 ORBITAL  7 SYMMETRY CONTAMINATION OF 0.158D-02 HAS BEEN REMOVED
 *** IN SYMMETRY 2 ORBITAL  8 SYMMETRY CONTAMINATION OF 0.158D-02 HAS BEEN REMOVED
 *** IN SYMMETRY 2 ORBITAL 10 SYMMETRY CONTAMINATION OF 0.216D-02 HAS BEEN REMOVED
 *** IN SYMMETRY 2 ORBITAL 11 SYMMETRY CONTAMINATION OF 0.206D-02 HAS BEEN REMOVED
 *** IN SYMMETRY 2 ORBITAL 12 SYMMETRY CONTAMINATION OF 0.653D-03 HAS BEEN REMOVED
 *** IN SYMMETRY 2 ORBITAL 14 SYMMETRY CONTAMINATION OF 0.384D-04 HAS BEEN REMOVED
 *** IN SYMMETRY 2 ORBITAL 15 SYMMETRY CONTAMINATION OF 0.384D-04 HAS BEEN REMOVED
 EXTRA SYMMETRY OF MOS IN SYMMETRY 2:   3 1 2 3 1 2 3 2 1 3   2 1 1 2 3 1 2 3 1 2   3 610 8 4 5 7 910 8   4 5 6 9 7 1 2 3 6 7
                                        9 5 410 8 3 2 1 7 9  10 8 5 4 6 3 2 1

 Wavefunction dump at record             2140.2

 Convergence thresholds  0.10E-04 (gradient)  0.10E-05 (energy)

 Weight factors for state symmetry  1:    0.03571   0.03571   0.03571   0.03571   0.03571   0.03571   0.03571   0.03571
                                          0.03571   0.03571   0.03571   0.03571
 Weight factors for state symmetry  2:    0.03571   0.03571   0.03571   0.03571   0.03571   0.03571   0.03571   0.03571
                                          0.03571   0.03571   0.03571   0.03571   0.03571   0.03571   0.03571   0.03571
 
 Number of orbital rotations:  1424  ( 141 closed/active, 951 closed/virtual, 0 active/active, 332 active/virtual )
 Total number of variables:    2504
 
  Second-order MCSCF: L-BFGS accelerated
 
 ITER  MIC  NCI  NEG     ENERGY(VAR)    ENERGY(PROJ) ENERGY CHANGE       GRAD(0)  GRAD(ORB)   GRAD(CI)      STEP      TIME
   1   13   24    5  -8131.82037969   -8131.94378988   -0.12341019    0.05968126 0.00003262 0.00000000  0.23E+01      1.48
   2    8   14    0  -8131.92188002   -8131.92764124   -0.00576122    0.05293998 0.00007265 0.00000000  0.38E+00      2.81
   3   10   16    0  -8131.92769037   -8131.92769369   -0.00000333    0.00100171 0.00000008 0.00000000  0.87E-02      4.19
   4    4    8    0  -8131.92769370   -8131.92769370   -0.00000000    0.00000171 0.00000001 0.00000000  0.19E-04      5.07

 CONVERGENCE REACHED!  Final gradient:    0.00000000 ( 0.73E-09)
                       Final energy:  -8131.92769370
 
 Results for state 1.1 Singlet
 =============================
 !MCSCF STATE 1.1 Singlet Energy             -8132.017637318705
 Nuclear energy                                  0.00000000
 Kinetic energy                               9672.25694661
 One electron energy                        -11098.70337458
 Two electron energy                          2966.68573726
 Virial ratio                                    1.84075699
 
 !MCSCF STATE 1.1 Singlet Dipole moment          0.00000000     0.00000000     0.00000000
 Dipole moment /Debye                            0.00000000     0.00000000     0.00000000
 
 Results for state 2.1 Singlet
 =============================
 !MCSCF STATE 2.1 Singlet Energy             -8131.956347499606
 Nuclear energy                                  0.00000000
 Kinetic energy                               9672.46403651
 One electron energy                        -11101.25010127
 Two electron energy                          2969.29375377
 Virial ratio                                    1.84073265
 
 !MCSCF STATE 2.1 Singlet Dipole moment          0.00000000     0.00000000     0.00000000
 Dipole moment /Debye                            0.00000000     0.00000000     0.00000000
 
 Results for state 3.1 Singlet
 =============================
 !MCSCF STATE 3.1 Singlet Energy             -8131.956347499594
 Nuclear energy                                  0.00000000
 Kinetic energy                               9672.46403651
 One electron energy                        -11101.25010127
 Two electron energy                          2969.29375377
 Virial ratio                                    1.84073265
 
 !MCSCF STATE 3.1 Singlet Dipole moment          0.00000000     0.00000000     0.00000000
 Dipole moment /Debye                            0.00000000     0.00000000     0.00000000
 
 Results for state 4.1 Singlet
 =============================
 !MCSCF STATE 4.1 Singlet Energy             -8131.956347499580
 Nuclear energy                                  0.00000000
 Kinetic energy                               9672.46403651
 One electron energy                        -11101.25010127
 Two electron energy                          2969.29375377
 Virial ratio                                    1.84073265
 
 !MCSCF STATE 4.1 Singlet Dipole moment          0.00000000     0.00000000     0.00000000
 Dipole moment /Debye                            0.00000000     0.00000000     0.00000000
 
 Results for state 5.1 Singlet
 =============================
 !MCSCF STATE 5.1 Singlet Energy             -8131.956347499578
 Nuclear energy                                  0.00000000
 Kinetic energy                               9672.46403650
 One electron energy                        -11101.25010127
 Two electron energy                          2969.29375377
 Virial ratio                                    1.84073265
 
 !MCSCF STATE 5.1 Singlet Dipole moment          0.00000000     0.00000000     0.00000000
 Dipole moment /Debye                            0.00000000     0.00000000     0.00000000
 
 Results for state 6.1 Singlet
 =============================
 !MCSCF STATE 6.1 Singlet Energy             -8131.956347499558
 Nuclear energy                                  0.00000000
 Kinetic energy                               9672.46403650
 One electron energy                        -11101.25010126
 Two electron energy                          2969.29375376
 Virial ratio                                    1.84073265
 
 !MCSCF STATE 6.1 Singlet Dipole moment          0.00000000     0.00000000     0.00000000
 Dipole moment /Debye                            0.00000000     0.00000000     0.00000000
 
 Results for state 7.1 Singlet
 =============================
 !MCSCF STATE 7.1 Singlet Energy             -8131.902243717708
 Nuclear energy                                  0.00000000
 Kinetic energy                               9672.64832534
 One electron energy                        -11103.11349256
 Two electron energy                          2971.21124885
 Virial ratio                                    1.84071104
 
 !MCSCF STATE 7.1 Singlet Dipole moment          0.00000000     0.00000000     0.00000000
 Dipole moment /Debye                            0.00000000     0.00000000     0.00000000
 
 Results for state 8.1 Singlet
 =============================
 !MCSCF STATE 8.1 Singlet Energy             -8131.902243717688
 Nuclear energy                                  0.00000000
 Kinetic energy                               9672.64832534
 One electron energy                        -11103.11349256
 Two electron energy                          2971.21124885
 Virial ratio                                    1.84071104
 
 !MCSCF STATE 8.1 Singlet Dipole moment          0.00000000     0.00000000     0.00000000
 Dipole moment /Debye                            0.00000000     0.00000000     0.00000000
 
 Results for state 9.1 Singlet
 =============================
 !MCSCF STATE 9.1 Singlet Energy             -8131.902243717678
 Nuclear energy                                  0.00000000
 Kinetic energy                               9672.64832534
 One electron energy                        -11103.11349257
 Two electron energy                          2971.21124886
 Virial ratio                                    1.84071104
 
 !MCSCF STATE 9.1 Singlet Dipole moment          0.00000000     0.00000000     0.00000000
 Dipole moment /Debye                            0.00000000     0.00000000     0.00000000
 
 Results for state 10.1 Singlet
 ==============================
 !MCSCF STATE 10.1 Singlet Energy            -8131.902243717662
 Nuclear energy                                  0.00000000
 Kinetic energy                               9672.64832534
 One electron energy                        -11103.11349257
 Two electron energy                          2971.21124886
 Virial ratio                                    1.84071104
 
 !MCSCF STATE 10.1 Singlet Dipole moment         0.00000000     0.00000000     0.00000000
 Dipole moment /Debye                            0.00000000     0.00000000     0.00000000
 
 Results for state 11.1 Singlet
 ==============================
 !MCSCF STATE 11.1 Singlet Energy            -8131.902243717660
 Nuclear energy                                  0.00000000
 Kinetic energy                               9672.64832534
 One electron energy                        -11103.11349257
 Two electron energy                          2971.21124886
 Virial ratio                                    1.84071104
 
 !MCSCF STATE 11.1 Singlet Dipole moment         0.00000000     0.00000000     0.00000000
 Dipole moment /Debye                            0.00000000     0.00000000     0.00000000
 
 Results for state 12.1 Singlet
 ==============================
 !MCSCF STATE 12.1 Singlet Energy            -8131.894867647423
 Nuclear energy                                  0.00000000
 Kinetic energy                               9672.29194703
 One electron energy                        -11097.23024050
 Two electron energy                          2965.33537285
 Virial ratio                                    1.84074125
 
 !MCSCF STATE 12.1 Singlet Dipole moment         0.00000000     0.00000000     0.00000000
 Dipole moment /Debye                            0.00000000     0.00000000     0.00000000
 
 Results for state 1.1 Triplet
 =============================
 !MCSCF STATE 1.1 Triplet Energy             -8131.963112035167
 Nuclear energy                                  0.00000000
 Kinetic energy                               9672.54015175
 One electron energy                        -11101.98781010
 Two electron energy                          2970.02469806
 Virial ratio                                    1.84072674
 
 !MCSCF STATE 1.1 Triplet Dipole moment          0.00000000     0.00000000     0.00000000
 Dipole moment /Debye                            0.00000000     0.00000000     0.00000000
 
 Results for state 2.1 Triplet
 =============================
 !MCSCF STATE 2.1 Triplet Energy             -8131.963112035150
 Nuclear energy                                  0.00000000
 Kinetic energy                               9672.54015175
 One electron energy                        -11101.98781010
 Two electron energy                          2970.02469806
 Virial ratio                                    1.84072674
 
 !MCSCF STATE 2.1 Triplet Dipole moment          0.00000000     0.00000000     0.00000000
 Dipole moment /Debye                            0.00000000     0.00000000     0.00000000
 
 Results for state 3.1 Triplet
 =============================
 !MCSCF STATE 3.1 Triplet Energy             -8131.963112035148
 Nuclear energy                                  0.00000000
 Kinetic energy                               9672.54015175
 One electron energy                        -11101.98781010
 Two electron energy                          2970.02469806
 Virial ratio                                    1.84072674
 
 !MCSCF STATE 3.1 Triplet Dipole moment          0.00000000     0.00000000     0.00000000
 Dipole moment /Debye                            0.00000000     0.00000000     0.00000000
 
 Results for state 4.1 Triplet
 =============================
 !MCSCF STATE 4.1 Triplet Energy             -8131.963112035142
 Nuclear energy                                  0.00000000
 Kinetic energy                               9672.54015175
 One electron energy                        -11101.98781009
 Two electron energy                          2970.02469806
 Virial ratio                                    1.84072674
 
 !MCSCF STATE 4.1 Triplet Dipole moment          0.00000000     0.00000000     0.00000000
 Dipole moment /Debye                            0.00000000     0.00000000     0.00000000
 
 Results for state 5.1 Triplet
 =============================
 !MCSCF STATE 5.1 Triplet Energy             -8131.963112035117
 Nuclear energy                                  0.00000000
 Kinetic energy                               9672.54015175
 One electron energy                        -11101.98781009
 Two electron energy                          2970.02469806
 Virial ratio                                    1.84072674
 
 !MCSCF STATE 5.1 Triplet Dipole moment          0.00000000     0.00000000     0.00000000
 Dipole moment /Debye                            0.00000000     0.00000000     0.00000000
 
 Results for state 6.1 Triplet
 =============================
 !MCSCF STATE 6.1 Triplet Energy             -8131.906647920996
 Nuclear energy                                  0.00000000
 Kinetic energy                               9672.85451561
 One electron energy                        -11105.42573678
 Two electron energy                          2973.51908886
 Virial ratio                                    1.84069358
 
 !MCSCF STATE 6.1 Triplet Dipole moment          0.00000000     0.00000000     0.00000000
 Dipole moment /Debye                            0.00000000     0.00000000     0.00000000
 
 Results for state 7.1 Triplet
 =============================
 !MCSCF STATE 7.1 Triplet Energy             -8131.906647920991
 Nuclear energy                                  0.00000000
 Kinetic energy                               9672.85451561
 One electron energy                        -11105.42573679
 Two electron energy                          2973.51908887
 Virial ratio                                    1.84069358
 
 !MCSCF STATE 7.1 Triplet Dipole moment          0.00000000     0.00000000     0.00000000
 Dipole moment /Debye                            0.00000000     0.00000000     0.00000000
 
 Results for state 8.1 Triplet
 =============================
 !MCSCF STATE 8.1 Triplet Energy             -8131.906647920988
 Nuclear energy                                  0.00000000
 Kinetic energy                               9672.85451561
 One electron energy                        -11105.42573679
 Two electron energy                          2973.51908886
 Virial ratio                                    1.84069358
 
 !MCSCF STATE 8.1 Triplet Dipole moment          0.00000000     0.00000000     0.00000000
 Dipole moment /Debye                            0.00000000     0.00000000     0.00000000
 
 Results for state 9.1 Triplet
 =============================
 !MCSCF STATE 9.1 Triplet Energy             -8131.906647920983
 Nuclear energy                                  0.00000000
 Kinetic energy                               9672.85451561
 One electron energy                        -11105.42573678
 Two electron energy                          2973.51908886
 Virial ratio                                    1.84069358
 
 !MCSCF STATE 9.1 Triplet Dipole moment          0.00000000     0.00000000     0.00000000
 Dipole moment /Debye                            0.00000000     0.00000000     0.00000000
 
 Results for state 10.1 Triplet
 ==============================
 !MCSCF STATE 10.1 Triplet Energy            -8131.906647920972
 Nuclear energy                                  0.00000000
 Kinetic energy                               9672.85451561
 One electron energy                        -11105.42573678
 Two electron energy                          2973.51908886
 Virial ratio                                    1.84069358
 
 !MCSCF STATE 10.1 Triplet Dipole moment         0.00000000     0.00000000     0.00000000
 Dipole moment /Debye                            0.00000000     0.00000000     0.00000000
 
 Results for state 11.1 Triplet
 ==============================
 !MCSCF STATE 11.1 Triplet Energy            -8131.906647920950
 Nuclear energy                                  0.00000000
 Kinetic energy                               9672.85451561
 One electron energy                        -11105.42573679
 Two electron energy                          2973.51908886
 Virial ratio                                    1.84069358
 
 !MCSCF STATE 11.1 Triplet Dipole moment         0.00000000     0.00000000     0.00000000
 Dipole moment /Debye                            0.00000000     0.00000000     0.00000000
 
 Results for state 12.1 Triplet
 ==============================
 !MCSCF STATE 12.1 Triplet Energy            -8131.906647920947
 Nuclear energy                                  0.00000000
 Kinetic energy                               9672.85451561
 One electron energy                        -11105.42573679
 Two electron energy                          2973.51908887
 Virial ratio                                    1.84069358
 
 !MCSCF STATE 12.1 Triplet Dipole moment         0.00000000     0.00000000     0.00000000
 Dipole moment /Debye                            0.00000000     0.00000000     0.00000000
 
 Results for state 13.1 Triplet
 ==============================
 !MCSCF STATE 13.1 Triplet Energy            -8131.902545583929
 Nuclear energy                                  0.00000000
 Kinetic energy                               9672.57326509
 One electron energy                        -11102.28297809
 Two electron energy                          2970.38043251
 Virial ratio                                    1.84071760
 
 !MCSCF STATE 13.1 Triplet Dipole moment         0.00000000     0.00000000     0.00000000
 Dipole moment /Debye                            0.00000000     0.00000000     0.00000000
 
 Results for state 14.1 Triplet
 ==============================
 !MCSCF STATE 14.1 Triplet Energy            -8131.902545583924
 Nuclear energy                                  0.00000000
 Kinetic energy                               9672.57326509
 One electron energy                        -11102.28297809
 Two electron energy                          2970.38043251
 Virial ratio                                    1.84071760
 
 !MCSCF STATE 14.1 Triplet Dipole moment         0.00000000     0.00000000     0.00000000
 Dipole moment /Debye                            0.00000000     0.00000000     0.00000000
 
 Results for state 15.1 Triplet
 ==============================
 !MCSCF STATE 15.1 Triplet Energy            -8131.902545583912
 Nuclear energy                                  0.00000000
 Kinetic energy                               9672.57326509
 One electron energy                        -11102.28297808
 Two electron energy                          2970.38043249
 Virial ratio                                    1.84071760
 
 !MCSCF STATE 15.1 Triplet Dipole moment         0.00000000     0.00000000     0.00000000
 Dipole moment /Debye                            0.00000000     0.00000000     0.00000000
 
 Results for state 16.1 Triplet
 ==============================
 !MCSCF STATE 16.1 Triplet Energy            -8131.900230057724
 Nuclear energy                                  0.00000000
 Kinetic energy                               9671.88028045
 One electron energy                        -11092.51707669
 Two electron energy                          2960.61684663
 Virial ratio                                    1.84077759
 
 !MCSCF STATE 16.1 Triplet Dipole moment         0.00000000     0.00000000     0.00000000
 Dipole moment /Debye                            0.00000000     0.00000000     0.00000000
 
 State-averaged charge density matrix saved on record 2140.2 (density set 1)
 
 No non-zero expectation values
 
 Expectation values for two-electron operators:
 
 !MCSCF expec      <1.1 Singlet|LXLX|1.1 Singlet>     0.000000000000
 !MCSCF expec      <2.1 Singlet|LXLX|2.1 Singlet>     0.986168890597
 !MCSCF expec      <3.1 Singlet|LXLX|3.1 Singlet>     3.999994153845
 !MCSCF expec      <4.1 Singlet|LXLX|4.1 Singlet>     1.000033379613
 !MCSCF expec      <5.1 Singlet|LXLX|5.1 Singlet>     1.000003055395
 !MCSCF expec      <6.1 Singlet|LXLX|6.1 Singlet>     3.013800520550
 !MCSCF expec      <7.1 Singlet|LXLX|7.1 Singlet>     0.689010540524
 !MCSCF expec      <8.1 Singlet|LXLX|8.1 Singlet>     0.999997865113
 !MCSCF expec      <9.1 Singlet|LXLX|9.1 Singlet>     3.310991108474
 !MCSCF expec    <10.1 Singlet|LXLX|10.1 Singlet>     3.999009662877
 !MCSCF expec    <11.1 Singlet|LXLX|11.1 Singlet>     1.000990823013
 !MCSCF expec    <12.1 Singlet|LXLX|12.1 Singlet>     0.000000000000
 !MCSCF expec      <1.1 Triplet|LXLX|1.1 Triplet>     3.999999652990
 !MCSCF expec      <2.1 Triplet|LXLX|2.1 Triplet>     2.965878889676
 !MCSCF expec      <3.1 Triplet|LXLX|3.1 Triplet>     1.000231481779
 !MCSCF expec      <4.1 Triplet|LXLX|4.1 Triplet>     1.033898299773
 !MCSCF expec      <5.1 Triplet|LXLX|5.1 Triplet>     0.999991675783
 !MCSCF expec      <6.1 Triplet|LXLX|6.1 Triplet>     4.000261546066
 !MCSCF expec      <7.1 Triplet|LXLX|7.1 Triplet>     5.985892037772
 !MCSCF expec      <8.1 Triplet|LXLX|8.1 Triplet>     2.849119685253
 !MCSCF expec      <9.1 Triplet|LXLX|9.1 Triplet>     1.551096578308
 !MCSCF expec    <10.1 Triplet|LXLX|10.1 Triplet>     4.013739074639
 !MCSCF expec    <11.1 Triplet|LXLX|11.1 Triplet>     1.153275308920
 !MCSCF expec    <12.1 Triplet|LXLX|12.1 Triplet>     8.446615769043
 !MCSCF expec    <13.1 Triplet|LXLX|13.1 Triplet>     0.000046350336
 !MCSCF expec    <14.1 Triplet|LXLX|14.1 Triplet>     0.999954401365
 !MCSCF expec    <15.1 Triplet|LXLX|15.1 Triplet>     0.999999248299
 !MCSCF expec    <16.1 Triplet|LXLX|16.1 Triplet>     0.000000000000
 
 !MCSCF expec      <1.1 Singlet|LYLY|1.1 Singlet>     0.000000000000
 !MCSCF expec      <2.1 Singlet|LYLY|2.1 Singlet>     1.013899594355
 !MCSCF expec      <3.1 Singlet|LYLY|3.1 Singlet>     1.000001978503
 !MCSCF expec      <4.1 Singlet|LYLY|4.1 Singlet>     1.000003977363
 !MCSCF expec      <5.1 Singlet|LYLY|5.1 Singlet>     3.999985248422
 !MCSCF expec      <6.1 Singlet|LYLY|6.1 Singlet>     2.986109201357
 !MCSCF expec      <7.1 Singlet|LYLY|7.1 Singlet>     1.347450491484
 !MCSCF expec      <8.1 Singlet|LYLY|8.1 Singlet>     1.000004470455
 !MCSCF expec      <9.1 Singlet|LYLY|9.1 Singlet>     2.652544876999
 !MCSCF expec    <10.1 Singlet|LYLY|10.1 Singlet>     1.000990621137
 !MCSCF expec    <11.1 Singlet|LYLY|11.1 Singlet>     3.999009539926
 !MCSCF expec    <12.1 Singlet|LYLY|12.1 Singlet>     0.000000000000
 !MCSCF expec      <1.1 Triplet|LYLY|1.1 Triplet>     0.999999445473
 !MCSCF expec      <2.1 Triplet|LYLY|2.1 Triplet>     3.033663646829
 !MCSCF expec      <3.1 Triplet|LYLY|3.1 Triplet>     3.999763298962
 !MCSCF expec      <4.1 Triplet|LYLY|4.1 Triplet>     0.966545393678
 !MCSCF expec      <5.1 Triplet|LYLY|5.1 Triplet>     1.000028215058
 !MCSCF expec      <6.1 Triplet|LYLY|6.1 Triplet>     3.999950749205
 !MCSCF expec      <7.1 Triplet|LYLY|7.1 Triplet>     6.013625033951
 !MCSCF expec      <8.1 Triplet|LYLY|8.1 Triplet>     1.068953830626
 !MCSCF expec      <9.1 Triplet|LYLY|9.1 Triplet>     1.450247972313
 !MCSCF expec    <10.1 Triplet|LYLY|10.1 Triplet>     3.986272863612
 !MCSCF expec    <11.1 Triplet|LYLY|11.1 Triplet>     8.929132901923
 !MCSCF expec    <12.1 Triplet|LYLY|12.1 Triplet>     2.551816648370
 !MCSCF expec    <13.1 Triplet|LYLY|13.1 Triplet>     0.999954410451
 !MCSCF expec    <14.1 Triplet|LYLY|14.1 Triplet>     0.000046192637
 !MCSCF expec    <15.1 Triplet|LYLY|15.1 Triplet>     0.999999396913
 !MCSCF expec    <16.1 Triplet|LYLY|16.1 Triplet>     0.000000000000
 
 !MCSCF expec      <1.1 Singlet|LZLZ|1.1 Singlet>    -0.000000000000
 !MCSCF expec      <2.1 Singlet|LZLZ|2.1 Singlet>     3.999931515048
 !MCSCF expec      <3.1 Singlet|LZLZ|3.1 Singlet>     1.000003867652
 !MCSCF expec      <4.1 Singlet|LZLZ|4.1 Singlet>     3.999962643024
 !MCSCF expec      <5.1 Singlet|LZLZ|5.1 Singlet>     1.000011696183
 !MCSCF expec      <6.1 Singlet|LZLZ|6.1 Singlet>     0.000090278093
 !MCSCF expec      <7.1 Singlet|LZLZ|7.1 Singlet>     3.963538967993
 !MCSCF expec      <8.1 Singlet|LZLZ|8.1 Singlet>     3.999997664433
 !MCSCF expec      <9.1 Singlet|LZLZ|9.1 Singlet>     0.036464014527
 !MCSCF expec    <10.1 Singlet|LZLZ|10.1 Singlet>     0.999999715987
 !MCSCF expec    <11.1 Singlet|LZLZ|11.1 Singlet>     0.999999637061
 !MCSCF expec    <12.1 Singlet|LZLZ|12.1 Singlet>    -0.000000000000
 !MCSCF expec      <1.1 Triplet|LZLZ|1.1 Triplet>     1.000000901537
 !MCSCF expec      <2.1 Triplet|LZLZ|2.1 Triplet>     0.000457463496
 !MCSCF expec      <3.1 Triplet|LZLZ|3.1 Triplet>     1.000005219259
 !MCSCF expec      <4.1 Triplet|LZLZ|4.1 Triplet>     3.999556306549
 !MCSCF expec      <5.1 Triplet|LZLZ|5.1 Triplet>     3.999980109159
 !MCSCF expec      <6.1 Triplet|LZLZ|6.1 Triplet>     3.999787704729
 !MCSCF expec      <7.1 Triplet|LZLZ|7.1 Triplet>     0.000482928277
 !MCSCF expec      <8.1 Triplet|LZLZ|8.1 Triplet>     8.081926484121
 !MCSCF expec      <9.1 Triplet|LZLZ|9.1 Triplet>     8.998655449379
 !MCSCF expec    <10.1 Triplet|LZLZ|10.1 Triplet>     3.999988061748
 !MCSCF expec    <11.1 Triplet|LZLZ|11.1 Triplet>     1.917591789157
 !MCSCF expec    <12.1 Triplet|LZLZ|12.1 Triplet>     1.001567582587
 !MCSCF expec    <13.1 Triplet|LZLZ|13.1 Triplet>     0.999999239213
 !MCSCF expec    <14.1 Triplet|LZLZ|14.1 Triplet>     0.999999405999
 !MCSCF expec    <15.1 Triplet|LZLZ|15.1 Triplet>     0.000001354788
 !MCSCF expec    <16.1 Triplet|LZLZ|16.1 Triplet>    -0.000000000000
 
 !MCSCF expec      <1.1 Singlet|L**2|1.1 Singlet>    -0.000000000000
 !MCSCF expec      <2.1 Singlet|L**2|2.1 Singlet>     6.000000000000
 !MCSCF expec      <3.1 Singlet|L**2|3.1 Singlet>     6.000000000000
 !MCSCF expec      <4.1 Singlet|L**2|4.1 Singlet>     6.000000000000
 !MCSCF expec      <5.1 Singlet|L**2|5.1 Singlet>     6.000000000000
 !MCSCF expec      <6.1 Singlet|L**2|6.1 Singlet>     6.000000000000
 !MCSCF expec      <7.1 Singlet|L**2|7.1 Singlet>     6.000000000000
 !MCSCF expec      <8.1 Singlet|L**2|8.1 Singlet>     6.000000000000
 !MCSCF expec      <9.1 Singlet|L**2|9.1 Singlet>     6.000000000000
 !MCSCF expec    <10.1 Singlet|L**2|10.1 Singlet>     6.000000000000
 !MCSCF expec    <11.1 Singlet|L**2|11.1 Singlet>     6.000000000000
 !MCSCF expec    <12.1 Singlet|L**2|12.1 Singlet>    -0.000000000000
 !MCSCF expec      <1.1 Triplet|L**2|1.1 Triplet>     6.000000000000
 !MCSCF expec      <2.1 Triplet|L**2|2.1 Triplet>     6.000000000000
 !MCSCF expec      <3.1 Triplet|L**2|3.1 Triplet>     6.000000000000
 !MCSCF expec      <4.1 Triplet|L**2|4.1 Triplet>     6.000000000000
 !MCSCF expec      <5.1 Triplet|L**2|5.1 Triplet>     6.000000000000
 !MCSCF expec      <6.1 Triplet|L**2|6.1 Triplet>    12.000000000000
 !MCSCF expec      <7.1 Triplet|L**2|7.1 Triplet>    12.000000000000
 !MCSCF expec      <8.1 Triplet|L**2|8.1 Triplet>    12.000000000000
 !MCSCF expec      <9.1 Triplet|L**2|9.1 Triplet>    12.000000000000
 !MCSCF expec    <10.1 Triplet|L**2|10.1 Triplet>    12.000000000000
 !MCSCF expec    <11.1 Triplet|L**2|11.1 Triplet>    12.000000000000
 !MCSCF expec    <12.1 Triplet|L**2|12.1 Triplet>    12.000000000000
 !MCSCF expec    <13.1 Triplet|L**2|13.1 Triplet>     2.000000000000
 !MCSCF expec    <14.1 Triplet|L**2|14.1 Triplet>     2.000000000000
 !MCSCF expec    <15.1 Triplet|L**2|15.1 Triplet>     2.000000000000
 !MCSCF expec    <16.1 Triplet|L**2|16.1 Triplet>    -0.000000000000
 
  NATURAL ORBITALS (STATE AVERAGED)
  =================================

  Orbital  Occupation    Energy    Cen Mu Typ  Coefficients
    1.1     2.00000 -1382.70563     1  1  s    1.00000
    2.1     2.00000  -222.41513     1  2  s    1.00000
    3.1     2.00000   -48.58856     1  3  s    1.00004
    4.1     2.00000   -29.90185     1  1  d1-  0.99987
    5.1     2.00000   -29.90185     1  1  d2+  0.99987
    6.1     2.00000   -29.90185     1  1  d1+  1.00000
    7.1     2.00000   -29.90185     1  1  d2-  1.00000
    8.1     2.00000   -29.90185     1  1  d0   1.00000
    9.1     2.00000   -10.20949     1  4  s    0.99870
   10.1     2.00000    -3.81048     1  2  d2-  1.00073
   11.1     2.00000    -3.81048     1  2  d2+  1.00073
   12.1     2.00000    -3.81048     1  2  d1-  1.00073
   13.1     2.00000    -3.81048     1  2  d1+  1.00073
   14.1     2.00000    -3.81048     1  2  d0   1.00073
   15.1     2.00000    -1.55513     1  5  s    0.97357
   16.1     0.45071    -0.03346     1  6  s    1.12961
   17.1     0.25892     0.05496     1  3  d2+ -0.89000
   18.1     0.25892     0.05496     1  3  d1- -0.89000
   19.1     0.25892     0.05496     1  3  d2- -0.89000
   20.1     0.25892     0.05496     1  3  d0  -0.89000
   21.1     0.25892     0.05496     1  3  d1+ -0.89000
   22.1     0.06264     0.03997     1  6  s   -1.06015    1  8  s    0.25746    1 11  s    1.31532
    1.2     2.00000  -199.34982     1  1  px   0.99999
    2.2     2.00000  -199.34982     1  1  py   0.99999
    3.2     2.00000  -199.34982     1  1  pz   1.00000
    4.2     2.00000   -40.99971     1  2  px   1.00000
    5.2     2.00000   -40.99971     1  2  pz   1.00000
    6.2     2.00000   -40.99971     1  2  py   1.00000
    7.2     2.00000    -7.65485     1  3  pz   0.99959
    8.2     2.00000    -7.65485     1  3  py   0.99959
    9.2     2.00000    -7.65485     1  3  px   0.99959
   10.2     2.00000    -0.86133     1  4  pz   0.97353
   11.2     2.00000    -0.86133     1  4  py   0.97353
   12.2     2.00000    -0.86133     1  4  px   0.97353
   13.2     0.06402     0.05098     1  5  px   1.06332
   14.2     0.06402     0.05098     1  5  py   1.06332
   15.2     0.06402     0.05098     1  5  pz   1.06332
 *** IN SYMMETRY  1 ORBITAL   4 SYMMETRY CONTAMINATION OF 0.160D-01 HAS BEEN REMOVED
 *** IN SYMMETRY  1 ORBITAL   5 SYMMETRY CONTAMINATION OF 0.160D-01 HAS BEEN REMOVED
 *** IN SYMMETRY  1 ORBITAL   6 SYMMETRY CONTAMINATION OF 0.333D-03 HAS BEEN REMOVED
 *** IN SYMMETRY  1 ORBITAL   7 SYMMETRY CONTAMINATION OF 0.971D-03 HAS BEEN REMOVED
 *** IN SYMMETRY  1 ORBITAL   8 SYMMETRY CONTAMINATION OF 0.209D-03 HAS BEEN REMOVED
 *** IN SYMMETRY  1 ORBITAL  10 SYMMETRY CONTAMINATION OF 0.310D-02 HAS BEEN REMOVED
 *** IN SYMMETRY  1 ORBITAL  11 SYMMETRY CONTAMINATION OF 0.310D-02 HAS BEEN REMOVED
 *** IN SYMMETRY  1 ORBITAL  12 SYMMETRY CONTAMINATION OF 0.155D-02 HAS BEEN REMOVED
 *** IN SYMMETRY  1 ORBITAL  13 SYMMETRY CONTAMINATION OF 0.155D-02 HAS BEEN REMOVED
 *** IN SYMMETRY  1 ORBITAL  14 SYMMETRY CONTAMINATION OF 0.330D-04 HAS BEEN REMOVED
 *** IN SYMMETRY  1 ORBITAL  25 SYMMETRY CONTAMINATION OF 0.246D-04 HAS BEEN REMOVED
 *** IN SYMMETRY  1 ORBITAL  26 SYMMETRY CONTAMINATION OF 0.254D-04 HAS BEEN REMOVED
 *** IN SYMMETRY  1 ORBITAL  27 SYMMETRY CONTAMINATION OF 0.137D-04 HAS BEEN REMOVED
 *** IN SYMMETRY  1 ORBITAL  29 SYMMETRY CONTAMINATION OF 0.301D-04 HAS BEEN REMOVED
 *** IN SYMMETRY  1 ORBITAL  30 SYMMETRY CONTAMINATION OF 0.300D-04 HAS BEEN REMOVED
 *** IN SYMMETRY  1 ORBITAL  32 SYMMETRY CONTAMINATION OF 0.132D-04 HAS BEEN REMOVED
 *** IN SYMMETRY  1 ORBITAL  33 SYMMETRY CONTAMINATION OF 0.129D-04 HAS BEEN REMOVED
 *** IN SYMMETRY  1 ORBITAL  41 SYMMETRY CONTAMINATION OF 0.318D-04 HAS BEEN REMOVED
 *** IN SYMMETRY  1 ORBITAL  42 SYMMETRY CONTAMINATION OF 0.240D-04 HAS BEEN REMOVED
 *** IN SYMMETRY  1 ORBITAL  43 SYMMETRY CONTAMINATION OF 0.290D-04 HAS BEEN REMOVED
 *** IN SYMMETRY  1 ORBITAL  47 SYMMETRY CONTAMINATION OF 0.135D-04 HAS BEEN REMOVED
 *** IN SYMMETRY  1 ORBITAL  48 SYMMETRY CONTAMINATION OF 0.135D-04 HAS BEEN REMOVED

 EXTRA SYMMETRY OF MOS IN SYMMETRY 1:   1 1 1 6 5 4 3 2 1 3   5 6 4 2 1 1 5 6 3 2   4 1 5 3 6 4 2 1 6 4   5 3 2 1 6 4 5 3 2 1
                                        6 4 2 5 3 2 4 6 5 3   1
 *** IN SYMMETRY  2 ORBITAL   1 SYMMETRY CONTAMINATION OF 0.504D-02 HAS BEEN REMOVED
 *** IN SYMMETRY  2 ORBITAL   2 SYMMETRY CONTAMINATION OF 0.504D-02 HAS BEEN REMOVED
 *** IN SYMMETRY  2 ORBITAL   4 SYMMETRY CONTAMINATION OF 0.217D-03 HAS BEEN REMOVED
 *** IN SYMMETRY  2 ORBITAL   6 SYMMETRY CONTAMINATION OF 0.217D-03 HAS BEEN REMOVED
 *** IN SYMMETRY  2 ORBITAL   8 SYMMETRY CONTAMINATION OF 0.102D-02 HAS BEEN REMOVED
 *** IN SYMMETRY  2 ORBITAL   9 SYMMETRY CONTAMINATION OF 0.102D-02 HAS BEEN REMOVED
 *** IN SYMMETRY  2 ORBITAL  16 SYMMETRY CONTAMINATION OF 0.165D-04 HAS BEEN REMOVED
 *** IN SYMMETRY  2 ORBITAL  17 SYMMETRY CONTAMINATION OF 0.304D-02 HAS BEEN REMOVED
 *** IN SYMMETRY  2 ORBITAL  18 SYMMETRY CONTAMINATION OF 0.304D-02 HAS BEEN REMOVED
 *** IN SYMMETRY  2 ORBITAL  19 SYMMETRY CONTAMINATION OF 0.953D-04 HAS BEEN REMOVED
 *** IN SYMMETRY  2 ORBITAL  20 SYMMETRY CONTAMINATION OF 0.953D-04 HAS BEEN REMOVED
 *** IN SYMMETRY  2 ORBITAL  23 SYMMETRY CONTAMINATION OF 0.865D-03 HAS BEEN REMOVED
 *** IN SYMMETRY  2 ORBITAL  24 SYMMETRY CONTAMINATION OF 0.865D-03 HAS BEEN REMOVED
 *** IN SYMMETRY  2 ORBITAL  25 SYMMETRY CONTAMINATION OF 0.721D-04 HAS BEEN REMOVED
 *** IN SYMMETRY  2 ORBITAL  26 SYMMETRY CONTAMINATION OF 0.707D-04 HAS BEEN REMOVED
 *** IN SYMMETRY  2 ORBITAL  27 SYMMETRY CONTAMINATION OF 0.271D-02 HAS BEEN REMOVED
 *** IN SYMMETRY  2 ORBITAL  28 SYMMETRY CONTAMINATION OF 0.271D-02 HAS BEEN REMOVED
 *** IN SYMMETRY  2 ORBITAL  29 SYMMETRY CONTAMINATION OF 0.709D-04 HAS BEEN REMOVED
 *** IN SYMMETRY  2 ORBITAL  30 SYMMETRY CONTAMINATION OF 0.144D-04 HAS BEEN REMOVED
 *** IN SYMMETRY  2 ORBITAL  31 SYMMETRY CONTAMINATION OF 0.774D-04 HAS BEEN REMOVED
 *** IN SYMMETRY  2 ORBITAL  32 SYMMETRY CONTAMINATION OF 0.121D-04 HAS BEEN REMOVED
 *** IN SYMMETRY  2 ORBITAL  33 SYMMETRY CONTAMINATION OF 0.207D-04 HAS BEEN REMOVED
 *** IN SYMMETRY  2 ORBITAL  34 SYMMETRY CONTAMINATION OF 0.139D-02 HAS BEEN REMOVED
 *** IN SYMMETRY  2 ORBITAL  35 SYMMETRY CONTAMINATION OF 0.139D-02 HAS BEEN REMOVED
 *** IN SYMMETRY  2 ORBITAL  40 SYMMETRY CONTAMINATION OF 0.211D-02 HAS BEEN REMOVED
 *** IN SYMMETRY  2 ORBITAL  41 SYMMETRY CONTAMINATION OF 0.211D-02 HAS BEEN REMOVED
 *** IN SYMMETRY  2 ORBITAL  42 SYMMETRY CONTAMINATION OF 0.431D-04 HAS BEEN REMOVED
 *** IN SYMMETRY  2 ORBITAL  43 SYMMETRY CONTAMINATION OF 0.415D-04 HAS BEEN REMOVED
 *** IN SYMMETRY  2 ORBITAL  44 SYMMETRY CONTAMINATION OF 0.393D-04 HAS BEEN REMOVED
 *** IN SYMMETRY  2 ORBITAL  45 SYMMETRY CONTAMINATION OF 0.376D-04 HAS BEEN REMOVED
 *** IN SYMMETRY  2 ORBITAL  49 SYMMETRY CONTAMINATION OF 0.396D-02 HAS BEEN REMOVED
 *** IN SYMMETRY  2 ORBITAL  50 SYMMETRY CONTAMINATION OF 0.396D-02 HAS BEEN REMOVED
 *** IN SYMMETRY  2 ORBITAL  51 SYMMETRY CONTAMINATION OF 0.682D-02 HAS BEEN REMOVED
 *** IN SYMMETRY  2 ORBITAL  52 SYMMETRY CONTAMINATION OF 0.682D-02 HAS BEEN REMOVED
 EXTRA SYMMETRY OF MOS IN SYMMETRY 2:   1 2 3 1 3 2 3 2 1 3   2 1 1 2 3 3 2 1 1 2   3 6 810 4 5 7 910 8   4 5 6 9 7 3 1 2 6 7
                                        9 5 410 8 3 2 1 7 9   810 5 4 6 3 2 1
 
 Natural orbital dump (state averaged) at molpro section 2140.2 (Orbital set 2)
 
 Reoptimze the CI vectors with natural orbitals 
 
 CI Coefficients of symmetry 1 (Singlet)
 =======================================

 State:                1               2               3               4               5               6               7
 2000000 000      0.95528528      0.00000000     -0.00000000     -0.00000000     -0.00000000     -0.00000000      0.00000000
 b0a0000 000      0.00000000     -0.00055361     -0.64550179     -0.00048361      0.00029168      0.00023014     -0.00000061
 a0b0000 000     -0.00000000      0.00055361      0.64550179      0.00048361     -0.00029168     -0.00023014      0.00000061
 a0000b0 000     -0.00000000     -0.00056008      0.00029283     -0.00107025      0.64550101     -0.00037305      0.00000341
 b0000a0 000      0.00000000      0.00056008     -0.00029283      0.00107025     -0.64550101      0.00037305     -0.00000341
 b00a000 000      0.00000000      0.00136064      0.00048254     -0.64549771     -0.00106833      0.00164859     -0.00006254
 a00b000 000     -0.00000000     -0.00136064     -0.00048254      0.64549771      0.00106833     -0.00164859      0.00006254
 ab00000 000      0.00000000      0.64549523     -0.00055346      0.00136588      0.00056408      0.00257924     -0.04574316
 ba00000 000     -0.00000000     -0.64549523      0.00055346     -0.00136588     -0.00056408     -0.00257924      0.04574316
 a000b00 000      0.00000000     -0.00258284      0.00023129      0.00164269      0.00037343      0.64549491      0.00438758
 b000a00 000     -0.00000000      0.00258284     -0.00023129     -0.00164269     -0.00037343     -0.64549491     -0.00438758
 b00000a 000      0.02919655     -0.00000000      0.00000000      0.00000000      0.00000000      0.00000000     -0.00000000
 a00000b 000     -0.02919655      0.00000000     -0.00000000     -0.00000000     -0.00000000     -0.00000000      0.00000000
 000ba00 000      0.00000000      0.00027387      0.00009713     -0.12992624     -0.00021504      0.00033183      0.00063837
 000ab00 000     -0.00000000     -0.00027387     -0.00009713      0.12992624      0.00021504     -0.00033183     -0.00063837
 0200000 000     -0.04621881     -0.00051988      0.00004655      0.00033064      0.00007516      0.12992568     -0.04478220
 0002000 000     -0.04621881     -0.00051988      0.00004655      0.00033064      0.00007516      0.12992568     -0.04478220
 0000200 000     -0.04621881      0.00051988     -0.00004655     -0.00033064     -0.00007516     -0.12992568      0.04478220
 0a00b00 000      0.00000000      0.12992574     -0.00011140      0.00027492      0.00011354      0.00051915      0.46688161
 0b00a00 000     -0.00000000     -0.12992574      0.00011140     -0.00027492     -0.00011354     -0.00051915     -0.46688161
 0020000 000     -0.04621881      0.11277893     -0.00011975      0.00007277      0.00006075     -0.06451324      0.42672244
 00a00b0 000      0.00000000      0.00023718      0.00008411     -0.11251943     -0.00018623      0.00028737      0.00055284
 00b00a0 000     -0.00000000     -0.00023718     -0.00008411      0.11251943      0.00018623     -0.00028737     -0.00055284
 0ab0000 000     -0.00000000      0.00009650      0.11252014      0.00008430     -0.00005084     -0.00004012     -0.00000537
 0ba0000 000      0.00000000     -0.00009650     -0.11252014     -0.00008430      0.00005084      0.00004012      0.00000537
 000a0b0 000      0.00000000     -0.00009650     -0.11252014     -0.00008430      0.00005084      0.00004012      0.00000537
 000b0a0 000     -0.00000000      0.00009650      0.11252014      0.00008430     -0.00005084     -0.00004012     -0.00000537
 0a000b0 000      0.00000000      0.00009763     -0.00005104      0.00018656     -0.11252000      0.00006503      0.00003018
 0b000a0 000     -0.00000000     -0.00009763      0.00005104     -0.00018656      0.11252000     -0.00006503     -0.00003018
 00ab000 000      0.00000000      0.00009763     -0.00005104      0.00018656     -0.11252000      0.00006503      0.00003018
 00ba000 000     -0.00000000     -0.00009763      0.00005104     -0.00018656      0.11252000     -0.00006503     -0.00003018
 0000020 000     -0.04621881     -0.11225906      0.00007320     -0.00040341     -0.00013591     -0.06541244     -0.38194023
 0000000 002     -0.15781371      0.00106276     -0.00009517     -0.00067592     -0.00015365     -0.26560132     -0.03556071
 0000000 200     -0.15781370     -0.23054899      0.00024481     -0.00014876     -0.00012418      0.13188157      0.33885232
 0000000 ba0     -0.00000000     -0.00048485     -0.00017195      0.23001849      0.00038069     -0.00058746      0.00043900
 0000000 ab0      0.00000000      0.00048485      0.00017195     -0.23001849     -0.00038069      0.00058746     -0.00043900
 0000000 0ab      0.00000000     -0.00019728     -0.23001994     -0.00017233      0.00010394      0.00008201     -0.00000426
 0000000 0ba     -0.00000000      0.00019728      0.23001994      0.00017233     -0.00010394     -0.00008201      0.00000426
 0000000 b0a     -0.00000000     -0.00019958      0.00010435     -0.00038138      0.23001967     -0.00013293      0.00002397
 0000000 a0b      0.00000000      0.00019958     -0.00010435      0.00038138     -0.23001967      0.00013293     -0.00002397
 0000000 020     -0.15781370      0.22948623     -0.00014964      0.00082468      0.00027783      0.13371976     -0.30329161
 00a0b00 000      0.00000000     -0.00005572     -0.06496353     -0.00004867      0.00002935      0.00002316      0.00000310
 00b0a00 000     -0.00000000      0.00005572      0.06496353      0.00004867     -0.00002935     -0.00002316     -0.00000310
 0000ba0 000      0.00000000     -0.00005637      0.00002947     -0.00010771      0.06496345     -0.00003754     -0.00001743
 0000ab0 000     -0.00000000      0.00005637     -0.00002947      0.00010771     -0.06496345      0.00003754      0.00001743
 0000002 000     -0.01813193     -0.00000000      0.00000000      0.00000000      0.00000000      0.00000000     -0.00000000
 000a00b 000     -0.00000000     -0.00006237     -0.00002212      0.02959087      0.00004897     -0.00007557      0.00012826
 000b00a 000      0.00000000      0.00006237      0.00002212     -0.02959087     -0.00004897      0.00007557     -0.00012826
 00a000b 000     -0.00000000      0.00002538      0.02959106      0.00002217     -0.00001337     -0.00001055      0.00000125
 00b000a 000      0.00000000     -0.00002538     -0.02959106     -0.00002217      0.00001337      0.00001055     -0.00000125
 00000ba 000      0.00000000      0.00002568     -0.00001342      0.00004906     -0.02959102      0.00001710     -0.00000700
 00000ab 000     -0.00000000     -0.00002568      0.00001342     -0.00004906      0.02959102     -0.00001710      0.00000700
 0000b0a 000     -0.00000000      0.00011840     -0.00001060     -0.00007530     -0.00001712     -0.02959074     -0.00899737
 0000a0b 000      0.00000000     -0.00011840      0.00001060      0.00007530      0.00001712      0.02959074      0.00899737
 0b0000a 000     -0.00000000     -0.02959076      0.00002537     -0.00006261     -0.00002586     -0.00011824      0.09380300
 0a0000b 000      0.00000000      0.02959076     -0.00002537      0.00006261      0.00002586      0.00011824     -0.09380300
 
 Energy:      -8132.01763732  -8131.95634750  -8131.95634750  -8131.95634750  -8131.95634750  -8131.95634750  -8131.90224372

 State:                8               9              10              11              12
 2000000 000     -0.00000000     -0.00000000     -0.00000000     -0.00000000     -0.00345007
 b0a0000 000      0.00000749      0.00002801      0.04594560      0.00083186      0.00000000
 a0b0000 000     -0.00000749     -0.00002801     -0.04594560     -0.00083186     -0.00000000
 a0000b0 000     -0.00000620     -0.00003032     -0.00083184      0.04594560      0.00000000
 b0000a0 000      0.00000620      0.00003032      0.00083184     -0.04594560     -0.00000000
 b00a000 000      0.04595309      0.00002817     -0.00000762      0.00000609      0.00000000
 a00b000 000     -0.04595309     -0.00002817      0.00000762     -0.00000609     -0.00000000
 ab00000 000     -0.00005957     -0.00438762      0.00000207      0.00000053     -0.00000000
 ba00000 000      0.00005957      0.00438762     -0.00000207     -0.00000053      0.00000000
 a000b00 000      0.00003403     -0.04574317      0.00002848     -0.00002999      0.00000000
 b000a00 000     -0.00003403      0.04574317     -0.00002848      0.00002999     -0.00000000
 b00000a 000     -0.00000000      0.00000000     -0.00000000      0.00000000     -0.55012756
 a00000b 000      0.00000000     -0.00000000      0.00000000     -0.00000000      0.55012756
 000ba00 000     -0.46902430     -0.00028756      0.00007782     -0.00006213      0.00000000
 000ab00 000      0.46902430      0.00028756     -0.00007782      0.00006213     -0.00000000
 0200000 000     -0.00034729      0.46688173     -0.00029066      0.00030610      0.23261188
 0002000 000     -0.00034729      0.46688173     -0.00029066      0.00030610      0.23261188
 0000200 000      0.00034729     -0.46688173      0.00029066     -0.00030610      0.23261188
 0a00b00 000      0.00060799      0.04478264     -0.00002113     -0.00000545     -0.00000000
 0b00a00 000     -0.00060799     -0.04478264      0.00002113      0.00000545      0.00000000
 0020000 000      0.00070018     -0.19465797      0.00012703     -0.00015777      0.23261188
 00a00b0 000     -0.40618696     -0.00024903      0.00006739     -0.00005380      0.00000000
 00b00a0 000      0.40618696      0.00024903     -0.00006739      0.00005380     -0.00000000
 0ab0000 000      0.00006625      0.00024755      0.40612078      0.00735294     -0.00000000
 0ba0000 000     -0.00006625     -0.00024755     -0.40612078     -0.00735294      0.00000000
 000a0b0 000     -0.00006625     -0.00024755     -0.40612078     -0.00735294      0.00000000
 000b0a0 000      0.00006625      0.00024755      0.40612078      0.00735294     -0.00000000
 0a000b0 000     -0.00005481     -0.00026798     -0.00735277      0.40612077      0.00000000
 0b000a0 000      0.00005481      0.00026798      0.00735277     -0.40612077     -0.00000000
 00ab000 000     -0.00005481     -0.00026798     -0.00735277      0.40612077      0.00000000
 00ba000 000      0.00005481      0.00026798      0.00735277     -0.40612077     -0.00000000
 0000020 000     -0.00035289     -0.27222377      0.00016363     -0.00014833      0.23261188
 0000000 002     -0.00027577      0.37074206     -0.00023081      0.00024307     -0.18237371
 0000000 200      0.00055600     -0.15457425      0.00010087     -0.00012528     -0.18237371
 0000000 ba0     -0.32254548     -0.00019775      0.00005351     -0.00004272      0.00000000
 0000000 ab0      0.32254548      0.00019775     -0.00005351      0.00004272     -0.00000000
 0000000 0ab      0.00005261      0.00019657      0.32249293      0.00583883     -0.00000000
 0000000 0ba     -0.00005261     -0.00019657     -0.32249293     -0.00583883      0.00000000
 0000000 b0a     -0.00004352     -0.00021280     -0.00583869      0.32249292      0.00000000
 0000000 a0b      0.00004352      0.00021280      0.00583869     -0.32249292     -0.00000000
 0000000 020     -0.00028023     -0.21616781      0.00012993     -0.00011779     -0.18237371
 00a0b00 000     -0.00003825     -0.00014292     -0.23447394     -0.00424522      0.00000000
 00b0a00 000      0.00003825      0.00014292      0.23447394      0.00424522     -0.00000000
 0000ba0 000      0.00003164      0.00015472      0.00424512     -0.23447394     -0.00000000
 0000ab0 000     -0.00003164     -0.00015472     -0.00424512      0.23447394      0.00000000
 0000002 000     -0.00000000      0.00000000     -0.00000000      0.00000000     -0.15615859
 000a00b 000     -0.09423350     -0.00005777      0.00001563     -0.00001248      0.00000000
 000b00a 000      0.09423350      0.00005777     -0.00001563      0.00001248     -0.00000000
 00a000b 000     -0.00001537     -0.00005743     -0.09421814     -0.00170585     -0.00000000
 00b000a 000      0.00001537      0.00005743      0.09421814      0.00170585      0.00000000
 00000ba 000      0.00001272      0.00006217      0.00170581     -0.09421814     -0.00000000
 00000ab 000     -0.00001272     -0.00006217     -0.00170581      0.09421814      0.00000000
 0000b0a 000     -0.00006977      0.09380302     -0.00005840      0.00006150     -0.00000000
 0000a0b 000      0.00006977     -0.09380302      0.00005840     -0.00006150      0.00000000
 0b0000a 000      0.00012215      0.00899745     -0.00000424     -0.00000109     -0.00000000
 0a0000b 000     -0.00012215     -0.00899745      0.00000424      0.00000109      0.00000000
 
 Energy:      -8131.90224372  -8131.90224372  -8131.90224372  -8131.90224372  -8131.89486765
 
 
 CI Coefficients of symmetry 1 (Triplet)
 =======================================

 State:                1               2               3               4               5               6               7
 a00000a 000     -0.00000000     -0.00000000      0.00000000     -0.00000000      0.00000000      0.00000000     -0.00000000
 a0a0000 000      0.99999920     -0.00069275      0.00004506     -0.00065581      0.00024755      0.00000000      0.00000000
 a00a000 000     -0.00024755      0.00222697     -0.00024599     -0.00236318      0.99999435     -0.00000000     -0.00000000
 000aa00 000      0.00000000     -0.00000000      0.00000000      0.00000000     -0.00000000     -0.00263988      0.00180445
 0a00a00 000     -0.00000000      0.00000000      0.00000000     -0.00000000     -0.00000000      0.99996644     -0.00749986
 a0000a0 000     -0.00003693      0.00745504      0.99996125      0.00460687      0.00024026     -0.00000000      0.00000000
 aa00000 000      0.00064862     -0.00976001     -0.00453455      0.99993872      0.00238383      0.00000000     -0.00000000
 a000a00 000      0.00069996      0.99992154     -0.00749901      0.00973063     -0.00220548     -0.00000000      0.00000000
 00a00a0 000     -0.00000000      0.00000000     -0.00000000      0.00000000      0.00000000      0.00670280      0.89438618
 0aa0000 000     -0.00000000      0.00000000     -0.00000000      0.00000000     -0.00000000      0.00156970      0.00481224
 000a0a0 000      0.00000000     -0.00000000     -0.00000000     -0.00000000      0.00000000      0.00063283      0.00246968
 0a0a000 000     -0.00000000      0.00000000     -0.00000000      0.00000000      0.00000000      0.00335140      0.44719309
 00aa000 000      0.00000000     -0.00000000     -0.00000000     -0.00000000     -0.00000000      0.00027317      0.00058424
 0a000a0 000      0.00000000      0.00000000      0.00000000      0.00000000      0.00000000      0.00081066      0.00086283
 0000aa0 000     -0.00000000      0.00000000      0.00000000      0.00000000      0.00000000      0.00031032      0.00016084
 00a0a00 000     -0.00000000      0.00000000     -0.00000000      0.00000000     -0.00000000      0.00054090      0.00135248
 0000000 aa0     -0.00000000     -0.00000000     -0.00000000     -0.00000000     -0.00000000      0.00000000      0.00000000
 0000000 a0a      0.00000000      0.00000000      0.00000000      0.00000000      0.00000000      0.00000000     -0.00000000
 0000000 0aa      0.00000000     -0.00000000      0.00000000     -0.00000000      0.00000000      0.00000000      0.00000000
 
 Energy:      -8131.96311204  -8131.96311204  -8131.96311204  -8131.96311204  -8131.96311204  -8131.90664792  -8131.90664792

 State:                8               9              10              11              12              13              14
 a00000a 000      0.00000000     -0.00000000     -0.00000000      0.00000000     -0.00000000      0.00000000     -0.00000000
 a0a0000 000      0.00000000     -0.00000000     -0.00000000     -0.00000000      0.00000000      0.00000000     -0.00000000
 a00a000 000      0.00000000     -0.00000000      0.00000000     -0.00000000     -0.00000000      0.00000000      0.00000000
 000aa00 000      0.00023681     -0.00077703      0.99999417     -0.00076297     -0.00043374      0.00000000     -0.00000000
 0a00a00 000     -0.00171685     -0.00074437      0.00265314      0.00026223     -0.00050591     -0.00000000     -0.00000000
 a0000a0 000      0.00000000      0.00000000     -0.00000000     -0.00000000     -0.00000000     -0.00000000     -0.00000000
 aa00000 000     -0.00000000     -0.00000000      0.00000000      0.00000000     -0.00000000      0.00000000     -0.00000000
 a000a00 000      0.00000000      0.00000000      0.00000000     -0.00000000      0.00000000      0.00000000      0.00000000
 00a00a0 000     -0.00499853     -0.00088560     -0.00159562      0.00023619     -0.00025013     -0.00031510     -0.00028635
 0aa0000 000      0.85079987     -0.00466098     -0.00041757     -0.27578840      0.00572821     -0.37015196      0.00250182
 000a0a0 000      0.47976918     -0.00465529      0.00044996      0.75472545     -0.01351477      0.37015196     -0.00250182
 0a0a000 000     -0.00249926     -0.00044280     -0.00079781      0.00011810     -0.00012506      0.00063019      0.00057269
 00aa000 000      0.00483831      0.71409752      0.00031349     -0.00831596     -0.53849016      0.00250158      0.37015198
 0a000a0 000      0.00390546      0.69996616      0.00079402      0.01179926      0.55667842     -0.00250158     -0.37015198
 0000aa0 000     -0.00053858     -0.00815874      0.00027743      0.01161353      0.63229587      0.00433286      0.64112204
 00a0a00 000      0.21421467     -0.00000329     -0.00050087     -0.59496745      0.01110994      0.64112200     -0.00433328
 0000000 aa0     -0.00000000     -0.00000000     -0.00000000     -0.00000000      0.00000000     -0.00047769     -0.00043410
 0000000 a0a      0.00000000     -0.00000000     -0.00000000     -0.00000000     -0.00000000      0.00379240      0.56115174
 0000000 0aa      0.00000000     -0.00000000      0.00000000      0.00000000     -0.00000000     -0.56115170      0.00379277
 
 Energy:      -8131.90664792  -8131.90664792  -8131.90664792  -8131.90664792  -8131.90664792  -8131.90254558  -8131.90254558

 State:               15              16
 a00000a 000     -0.00000000      1.00000000
 a0a0000 000     -0.00000000     -0.00000000
 a00a000 000     -0.00000000     -0.00000000
 000aa00 000     -0.00000000      0.00000000
 0a00a00 000     -0.00000000     -0.00000000
 a0000a0 000      0.00000000     -0.00000000
 aa00000 000     -0.00000000     -0.00000000
 a000a00 000      0.00000000      0.00000000
 00a00a0 000     -0.37016030     -0.00000000
 0aa0000 000      0.00031315      0.00000000
 000a0a0 000     -0.00031315     -0.00000000
 0a0a000 000      0.74032061      0.00000000
 00aa000 000     -0.00028847      0.00000000
 0a000a0 000      0.00028847     -0.00000000
 0000aa0 000     -0.00049965      0.00000000
 00a0a00 000     -0.00054240     -0.00000000
 0000000 aa0     -0.56116435     -0.00000000
 0000000 a0a     -0.00043732     -0.00000000
 0000000 0aa      0.00047474      0.00000000
 
 Energy:      -8131.90254558  -8131.90023006
 


 **********************************************************************************************************************************
 DATASETS  * FILE   NREC   LENGTH (MB)   RECORD NAMES
              1      24       77.63       500      610      700      900      950      970     1000      129      960     1700   
                                          VAR    BASINP    GEOM    SYMINP    ZMAT    AOBASIS   BASIS     P2S    ABASIS    OPER   
                                         1101     1401     1411     1412     1650     1100     1400     1410     1200     1210   
                                          SR      EKINR    POTR     PVPR    MOLCAS      S      EKIN      POT      H0       H01  
                                         1080     1600     1380     1700(1)
                                         AOSYM     SMH     JKOP     OPER   

              2       5        5.33       700     1000      520     2100     2140   
                                         GEOM     BASIS   MCVARS     RHF     MCSCF   

 PROGRAMS   *        TOTAL     MULTI   RHF-SCF       INT
 CPU TIMES  *         7.75      3.64      0.08      3.84
 REAL TIME  *        10.49 SEC
 DISK USED  *        83.02 MB (local),        1.03 GB (total)
 SF USED    *       118.66 MB
 GA USED    *         0.00 MB       (max)       0.00 MB       (current)
 **********************************************************************************************************************************

 Energies and &lt;L**2&gt; values

          ENERGY     LL
    -8132.017637   -0.0
    -8131.956347    6.0
    -8131.956347    6.0
    -8131.956347    6.0
    -8131.956347    6.0
    -8131.956347    6.0
    -8131.902244    6.0
    -8131.902244    6.0
    -8131.902244    6.0
    -8131.902244    6.0
    -8131.902244    6.0
    -8131.894868   -0.0
    -8131.963112    6.0
    -8131.963112    6.0
    -8131.963112    6.0
    -8131.963112    6.0
    -8131.963112    6.0
    -8131.906648   12.0
    -8131.906648   12.0
    -8131.906648   12.0
    -8131.906648   12.0
    -8131.906648   12.0
    -8131.906648   12.0
    -8131.906648   12.0
    -8131.902546    2.0
    -8131.902546    2.0
    -8131.902546    2.0
    -8131.900230   -0.0
                                                  


 PROGRAM * CI (Multireference internally contracted CI)     Authors: H.-J. Werner, P.J. Knowles, 1987


 Convergence thresholds:  THRVAR = 1.00D-08  THRDEN = 1.00D-06

 Number of optimized states: 12  Roots:   1   2   3   4   5   6   7   8   9  10  11  12
 Number of reference states: 12  Roots:   1   2   3   4   5   6   7   8   9  10  11  12

 Reference symmetry:                   1   Singlet 
 Number of electrons:                 56
 Maximum number of shells:             5
 Maximum number of spin couplings:    14

 Reference space:       34 conf       34 CSFs
 N elec internal:    29620 conf    75790 CSFs
 N-1 el internal:     9955 conf    31960 CSFs
 N-2 el internal:     1621 conf     5743 CSFs

 Number of electrons in valence space:                     20
 Maximum number of open shell orbitals in reference space:  2
 Maximum number of open shell orbitals in internal spaces:  8


 Number of core orbitals:          18 (   9   9 )
 Number of closed-shell orbitals:   9 (   6   3 )
 Number of active  orbitals:       10 (   7   3 )
 Number of external orbitals:      72 (  29  43 )

 Molecular orbitals read from record     2140.2  Type=MCSCF/NATURAL (state averaged)

 Integral transformation finished. Total CPU:   0.08 sec, npass=  1  Memory used:   1.38 MW


 Number of p-space configurations:  34

 Reference wavefunction optimized for reference space (refopt=1)

 State     Reference Energy 
     1     -8132.01763732
     2     -8131.95634750
     3     -8131.95634750
     4     -8131.95634750
     5     -8131.95634750
     6     -8131.95634750
     7     -8131.90224372
     8     -8131.90224372
     9     -8131.90224372
    10     -8131.90224372
    11     -8131.90224372
    12     -8131.89486765

 Number of blocks in overlap matrix:  1099   Smallest eigenvalue:  0.38D+00
 Number of N-2 electron functions:    1153
 Number of N-1 electron functions:   31960

 Number of internal configurations:                38116
 Number of singly external configurations:       1148936
 Number of doubly external configurations:       1504729
 Total number of contracted configurations:      2691781
 Total number of uncontracted configurations:    8644507

 Diagonal Coupling coefficients finished.               Storage:24934866 words, CPU-Time:     23.67 seconds.
 Energy denominators for pairs finished in 1 passes.    Storage: 1100569 words, CPU-time:      0.16 seconds.

  ITER. STATE  ROOT     SQ.NORM     CORR.ENERGY   TOTAL ENERGY   ENERGY CHANGE       DEN1      VAR(S)    VAR(P)      TIME
    1     1     1     1.00000000     0.00000000 -8132.01763732     0.00000000    -0.58872491  0.37D-01  0.70D-01    31.12
    1     2     2     1.00000000     0.00000000 -8131.95634750     0.00000000    -0.59732211  0.44D-01  0.74D-01    31.12
    1     3     3     1.00000000     0.00000000 -8131.95634750    -0.00000000    -0.59758664  0.45D-01  0.75D-01    31.12
    1     4     4     1.00000000     0.00000000 -8131.95634750     0.00000000    -0.59766000  0.45D-01  0.75D-01    31.12
    1     5     5     1.00000000     0.00000000 -8131.95634750    -0.00000000    -0.59776129  0.45D-01  0.75D-01    31.12
    1     6     6     1.00000000     0.00000000 -8131.95634750     0.00000000    -0.59739893  0.44D-01  0.74D-01    31.12
    1     7     7     1.00000000     0.00000000 -8131.90224372     0.00000000    -0.60024797  0.40D-01  0.81D-01    31.12
    1     8     8     1.00000000     0.00000000 -8131.90224372     0.00000000    -0.60080877  0.40D-01  0.81D-01    31.12
    1     9     9     1.00000000     0.00000000 -8131.90224372    -0.00000000    -0.59988238  0.40D-01  0.81D-01    31.12
    1    10    10     1.00000000     0.00000000 -8131.90224372    -0.00000000    -0.60077772  0.40D-01  0.81D-01    31.12
    1    11    11     1.00000000     0.00000000 -8131.90224372    -0.00000000    -0.60082564  0.40D-01  0.81D-01    31.12
    1    12    12     1.00000000     0.00000000 -8131.89486765     0.00000000    -0.59519434  0.46D-01  0.75D-01    31.12
    2     1     1     1.06737469    -0.48256393 -8132.50020125    -0.48256393    -0.00726532  0.13D-02  0.68D-03   176.08
    2     2     2     1.07354260    -0.48172382 -8132.43807132    -0.48172382    -0.00754415  0.14D-02  0.78D-03   176.08
    2     3     3     1.07355527    -0.48171985 -8132.43806735    -0.48171985    -0.00754917  0.14D-02  0.79D-03   176.08
    2     4     4     1.07367984    -0.48166754 -8132.43801504    -0.48166754    -0.00761739  0.15D-02  0.80D-03   176.08
    2     5     5     1.07367050    -0.48166710 -8132.43801460    -0.48166710    -0.00761532  0.15D-02  0.80D-03   176.08
    2     6     6     1.07372441    -0.48164765 -8132.43799515    -0.48164765    -0.00763964  0.15D-02  0.80D-03   176.08
    2     7     7     1.07406416    -0.48079021 -8132.38303392    -0.48079021    -0.00746551  0.14D-02  0.90D-03   176.08
    2     8     8     1.07419328    -0.48069461 -8132.38293833    -0.48069461    -0.00758536  0.15D-02  0.90D-03   176.08
    2     9     9     1.07438442    -0.48058413 -8132.38282785    -0.48058413    -0.00772919  0.16D-02  0.92D-03   176.08
    2    10    10     1.07441031    -0.48057523 -8132.38281894    -0.48057523    -0.00773890  0.16D-02  0.93D-03   176.08
    2    11    11     1.07438961    -0.48057404 -8132.38281775    -0.48057404    -0.00774023  0.16D-02  0.93D-03   176.08
    2    12    12     1.07402817    -0.48158540 -8132.37645305    -0.48158540    -0.00847834  0.23D-02  0.91D-03   176.08
    3     1     1     1.06736080    -0.48948060 -8132.50711792    -0.00691668    -0.00016878  0.25D-04  0.20D-04   315.92
    3     2     2     1.07128284    -0.48886278 -8132.44521028    -0.00713896    -0.00015643  0.24D-04  0.20D-04   315.92
    3     3     3     1.07128946    -0.48886243 -8132.44520993    -0.00714259    -0.00015685  0.24D-04  0.20D-04   315.92
    3     4     4     1.07129400    -0.48886073 -8132.44520823    -0.00719319    -0.00015886  0.24D-04  0.21D-04   315.92
    3     5     5     1.07129341    -0.48886036 -8132.44520786    -0.00719325    -0.00015915  0.24D-04  0.21D-04   315.92
    3     6     6     1.07129293    -0.48886026 -8132.44520776    -0.00721261    -0.00015929  0.24D-04  0.21D-04   315.92
    3     7     7     1.07135485    -0.48782583 -8132.39006955    -0.00703563    -0.00016104  0.24D-04  0.25D-04   315.92
    3     8     8     1.07135161    -0.48782204 -8132.39006576    -0.00712743    -0.00016510  0.25D-04  0.25D-04   315.92
    3     9     9     1.07135328    -0.48781854 -8132.39006226    -0.00723441    -0.00016914  0.25D-04  0.26D-04   315.92
    3    10    10     1.07135529    -0.48781831 -8132.39006202    -0.00724308    -0.00016933  0.25D-04  0.27D-04   315.92
    3    11    11     1.07135122    -0.48781795 -8132.39006166    -0.00724391    -0.00016974  0.25D-04  0.27D-04   315.92
    3    12    12     1.07014621    -0.48953962 -8132.38440727    -0.00795422    -0.00021818  0.44D-04  0.32D-04   315.92
    4     1     1     1.06825833    -0.48965587 -8132.50729319    -0.00017527    -0.00000615  0.23D-05  0.60D-06   456.20
    4     2     2     1.07198700    -0.48902685 -8132.44537435    -0.00016408    -0.00000456  0.16D-05  0.50D-06   456.20
    4     3     3     1.07198819    -0.48902684 -8132.44537434    -0.00016440    -0.00000459  0.16D-05  0.51D-06   456.20
    4     4     4     1.07198612    -0.48902675 -8132.44537425    -0.00016602    -0.00000469  0.17D-05  0.52D-06   456.20
    4     5     5     1.07198541    -0.48902675 -8132.44537425    -0.00016640    -0.00000468  0.17D-05  0.52D-06   456.20
    4     6     6     1.07198570    -0.48902674 -8132.44537424    -0.00016648    -0.00000469  0.17D-05  0.52D-06   456.20
    4     7     7     1.07204645    -0.48799583 -8132.39023955    -0.00017000    -0.00000577  0.29D-05  0.66D-06   456.20
    4     8     8     1.07204292    -0.48799575 -8132.39023947    -0.00017371    -0.00000588  0.29D-05  0.67D-06   456.20
    4     9     9     1.07203898    -0.48799572 -8132.39023943    -0.00017717    -0.00000597  0.29D-05  0.69D-06   456.20
    4    10    10     1.07203941    -0.48799571 -8132.39023943    -0.00017740    -0.00000597  0.29D-05  0.70D-06   456.20
    4    11    11     1.07203845    -0.48799568 -8132.39023940    -0.00017774    -0.00000600  0.29D-05  0.70D-06   456.20
    4    12    12     1.07076673    -0.48977036 -8132.38463800    -0.00023073    -0.00000857  0.40D-05  0.90D-06   456.20
    5     1     1     1.06836762    -0.48966232 -8132.50729963    -0.00000644    -0.00000032  0.68D-07  0.41D-07   591.72
    5     2     2     1.07203092    -0.48903176 -8132.44537926    -0.00000491    -0.00000021  0.47D-07  0.29D-07   591.72
    5     3     3     1.07203078    -0.48903176 -8132.44537926    -0.00000493    -0.00000021  0.47D-07  0.29D-07   591.72
    5     4     4     1.07203104    -0.48903176 -8132.44537926    -0.00000500    -0.00000022  0.49D-07  0.30D-07   591.72
    5     5     5     1.07203096    -0.48903176 -8132.44537925    -0.00000500    -0.00000022  0.49D-07  0.30D-07   591.72
    5     6     6     1.07203110    -0.48903176 -8132.44537925    -0.00000502    -0.00000022  0.49D-07  0.30D-07   591.72
    5     7     7     1.07204922    -0.48800228 -8132.39024600    -0.00000645    -0.00000037  0.10D-06  0.57D-07   591.72
[...]
 48  1     4    1  |1 1>-         0.00%    0.00%    0.00%    0.00%    0.00%    0.00%    0.00%    0.00%
 49  1     5    1  |1 1>-         0.00%    0.00%    0.00%    0.00%    0.00%    0.00%    0.00%    0.00%
 50  1     6    1  |1 1>-         0.00%    0.00%    0.00%   39.08%    0.00%    0.00%    0.00%    0.00%
 51  1     7    1  |1 1>-         0.00%   49.44%    0.00%    0.00%    0.00%    0.43%    0.00%    0.00%
 52  1     8    1  |1 1>-         0.82%    0.00%   49.17%    0.00%    0.00%    0.00%    3.96%    0.00%
 53  1     9    1  |1 1>-         0.00%    0.00%    0.00%    0.00%   35.70%    0.00%    0.00%    7.17%
 54  1    10    1  |1 1>-         0.00%    0.52%    0.00%    0.00%    0.00%   28.14%    0.00%    0.00%
 55  1    11    1  |1 1>-        49.18%    0.00%    0.82%    0.00%    0.00%    0.00%   24.63%    0.00%
 56  1    12    1  |1 1>-         0.00%    0.00%    0.00%    0.13%    0.00%    0.00%    0.00%    0.00%
 57  1    13    1  |1 1>-         0.00%    0.00%    0.00%    0.00%    0.00%    0.00%    0.00%    0.00%
 58  1    14    1  |1 1>-         0.00%    0.00%    0.00%    0.00%    0.00%    0.00%    0.00%    0.00%
 59  1    15    1  |1 1>-         0.00%    0.00%    0.00%    0.00%    0.00%    0.00%    0.00%    0.00%
 60  1    16    1  |1 1>-         0.00%    0.00%    0.00%    0.00%    0.00%    0.00%    0.00%    0.00%

   Total
 Nr Sym  State Sym Spin / Nr.     41       42       43       44       45       46       47       48

  1  1     1    1  |0 0>          0.00%    0.00%    0.01%    0.00%    0.00%    0.00%    0.00%    0.00%
  2  1     2    1  |0 0>          0.00%    0.00%    0.00%    0.00%    0.00%    0.00%    0.00%    0.00%
  3  1     3    1  |0 0>          0.00%    0.00%    0.00%    0.00%    0.00%    0.00%    0.00%    0.00%
  4  1     4    1  |0 0>          0.00%    0.00%    0.00%    0.00%    0.00%    0.00%    0.00%    0.00%
  5  1     5    1  |0 0>          0.00%    0.00%    0.00%    0.00%    0.00%    0.00%    0.00%    0.00%
  6  1     6    1  |0 0>          0.00%    0.00%    0.00%    0.00%    0.00%    0.00%    0.00%    0.00%
  7  1     7    1  |0 0>          0.00%    0.00%    0.00%   76.22%    0.00%    0.00%    0.00%    0.00%
  8  1     8    1  |0 0>          0.00%    0.00%    0.00%    0.00%   76.22%    0.00%    0.00%    0.00%
  9  1     9    1  |0 0>          0.00%    0.00%    0.00%    0.00%    0.00%   76.22%    0.00%    0.00%
 10  1    10    1  |0 0>          0.00%    0.00%    0.00%    0.00%    0.00%    0.00%   12.56%   63.65%
 11  1    11    1  |0 0>          0.00%    0.00%    0.00%    0.00%    0.00%    0.00%   63.64%   12.56%
 12  1    12    1  |0 0>          0.00%    0.00%    7.72%    0.00%    0.00%    0.00%    0.00%    0.00%
 13  1     1    1  |1 1>+         0.00%    0.00%    0.00%    0.00%    0.00%    0.00%    0.00%    0.00%
 14  1     2    1  |1 1>+         0.00%    0.00%    0.00%    0.00%    0.00%    0.00%    0.00%    0.00%
 15  1     3    1  |1 1>+         0.00%    0.00%    0.00%    0.00%    0.00%    0.00%    0.00%    0.00%
 16  1     4    1  |1 1>+         0.00%    0.00%    0.00%    0.00%    0.00%    0.00%    0.00%    0.00%
 17  1     5    1  |1 1>+         0.00%    0.00%    0.00%    0.00%    0.00%    0.00%    0.00%    0.00%
 18  1     6    1  |1 1>+         0.00%    0.00%    0.00%    0.00%    0.00%    0.25%    0.00%    0.00%
 19  1     7    1  |1 1>+         0.00%    0.00%    0.00%    0.40%    0.00%    0.00%    0.00%    0.00%
 20  1     8    1  |1 1>+         0.00%    0.10%    0.00%    0.00%    0.00%    0.00%    0.04%    0.31%
 21  1     9    1  |1 1>+         7.17%    0.00%    0.00%    0.00%    0.25%    0.00%    0.00%    0.00%
 22  1    10    1  |1 1>+         0.00%    0.00%    0.00%    0.01%    0.00%    0.00%    0.00%    0.00%
 23  1    11    1  |1 1>+         0.00%   21.37%    0.00%    0.00%    0.00%    0.00%    0.23%    0.13%
 24  1    12    1  |1 1>+         0.00%    0.00%    0.00%    0.00%    0.00%    0.15%    0.00%    0.00%
 25  1    13    1  |1 1>+         0.00%    0.00%    0.00%    0.00%    0.00%   11.36%    0.00%    0.00%
 26  1    14    1  |1 1>+         0.00%    0.00%    0.00%   11.36%    0.00%    0.00%    0.00%    0.00%
 27  1    15    1  |1 1>+         0.00%    0.00%   30.75%    0.00%    0.00%    0.00%    1.22%   13.93%
 28  1    16    1  |1 1>+         0.00%    0.00%    0.00%    0.00%    0.00%    0.00%    0.00%    0.00%
 29  1     1    1  |1 0>          0.00%    0.00%    0.00%    0.00%    0.00%    0.00%    0.00%    0.00%
 30  1     2    1  |1 0>          0.00%    0.00%    0.00%    0.00%    0.00%    0.00%    0.00%    0.00%
 31  1     3    1  |1 0>          0.00%    0.00%    0.00%    0.00%    0.00%    0.00%    0.00%    0.00%
 32  1     4    1  |1 0>          0.00%    0.00%    0.00%    0.00%    0.00%    0.00%    0.00%    0.00%
 33  1     5    1  |1 0>          0.00%    0.00%    0.00%    0.00%    0.00%    0.00%    0.00%    0.00%
 34  1     6    1  |1 0>          0.00%    0.00%    0.00%    0.00%    0.00%    0.00%    0.01%    0.24%
 35  1     7    1  |1 0>          1.52%    0.00%    0.00%    0.00%    0.01%    0.00%    0.00%    0.00%
 36  1     8    1  |1 0>          0.00%    0.00%    0.00%    0.00%    0.00%    0.01%    0.00%    0.00%
 37  1     9    1  |1 0>          0.00%    0.00%    0.00%    0.25%    0.00%    0.00%    0.00%    0.00%
 38  1    10    1  |1 0>         51.95%    0.00%    0.00%    0.00%    0.40%    0.00%    0.00%    0.00%
 39  1    11    1  |1 0>          0.00%    0.00%    0.00%    0.00%    0.00%    0.40%    0.00%    0.00%
 40  1    12    1  |1 0>          0.00%   57.06%    0.00%    0.00%    0.00%    0.00%    0.43%    0.03%
 41  1    13    1  |1 0>          0.00%    0.00%   30.76%    0.00%    0.00%    0.00%   14.32%    0.83%
 42  1    14    1  |1 0>          0.00%    0.00%    0.00%    0.00%   11.36%    0.00%    0.00%    0.00%
 43  1    15    1  |1 0>          0.00%    0.00%    0.00%    0.00%    0.00%   11.36%    0.00%    0.00%
 44  1    16    1  |1 0>          0.00%    0.00%    0.00%    0.00%    0.00%    0.00%    0.00%    0.00%
 45  1     1    1  |1 1>-         0.00%    0.00%    0.00%    0.00%    0.00%    0.00%    0.00%    0.00%
 46  1     2    1  |1 1>-         0.00%    0.00%    0.00%    0.00%    0.00%    0.00%    0.00%    0.00%
 47  1     3    1  |1 1>-         0.00%    0.00%    0.00%    0.00%    0.00%    0.00%    0.00%    0.00%
 48  1     4    1  |1 1>-         0.00%    0.00%    0.00%    0.00%    0.00%    0.00%    0.00%    0.00%
 49  1     5    1  |1 1>-         0.00%    0.00%    0.00%    0.00%    0.00%    0.00%    0.00%    0.00%
 50  1     6    1  |1 1>-         3.77%    0.00%    0.00%    0.00%    0.25%    0.00%    0.00%    0.00%
 51  1     7    1  |1 1>-         0.00%    0.10%    0.00%    0.00%    0.00%    0.00%    0.00%    0.35%
 52  1     8    1  |1 1>-         0.00%    0.00%    0.00%    0.40%    0.00%    0.00%    0.00%    0.00%
 53  1     9    1  |1 1>-         0.00%    0.00%    0.00%    0.00%    0.00%    0.25%    0.00%    0.00%
 54  1    10    1  |1 1>-         0.00%   21.38%    0.00%    0.00%    0.00%    0.00%    0.35%    0.01%
 55  1    11    1  |1 1>-         0.00%    0.00%    0.00%    0.01%    0.00%    0.00%    0.00%    0.00%
 56  1    12    1  |1 1>-        35.59%    0.00%    0.00%    0.00%    0.15%    0.00%    0.00%    0.00%
 57  1    13    1  |1 1>-         0.00%    0.00%    0.00%    0.00%   11.36%    0.00%    0.00%    0.00%
 58  1    14    1  |1 1>-         0.00%    0.00%   30.75%    0.00%    0.00%    0.00%    7.19%    7.96%
 59  1    15    1  |1 1>-         0.00%    0.00%    0.00%   11.36%    0.00%    0.00%    0.00%    0.00%
 60  1    16    1  |1 1>-         0.00%    0.00%    0.00%    0.00%    0.00%    0.00%    0.00%    0.00%

   Total
 Nr Sym  State Sym Spin / Nr.     49       50       51       52       53       54       55       56

  1  1     1    1  |0 0>          0.00%    0.00%    0.00%    0.00%    0.00%    0.00%    0.00%    0.00%
  2  1     2    1  |0 0>          0.00%    0.00%    0.00%    0.00%    0.00%    0.00%    0.00%    0.00%
  3  1     3    1  |0 0>          0.00%    0.00%    0.00%    0.00%    0.00%    0.00%    0.00%    0.00%
  4  1     4    1  |0 0>          0.00%    0.00%    0.00%    0.00%    0.00%    0.00%    0.00%    0.00%
  5  1     5    1  |0 0>          0.00%    0.00%    0.00%    0.00%    0.00%    0.00%    0.00%    0.00%
  6  1     6    1  |0 0>          0.00%    0.00%    0.00%    0.00%    0.00%    0.00%    0.00%    0.00%
  7  1     7    1  |0 0>          0.00%    0.00%    0.00%    0.00%    0.00%   22.61%    0.00%    0.00%
  8  1     8    1  |0 0>          0.00%    0.00%    0.00%   22.61%    0.00%    0.00%    0.00%    0.00%
  9  1     9    1  |0 0>          0.00%    0.00%    0.00%    0.00%   22.61%    0.00%    0.00%    0.00%
 10  1    10    1  |0 0>          0.00%    0.00%    0.00%    0.00%    0.00%    0.00%   21.98%    0.63%
 11  1    11    1  |0 0>          0.00%    0.00%    0.00%    0.00%    0.00%    0.00%    0.63%   21.99%
 12  1    12    1  |0 0>          0.00%    0.00%    0.00%    0.00%    0.00%    0.00%    0.00%    0.00%
 13  1     1    1  |1 1>+         0.00%    0.00%    0.00%    0.00%    0.00%    0.00%    0.00%    0.00%
 14  1     2    1  |1 1>+         0.00%    0.00%    0.00%    0.00%    0.00%    0.00%    0.00%    0.00%
 15  1     3    1  |1 1>+         0.00%    0.00%    0.00%    0.00%    0.00%    0.00%    0.00%    0.00%
 16  1     4    1  |1 1>+         0.00%    0.00%    0.00%    0.00%    0.00%    0.00%    0.00%    0.00%
 17  1     5    1  |1 1>+         0.00%    0.00%    0.00%    0.00%    0.00%    0.00%    0.00%    0.00%
 18  1     6    1  |1 1>+         0.00%    0.00%    0.00%    0.00%    0.03%    0.00%    0.00%    0.00%
 19  1     7    1  |1 1>+         0.00%    0.00%    0.00%    0.00%    0.00%    0.05%    0.00%    0.00%
 20  1     8    1  |1 1>+         0.00%    0.00%    0.00%    0.00%    0.00%    0.00%    0.05%    0.00%
 21  1     9    1  |1 1>+         0.00%    0.00%    0.00%    0.03%    0.00%    0.00%    0.00%    0.00%
 22  1    10    1  |1 1>+         0.00%    0.00%    0.00%    0.00%    0.00%    0.00%    0.00%    0.00%
 23  1    11    1  |1 1>+         0.00%    0.00%    0.00%    0.00%    0.00%    0.00%    0.01%    0.04%
 24  1    12    1  |1 1>+         0.00%    0.00%    0.00%    0.00%    0.02%    0.00%    0.00%    0.00%
 25  1    13    1  |1 1>+         0.00%   49.94%    0.00%    0.00%   38.62%    0.00%    0.00%    0.00%
 26  1    14    1  |1 1>+         0.00%    0.00%   49.94%    0.00%    0.00%   38.62%    0.00%    0.00%
 27  1    15    1  |1 1>+         0.00%    0.00%    0.00%    0.00%    0.00%    0.00%   37.99%   13.50%
 28  1    16    1  |1 1>+         0.12%    0.00%    0.00%    0.00%    0.00%    0.00%    0.00%    0.00%
 29  1     1    1  |1 0>          0.00%    0.00%    0.00%    0.00%    0.00%    0.00%    0.00%    0.00%
 30  1     2    1  |1 0>          0.00%    0.00%    0.00%    0.00%    0.00%    0.00%    0.00%    0.00%
 31  1     3    1  |1 0>          0.00%    0.00%    0.00%    0.00%    0.00%    0.00%    0.00%    0.00%
 32  1     4    1  |1 0>          0.00%    0.00%    0.00%    0.00%    0.00%    0.00%    0.00%    0.00%
 33  1     5    1  |1 0>          0.00%    0.00%    0.00%    0.00%    0.00%    0.00%    0.00%    0.00%
 34  1     6    1  |1 0>          0.00%    0.00%    0.00%    0.00%    0.00%    0.00%    0.03%    0.00%
 35  1     7    1  |1 0>          0.00%    0.00%    0.00%    0.00%    0.00%    0.00%    0.00%    0.00%
 36  1     8    1  |1 0>          0.00%    0.00%    0.00%    0.00%    0.00%    0.00%    0.00%    0.00%
 37  1     9    1  |1 0>          0.00%    0.00%    0.00%    0.00%    0.00%    0.03%    0.00%    0.00%
 38  1    10    1  |1 0>          0.00%    0.00%    0.00%    0.05%    0.00%    0.00%    0.00%    0.00%
 39  1    11    1  |1 0>          0.00%    0.00%    0.00%    0.00%    0.05%    0.00%    0.00%    0.00%
 40  1    12    1  |1 0>          0.00%    0.00%    0.00%    0.00%    0.00%    0.00%    0.00%    0.06%
 41  1    13    1  |1 0>          0.00%    0.00%    0.00%    0.00%    0.00%    0.00%    0.01%   51.48%
 42  1    14    1  |1 0>         49.94%    0.00%    0.00%   38.63%    0.00%    0.00%    0.00%    0.00%
 43  1    15    1  |1 0>          0.00%   49.94%    0.00%    0.00%   38.63%    0.00%    0.00%    0.00%
 44  1    16    1  |1 0>          0.00%    0.00%    0.12%    0.00%    0.00%    0.00%    0.00%    0.00%
 45  1     1    1  |1 1>-         0.00%    0.00%    0.00%    0.00%    0.00%    0.00%    0.00%    0.00%
 46  1     2    1  |1 1>-         0.00%    0.00%    0.00%    0.00%    0.00%    0.00%    0.00%    0.00%
 47  1     3    1  |1 1>-         0.00%    0.00%    0.00%    0.00%    0.00%    0.00%    0.00%    0.00%
 48  1     4    1  |1 1>-         0.00%    0.00%    0.00%    0.00%    0.00%    0.00%    0.00%    0.00%
 49  1     5    1  |1 1>-         0.00%    0.00%    0.00%    0.00%    0.00%    0.00%    0.00%    0.00%
 50  1     6    1  |1 1>-         0.00%    0.00%    0.00%    0.03%    0.00%    0.00%    0.00%    0.00%
 51  1     7    1  |1 1>-         0.00%    0.00%    0.00%    0.00%    0.00%    0.00%    0.05%    0.00%
 52  1     8    1  |1 1>-         0.00%    0.00%    0.00%    0.00%    0.00%    0.05%    0.00%    0.00%
 53  1     9    1  |1 1>-         0.00%    0.00%    0.00%    0.00%    0.03%    0.00%    0.00%    0.00%
 54  1    10    1  |1 1>-         0.00%    0.00%    0.00%    0.00%    0.00%    0.00%    0.01%    0.04%
 55  1    11    1  |1 1>-         0.00%    0.00%    0.00%    0.00%    0.00%    0.00%    0.00%    0.00%
 56  1    12    1  |1 1>-         0.00%    0.00%    0.00%    0.02%    0.00%    0.00%    0.00%    0.00%
 57  1    13    1  |1 1>-        49.94%    0.00%    0.00%   38.62%    0.00%    0.00%    0.00%    0.00%
 58  1    14    1  |1 1>-         0.00%    0.00%    0.00%    0.00%    0.00%    0.00%   39.24%   12.25%
 59  1    15    1  |1 1>-         0.00%    0.00%   49.94%    0.00%    0.00%   38.62%    0.00%    0.00%
 60  1    16    1  |1 1>-         0.00%    0.12%    0.00%    0.00%    0.00%    0.00%    0.00%    0.00%

   Total
 Nr Sym  State Sym Spin / Nr.     57       58       59       60

  1  1     1    1  |0 0>          0.00%    0.00%    0.00%    0.00%
  2  1     2    1  |0 0>          0.00%    0.00%    0.00%    0.00%
  3  1     3    1  |0 0>          0.00%    0.00%    0.00%    0.00%
  4  1     4    1  |0 0>          0.00%    0.00%    0.00%    0.00%
  5  1     5    1  |0 0>          0.00%    0.00%    0.00%    0.00%
  6  1     6    1  |0 0>          0.00%    0.00%    0.00%    0.00%
  7  1     7    1  |0 0>          0.00%    0.00%    0.00%    0.00%
  8  1     8    1  |0 0>          0.00%    0.00%    0.00%    0.00%
  9  1     9    1  |0 0>          0.00%    0.00%    0.00%    0.00%
 10  1    10    1  |0 0>          0.00%    0.00%    0.00%    0.00%
 11  1    11    1  |0 0>          0.00%    0.00%    0.00%    0.00%
 12  1    12    1  |0 0>          0.00%    0.00%    0.00%   92.28%
 13  1     1    1  |1 1>+         0.00%    0.00%    0.00%    0.00%
 14  1     2    1  |1 1>+         0.00%    0.00%    0.00%    0.00%
 15  1     3    1  |1 1>+         0.00%    0.00%    0.00%    0.00%
 16  1     4    1  |1 1>+         0.00%    0.00%    0.00%    0.00%
 17  1     5    1  |1 1>+         0.00%    0.00%    0.00%    0.00%
 18  1     6    1  |1 1>+         0.00%    0.00%    0.00%    0.00%
 19  1     7    1  |1 1>+         0.00%    0.00%    0.00%    0.00%
 20  1     8    1  |1 1>+         0.00%    0.00%    0.00%    0.00%
 21  1     9    1  |1 1>+         0.00%    0.00%    0.00%    0.00%
 22  1    10    1  |1 1>+         0.00%    0.00%    0.00%    0.00%
 23  1    11    1  |1 1>+         0.00%    0.00%    0.00%    0.00%
 24  1    12    1  |1 1>+         0.00%    0.00%    0.00%    0.00%
 25  1    13    1  |1 1>+         0.00%    0.00%    0.06%    0.00%
 26  1    14    1  |1 1>+         0.06%    0.00%    0.00%    0.00%
 27  1    15    1  |1 1>+         0.00%    0.00%    0.00%    2.57%
 28  1    16    1  |1 1>+         0.00%   99.88%    0.00%    0.00%
 29  1     1    1  |1 0>          0.00%    0.00%    0.00%    0.00%
 30  1     2    1  |1 0>          0.00%    0.00%    0.00%    0.00%
 31  1     3    1  |1 0>          0.00%    0.00%    0.00%    0.00%
 32  1     4    1  |1 0>          0.00%    0.00%    0.00%    0.00%
 33  1     5    1  |1 0>          0.00%    0.00%    0.00%    0.00%
 34  1     6    1  |1 0>          0.00%    0.00%    0.00%    0.00%
 35  1     7    1  |1 0>          0.00%    0.00%    0.00%    0.00%
 36  1     8    1  |1 0>          0.00%    0.00%    0.00%    0.00%
 37  1     9    1  |1 0>          0.00%    0.00%    0.00%    0.00%
 38  1    10    1  |1 0>          0.00%    0.00%    0.00%    0.00%
 39  1    11    1  |1 0>          0.00%    0.00%    0.00%    0.00%
 40  1    12    1  |1 0>          0.00%    0.00%    0.00%    0.00%
 41  1    13    1  |1 0>          0.00%    0.00%    0.00%    2.57%
 42  1    14    1  |1 0>          0.00%    0.06%    0.00%    0.00%
 43  1    15    1  |1 0>          0.00%    0.00%    0.06%    0.00%
 44  1    16    1  |1 0>         99.88%    0.00%    0.00%    0.00%
 45  1     1    1  |1 1>-         0.00%    0.00%    0.00%    0.00%
 46  1     2    1  |1 1>-         0.00%    0.00%    0.00%    0.00%
 47  1     3    1  |1 1>-         0.00%    0.00%    0.00%    0.00%
 48  1     4    1  |1 1>-         0.00%    0.00%    0.00%    0.00%
 49  1     5    1  |1 1>-         0.00%    0.00%    0.00%    0.00%
 50  1     6    1  |1 1>-         0.00%    0.00%    0.00%    0.00%
 51  1     7    1  |1 1>-         0.00%    0.00%    0.00%    0.00%
 52  1     8    1  |1 1>-         0.00%    0.00%    0.00%    0.00%
 53  1     9    1  |1 1>-         0.00%    0.00%    0.00%    0.00%
 54  1    10    1  |1 1>-         0.00%    0.00%    0.00%    0.00%
 55  1    11    1  |1 1>-         0.00%    0.00%    0.00%    0.00%
 56  1    12    1  |1 1>-         0.00%    0.00%    0.00%    0.00%
 57  1    13    1  |1 1>-         0.00%    0.06%    0.00%    0.00%
 58  1    14    1  |1 1>-         0.00%    0.00%    0.00%    2.57%
 59  1    15    1  |1 1>-         0.06%    0.00%    0.00%    0.00%
 60  1    16    1  |1 1>-         0.00%    0.00%   99.88%    0.00%



 **********************************************************************************************************************************
 DATASETS  * FILE   NREC   LENGTH (MB)   RECORD NAMES
              1      24       77.70       500      610      700      900      950      970     1000      129      960     1700   
                                          VAR    BASINP    GEOM    SYMINP    ZMAT    AOBASIS   BASIS     P2S    ABASIS    OPER   
                                         1101     1401     1411     1412     1650     1100     1400     1410     1200     1210   
                                          SR      EKINR    POTR     PVPR    MOLCAS      S      EKIN      POT      H0       H01  
                                         1080     1600     1380     1700(1)
                                         AOSYM     SMH     JKOP     OPER   

              2       7      839.07       700     1000      520     2100     2140     5101     5103   
                                         GEOM     BASIS   MCVARS     RHF     MCSCF    MRCI     MRCI   

 PROGRAMS   *        TOTAL        CI     LSINT        CI        CI     MULTI   RHF-SCF       INT
 CPU TIMES  *     46753.91  36537.66     73.82   8203.52   1931.11      3.64      0.08      3.84
 REAL TIME  *     47110.39 SEC
 DISK USED  *       916.84 MB (local),       11.20 GB (total)
 SF USED    *         4.99 GB
 GA USED    *         0.00 MB       (max)       0.00 MB       (current)
 **********************************************************************************************************************************

 CI/aug-cc-pWCVTZ-X2C energy=  -8132.421996206936

              CI              CI           MULTI         RHF-SCF
  -8132.38704120  -8132.38464803  -8131.90664792  -8131.99670480
 **********************************************************************************************************************************
 Molpro calculation terminated
