
 Working directory              : /wrk/irikura/molpro.Ss80fZBB7O/
 Global scratch directory       : /wrk/irikura/molpro.Ss80fZBB7O/
 Wavefunction directory         : /home/irikura/wfu/
 Main file repository           : /wrk/irikura/molpro.Ss80fZBB7O/

 id        : nistki

 Nodes            nprocs
 pn125343.nist.gov   24
 GA implementation: MPI file
 GA implementation (serial work in mppx): MPI file

 Using customized tuning parameters: mindgm=1; mindgv=20; mindgc=4; mindgr=1; noblas=0; minvec=7
 default implementation of scratch files=sf  


 Variables initialized (1025), CPU time= 0.01 sec
 ***,Ba SO-CI
 memory,900,M;
 
 gprint,orbitals,civector;
 
 symmetry,xyz
 geometry={Ba};
 
 basis=aug-cc-pwCV5Z-PP
 
 {rhf;wf,sym=1,spin=0}
 
 NSING=12
 NTRIP=16
 
 w(1) = 99
 DO i=2,NSING
   w(i) = 1
 ENDDO
 
                                                                                 ! active space (2/10)
 {multi
     closed,1,3
     occ,8,9
     wf,sym=1,spin=0;state,NSING;
        weight,w
     wf,sym=1,spin=2;state,NTRIP;
        weight,all,1
     expec2,lxx,lyy,lzz;
 }
 table, energy, ll
 title, Energies and &lt;L**2&gt; values
 
 core,0,0
 
 {ci;wf,sym=1,spin=0;state,NSING; save,5101.2}
 hlsdiag = energd4
 {ci;wf,sym=1,spin=2;state,NTRIP; save,5103.2}
 hlsdiag(NSING+1) = energd4
 
 table,hlsdiag
 
 {ci;hlsmat,ecp,5101.2,5103.2;print,vls=0,hls=0}                                 !compute and diagonalize SO matrix
 Commands initialized (840), CPU time= 0.02 sec, 684 directives.
 Default parameters read. Elapsed time= 0.18 sec

 Checking input...
 Passed
1


                                         ***  PROGRAM SYSTEM MOLPRO  ***
                                       Copyright, TTI GmbH Stuttgart, 2015
                                    Version 2022.3 linked Wed Nov 30 06:40:34 2022


 **********************************************************************************************************************************
 LABEL *   Ba SO-                                                                        
  64 bit mpp version                                                                     DATE: 02-May-24          TIME: 18:03:57  
 **********************************************************************************************************************************

 SHA1:             e31ec9a5ea85254ab76f59d122cbdd51c71cf98b
 **********************************************************************************************************************************

 Memory per process:       900 MW
 Total memory per node:  21600 MW

 GA preallocation disabled
 GA check disabled

 Variable memory set to 900.0 MW


 ZSYMEL=XYZ

 SETTING BASIS          =    AUG-CC-PWCV5Z-PP


 Recomputing integrals since basis changed


 Using spherical harmonics

 Library entry Ba   ECP ECP46MDF                 selected for group  1
 Library entry BA     S aug-cc-pwCV5Z-PP     selected for orbital group  1
 Library entry BA     P aug-cc-pwCV5Z-PP     selected for orbital group  1
 Library entry BA     D aug-cc-pwCV5Z-PP     selected for orbital group  1
 Library entry BA     F aug-cc-pwCV5Z-PP     selected for orbital group  1
 Library entry BA     G aug-cc-pwCV5Z-PP     selected for orbital group  1
 Library entry BA     H aug-cc-pwCV5Z-PP     selected for orbital group  1


 PROGRAM * SEWARD (Integral evaluation for generally contracted gaussian basis sets)     Author: Roland Lindh, 1990

 Geometry written to block  1 of record 700

 Orientation using atomic masses  
 Molecule type: Atom
 User-specified symmetry elements: XYZ
 Symmetry elements: XYZ
 Rotational constants:       0.0000000      0.0000000      0.0000000 GHz  (calculated with average atomic masses)

 Point group  Ci  



 ATOMIC COORDINATES

 NR  ATOM    CHARGE       X              Y              Z

   1  BA     10.00    0.000000000    0.000000000    0.000000000

 NUCLEAR CHARGE:                   10
 NUMBER OF PRIMITIVE AOS:         337
 NUMBER OF SYMMETRY AOS:          247
 NUMBER OF CONTRACTIONS:          213   (  101Ag  +  112Au  )
 NUMBER OF INNER CORE ORBITALS:     0   (    0Ag  +    0Au  )
 NUMBER OF OUTER CORE ORBITALS:     4   (    1Ag  +    3Au  )
 NUMBER OF VALENCE ORBITALS:        1   (    1Ag  +    0Au  )


 LX: Ag           LY: Ag           LZ: Ag 


 NUCLEAR REPULSION ENERGY    0.00000000

 EXTRA SYMMETRY OF AOS IN SYMMETRY 1:   1 1 1 1 1 1 1 1 1 1   1 2 3 4 5 6 2 3 4 5   6 2 3 4 5 6 2 3 4 5   6 2 3 4 5 6 2 3 4 5
                                        6 2 3 4 5 6 2 3 4 5   6 2 3 4 5 6 7 8 910  1112131415 7 8 91011  12131415 7 8 9101112
                                       131415 7 8 910111213  1415 7 8 91011121314  15
 EXTRA SYMMETRY OF AOS IN SYMMETRY 2:   1 2 3 1 2 3 1 2 3 1   2 3 1 2 3 1 2 3 1 2   3 1 2 3 1 2 3 1 2 3   4 5 6 7 8 910 4 5 6
                                        7 8 910 4 5 6 7 8 9  10 4 5 6 7 8 910 4 5   6 7 8 910 4 5 6 7 8   910 4 5 6 7 8 91011
                                       12131415161718192021  11121314151617181920  21111213141516171819  2021


 Eigenvalues of metric

         1 0.375E-04 0.266E-03 0.784E-03 0.784E-03 0.784E-03 0.784E-03 0.784E-03 0.135E-02
         2 0.408E-03 0.408E-03 0.408E-03 0.110E-02 0.110E-02 0.110E-02 0.398E-02 0.398E-02


 Contracted 2-electron integrals neglected if value below      1.0D-12
 AO integral compression algorithm  1   Integral accuracy      1.0D-12

     249.037 MB (compressed) written to integral file ( 13.7%)

     Node minimum: 3.408 MB, node maximum: 17.826 MB


 NUMBER OF SORTED TWO-ELECTRON INTEGRALS:    5449443.     BUFFER LENGTH:  32768
 NUMBER OF SEGMENTS:   1  SEGMENT LENGTH:    5449443      RECORD LENGTH: 524288

 Memory used in sort:       6.01 MW

 SORT1 READ   226482739. AND WROTE      906112. INTEGRALS IN      3 RECORDS. CPU TIME:     1.31 SEC, REAL TIME:     1.38 SEC
 SORT2 READ    23241716. AND WROTE   131080516. INTEGRALS IN    672 RECORDS. CPU TIME:     0.11 SEC, REAL TIME:     0.12 SEC

 Node minimum:     5446104.  Node maximum:     5472081. integrals

 OPERATOR DM      FOR CENTER  0  COORDINATES:    0.000000    0.000000    0.000000


 **********************************************************************************************************************************
 DATASETS  * FILE   NREC   LENGTH (MB)   RECORD NAMES
              1      19       29.77       500      610      700      900      950      970     1000      129      960     1100   
                                          VAR    BASINP    GEOM    SYMINP    ZMAT    AOBASIS   BASIS     P2S    ABASIS      S 
                                         1400     1410     1420     1200     1210     1080     1700     1600     1650   
                                           T        V       ECP      H0       H01     AOSYM    OPER      SMH    MOLCAS    

 PROGRAMS   *        TOTAL       INT
 CPU TIMES  *         4.05      3.69
 REAL TIME  *         5.04 SEC
 DISK USED  *        30.09 MB (local),        1.16 GB (total)
 GA USED    *         0.00 MB       (max)       0.00 MB       (current)
 **********************************************************************************************************************************


 Program * Restricted Hartree-Fock

 Orbital guess generated from atomic densities. Full valence occupancy:    2   3

 Initial occupancy:   2   3

 NELEC=   10   SYM=1   MS2= 0   THRE=1.0D-08   THRD=3.2D-06   THRG=3.2D-06  HFMA2=F  DIIS_START=2   DIIS_MAX=10   DIIS_INCORE=F

 Level shifts:    0.00 (CLOSED)    0.00 (OPEN)    0.30 (GAP_MIN)

 ITER           ETOT              DE          GRAD        DDIFF     DIIS  NEXP   TIME(IT)  TIME(TOT)  DIAG
   1      -24.68510439     -24.68510439     0.00D+00     0.26D+00     0     0       0.03      0.07    start
   2      -24.96654727      -0.28144287     0.17D-01     0.15D+00     1     0       0.03      0.10    diag
   3      -25.03741811      -0.07087085     0.39D-02     0.67D-01     2     0       0.04      0.14    diag
   4      -25.08903752      -0.05161941     0.26D-02     0.47D-01     3     0       0.03      0.17    diag
   5      -25.09491156      -0.00587404     0.86D-03     0.77D-02     4     0       0.03      0.20    diag
   6      -25.09500726      -0.00009570     0.12D-03     0.13D-02     5     0       0.04      0.24    diag
   7      -25.09501691      -0.00000965     0.39D-04     0.13D-02     6     0       0.03      0.27    diag
   8      -25.09501760      -0.00000069     0.12D-04     0.30D-03     7     0       0.04      0.31    fixocc
   9      -25.09501761      -0.00000001     0.17D-05     0.19D-04     8     0       0.04      0.35    diag
  10      -25.09501761      -0.00000000     0.38D-06     0.44D-05     9     0       0.04      0.39    diag/orth
  11      -25.09501761      -0.00000000     0.96D-07     0.25D-05     9     0       0.04      0.43    diag
  12      -25.09501761      -0.00000000     0.10D-07     0.84D-07     0     0       0.04      0.47    diag

 Final occupancy:   2   3

 !RHF STATE 1.1 Energy                -25.095017612110
  RHF One-electron energy             -41.272199558955
  RHF Two-electron energy              16.177181946845
  RHF Kinetic energy                    6.695439484744
  RHF Nuclear energy                    0.000000000000
  RHF Virial quotient                  -3.748076234471

 !RHF STATE 1.1 Dipole moment           0.00000000     0.00000000     0.00000000
 Dipole moment /Debye                   0.00000000     0.00000000     0.00000000

 ELECTRON ORBITALS
 =================

  Orbital  Occupation    Energy    Cen Mu Typ  Coefficients
    1.1     2.00000    -1.60487     1  1  s    0.99988
    2.1     2.00000    -0.16318     1  1  s   -0.31509    1  4  s    0.47981    1  5  s    0.61878
    1.2     2.00000    -0.89696     1  1  pz   0.99995
    2.2     2.00000    -0.89696     1  1  px   0.99995
    3.2     2.00000    -0.89696     1  1  py   0.99995


 HOMO      2.1    -0.163179 =      -4.4403eV
 LUMO      4.2     0.006813 =       0.1854eV
 LUMO-HOMO         0.169992 =       4.6257eV

 Orbitals saved in record  2100.2


 **********************************************************************************************************************************
 DATASETS  * FILE   NREC   LENGTH (MB)   RECORD NAMES
              1      19       29.77       500      610      700      900      950      970     1000      129      960     1100   
                                          VAR    BASINP    GEOM    SYMINP    ZMAT    AOBASIS   BASIS     P2S    ABASIS      S 
                                         1400     1410     1420     1200     1210     1080     1700     1600     1650   
                                           T        V       ECP      H0       H01     AOSYM    OPER      SMH    MOLCAS    

              2       4        0.73       700     1000      520     2100   
                                         GEOM     BASIS   MCVARS     RHF  

 PROGRAMS   *        TOTAL   RHF-SCF       INT
 CPU TIMES  *         4.53      0.47      3.69
 REAL TIME  *         5.58 SEC
 DISK USED  *        32.15 MB (local),        1.21 GB (total)
 GA USED    *         0.00 MB       (max)       0.00 MB       (current)
 **********************************************************************************************************************************
 SETTING NSING          =        12.00000000                                  
 SETTING NTRIP          =        16.00000000                                  
 SETTING W(1)           =        99.00000000                                  

 DO I                   =         2.00000000   
 SETTING W(2)           =         1.00000000                                  

 DO I                   =         3.00000000   
 SETTING W(3)           =         1.00000000                                  

 DO I                   =         4.00000000   
 SETTING W(4)           =         1.00000000                                  

 DO I                   =         5.00000000   
 SETTING W(5)           =         1.00000000                                  

 DO I                   =         6.00000000   
 SETTING W(6)           =         1.00000000                                  

 DO I                   =         7.00000000   
 SETTING W(7)           =         1.00000000                                  

 DO I                   =         8.00000000   
 SETTING W(8)           =         1.00000000                                  

 DO I                   =         9.00000000   
 SETTING W(9)           =         1.00000000                                  

 DO I                   =        10.00000000   
 SETTING W(10)          =         1.00000000                                  

 DO I                   =        11.00000000   
 SETTING W(11)          =         1.00000000                                  

 DO I                   =        12.00000000   
 SETTING W(12)          =         1.00000000                                  

 PROGRAM * MULTI (Direct Multiconfiguration SCF)       Authors: P.J. Knowles, H.-J. Werner (1984)
                                                                D.A. Kreplin, P.J. Knowles, H.-J. Werner (2019)

 Number of closed-shell orbitals:   4 (    1    3)
 Number of active  orbitals:       13 (    7    6)
 Number of external orbitals:     196 (   93  103)

 State symmetry 1

 Number of active electrons:   2    Spin symmetry=Singlet   Space symmetry=1
 Number of states:            12
 Number of CSFs:              49   (85 determinants, 169 intermediate states)

 State symmetry 2

 Number of active electrons:   2    Spin symmetry=Triplet   Space symmetry=1
 Number of states:            16
 Number of CSFs:              36   (36 determinants, 78 intermediate states)

 Molecular orbitals read from record     2100.2  Type=RHF/CANONICAL  
 *** IN SYMMETRY 1 ORBITAL  5 SYMMETRY CONTAMINATION OF 0.428D+00 HAS BEEN REMOVED
 *** IN SYMMETRY 1 ORBITAL  6 SYMMETRY CONTAMINATION OF 0.439D+00 HAS BEEN REMOVED
 *** IN SYMMETRY 1 ORBITAL  7 SYMMETRY CONTAMINATION OF 0.254D+00 HAS BEEN REMOVED
 *** IN SYMMETRY 1 ORBITAL  8 SYMMETRY CONTAMINATION OF 0.148D+00 HAS BEEN REMOVED

 EXTRA SYMMETRY OF MOS IN SYMMETRY 1:   1 1 1 2 4 6 5 3 2 4   6 3 5 1 2 4 6 5 312   8 911 714151310 1 2   4 6 5 3 1 2 6 4 3 5
                                       11 9 81213101514 7 2   6 4 3 5 1 91112 814  15 71310 2 3 6 4 5 9  1112 81514 71310 111
                                        912 81514 71310 3 6   4 5 2 6 5 3 4 2 1 1   1
 *** IN SYMMETRY 2 ORBITAL  1 SYMMETRY CONTAMINATION OF 0.230D-02 HAS BEEN REMOVED
 *** IN SYMMETRY 2 ORBITAL  3 SYMMETRY CONTAMINATION OF 0.230D-02 HAS BEEN REMOVED
 *** IN SYMMETRY 2 ORBITAL  4 SYMMETRY CONTAMINATION OF 0.346D-01 HAS BEEN REMOVED
 *** IN SYMMETRY 2 ORBITAL  6 SYMMETRY CONTAMINATION OF 0.346D-01 HAS BEEN REMOVED
 *** IN SYMMETRY 2 ORBITAL  7 SYMMETRY CONTAMINATION OF 0.427D-03 HAS BEEN REMOVED
 *** IN SYMMETRY 2 ORBITAL  8 SYMMETRY CONTAMINATION OF 0.427D-03 HAS BEEN REMOVED
 EXTRA SYMMETRY OF MOS IN SYMMETRY 2:   3 1 2 2 1 3 3 2 1 3   2 1 5 4 6 810 9 7 3   2 11112151719211314  162018 3 2 1 810 4 5
                                        6 7 9 9 7 810 5 4 6   3 2 1 6 5 410 8 9 7  19211316141517121118  20 3 2 110 8 9 7 5 4
                                        6 3 2 1111219182016  1415172113 5 410 8 6   9 7 9 7 5 410 8 6 1   3 2

 Wavefunction dump at record             2140.2

 Convergence thresholds  0.10E-04 (gradient)  0.10E-05 (energy)

 Weight factors for state symmetry  1:    0.78571   0.00794   0.00794   0.00794   0.00794   0.00794   0.00794   0.00794
                                          0.00794   0.00794   0.00794   0.00794
 Weight factors for state symmetry  2:    0.00794   0.00794   0.00794   0.00794   0.00794   0.00794   0.00794   0.00794
                                          0.00794   0.00794   0.00794   0.00794   0.00794   0.00794   0.00794   0.00794
 
 Number of orbital rotations:  1696  ( 25 closed/active, 402 closed/virtual, 0 active/active, 1269 active/virtual )
 Total number of variables:    3292
 
 Second-order MCSCF: L-BFGS accelerated
 
 ITER  MIC  NCI  NEG     ENERGY(VAR)    ENERGY(PROJ) ENERGY CHANGE       GRAD(0)  GRAD(ORB)   GRAD(CI)      STEP      TIME
   1   17   32    5    -25.06489906     -25.10341062   -0.03851157    0.01681037 0.00007823 0.00000000  0.27E+01      2.17
   2   10   18    0    -25.09586996     -25.09775485   -0.00188489    0.00712945 0.00001615 0.00000000  0.93E+00      3.92
   3   10   18    0    -25.09776747     -25.09776847   -0.00000100    0.00017447 0.00000002 0.00000000  0.15E-01      5.66
   4    4    8    0    -25.09776847     -25.09776847   -0.00000000    0.00000031 0.00000000 0.00000000  0.20E-04      6.89

 CONVERGENCE REACHED!  Final gradient:    0.00000000 ( 0.21E-08)
                       Final energy:    -25.09776847
 
 Results for state 1.1 Singlet
 =============================
 !MCSCF STATE 1.1 Singlet Energy               -25.118561653507
 Nuclear energy                                  0.00000000
 Kinetic energy                                  6.70120470
 One electron energy                           -41.26954043
 Two electron energy                            16.15097877
 Virial ratio                                    4.74836507
 
 !MCSCF STATE 1.1 Singlet Dipole moment          0.00000000     0.00000000     0.00000000
 Dipole moment /Debye                            0.00000000     0.00000000     0.00000000
 
 Results for state 2.1 Singlet
 =============================
 !MCSCF STATE 2.1 Singlet Energy               -25.054295175428
 Nuclear energy                                  0.00000000
 Kinetic energy                                  6.86811745
 One electron energy                           -41.43891000
 Two electron energy                            16.38461482
 Virial ratio                                    4.64791304
 
 !MCSCF STATE 2.1 Singlet Dipole moment          0.00000000     0.00000000     0.00000000
 Dipole moment /Debye                            0.00000000     0.00000000     0.00000000
 
 Results for state 3.1 Singlet
 =============================
 !MCSCF STATE 3.1 Singlet Energy               -25.054295175418
 Nuclear energy                                  0.00000000
 Kinetic energy                                  6.86811745
 One electron energy                           -41.43891000
 Two electron energy                            16.38461483
 Virial ratio                                    4.64791303
 
 !MCSCF STATE 3.1 Singlet Dipole moment          0.00000000     0.00000000     0.00000000
 Dipole moment /Debye                            0.00000000     0.00000000     0.00000000
 
 Results for state 4.1 Singlet
 =============================
 !MCSCF STATE 4.1 Singlet Energy               -25.054295175321
 Nuclear energy                                  0.00000000
 Kinetic energy                                  6.86811745
 One electron energy                           -41.43891000
 Two electron energy                            16.38461482
 Virial ratio                                    4.64791304
 
 !MCSCF STATE 4.1 Singlet Dipole moment          0.00000000     0.00000000     0.00000000
 Dipole moment /Debye                            0.00000000     0.00000000     0.00000000
 
 Results for state 5.1 Singlet
 =============================
 !MCSCF STATE 5.1 Singlet Energy               -25.054295175180
 Nuclear energy                                  0.00000000
 Kinetic energy                                  6.86811745
 One electron energy                           -41.43890999
 Two electron energy                            16.38461481
 Virial ratio                                    4.64791304
 
 !MCSCF STATE 5.1 Singlet Dipole moment          0.00000000     0.00000000     0.00000000
 Dipole moment /Debye                            0.00000000     0.00000000     0.00000000
 
 Results for state 6.1 Singlet
 =============================
 !MCSCF STATE 6.1 Singlet Energy               -25.054295174997
 Nuclear energy                                  0.00000000
 Kinetic energy                                  6.86811744
 One electron energy                           -41.43890997
 Two electron energy                            16.38461480
 Virial ratio                                    4.64791304
 
 !MCSCF STATE 6.1 Singlet Dipole moment          0.00000000     0.00000000     0.00000000
 Dipole moment /Debye                            0.00000000     0.00000000     0.00000000
 
 Results for state 7.1 Singlet
 =============================
 !MCSCF STATE 7.1 Singlet Energy               -24.999890351735
 Nuclear energy                                  0.00000000
 Kinetic energy                                  7.00844818
 One electron energy                           -41.59249567
 Two electron energy                            16.59260532
 Virial ratio                                    4.56710782
 
 !MCSCF STATE 7.1 Singlet Dipole moment          0.00000000     0.00000000     0.00000000
 Dipole moment /Debye                            0.00000000     0.00000000     0.00000000
 
 Results for state 8.1 Singlet
 =============================
 !MCSCF STATE 8.1 Singlet Energy               -24.999890351653
 Nuclear energy                                  0.00000000
 Kinetic energy                                  7.00844819
 One electron energy                           -41.59249568
 Two electron energy                            16.59260532
 Virial ratio                                    4.56710782
 
 !MCSCF STATE 8.1 Singlet Dipole moment          0.00000000     0.00000000     0.00000000
 Dipole moment /Debye                            0.00000000     0.00000000     0.00000000
 
 Results for state 9.1 Singlet
 =============================
 !MCSCF STATE 9.1 Singlet Energy               -24.999890351631
 Nuclear energy                                  0.00000000
 Kinetic energy                                  7.00844819
 One electron energy                           -41.59249568
 Two electron energy                            16.59260533
 Virial ratio                                    4.56710782
 
 !MCSCF STATE 9.1 Singlet Dipole moment          0.00000000     0.00000000     0.00000000
 Dipole moment /Debye                            0.00000000     0.00000000     0.00000000
 
 Results for state 10.1 Singlet
 ==============================
 !MCSCF STATE 10.1 Singlet Energy              -24.999890351629
 Nuclear energy                                  0.00000000
 Kinetic energy                                  7.00844819
 One electron energy                           -41.59249568
 Two electron energy                            16.59260533
 Virial ratio                                    4.56710782
 
 !MCSCF STATE 10.1 Singlet Dipole moment         0.00000000     0.00000000     0.00000000
 Dipole moment /Debye                            0.00000000     0.00000000     0.00000000
 
 Results for state 11.1 Singlet
 ==============================
 !MCSCF STATE 11.1 Singlet Energy              -24.999890351535
 Nuclear energy                                  0.00000000
 Kinetic energy                                  7.00844819
 One electron energy                           -41.59249569
 Two electron energy                            16.59260534
 Virial ratio                                    4.56710782
 
 !MCSCF STATE 11.1 Singlet Dipole moment         0.00000000     0.00000000     0.00000000
 Dipole moment /Debye                            0.00000000     0.00000000     0.00000000
 
 Results for state 12.1 Singlet
 ==============================
 !MCSCF STATE 12.1 Singlet Energy              -24.992133571041
 Nuclear energy                                  0.00000000
 Kinetic energy                                  6.85198080
 One electron energy                           -41.08475315
 Two electron energy                            16.09261958
 Virial ratio                                    4.64743193
 
 !MCSCF STATE 12.1 Singlet Dipole moment         0.00000000     0.00000000     0.00000000
 Dipole moment /Debye                            0.00000000     0.00000000     0.00000000
 
 Results for state 1.1 Triplet
 =============================
 !MCSCF STATE 1.1 Triplet Energy               -25.060491684365
 Nuclear energy                                  0.00000000
 Kinetic energy                                  6.88441172
 One electron energy                           -41.55052742
 Two electron energy                            16.49003574
 Virial ratio                                    4.64017910
 
 !MCSCF STATE 1.1 Triplet Dipole moment          0.00000000     0.00000000     0.00000000
 Dipole moment /Debye                            0.00000000     0.00000000     0.00000000
 
 Results for state 2.1 Triplet
 =============================
 !MCSCF STATE 2.1 Triplet Energy               -25.060491684331
 Nuclear energy                                  0.00000000
 Kinetic energy                                  6.88441172
 One electron energy                           -41.55052742
 Two electron energy                            16.49003573
 Virial ratio                                    4.64017910
 
 !MCSCF STATE 2.1 Triplet Dipole moment          0.00000000     0.00000000     0.00000000
 Dipole moment /Debye                            0.00000000     0.00000000     0.00000000
 
 Results for state 3.1 Triplet
 =============================
 !MCSCF STATE 3.1 Triplet Energy               -25.060491684267
 Nuclear energy                                  0.00000000
 Kinetic energy                                  6.88441172
 One electron energy                           -41.55052742
 Two electron energy                            16.49003573
 Virial ratio                                    4.64017911
 
 !MCSCF STATE 3.1 Triplet Dipole moment          0.00000000     0.00000000     0.00000000
 Dipole moment /Debye                            0.00000000     0.00000000     0.00000000
 
 Results for state 4.1 Triplet
 =============================
 !MCSCF STATE 4.1 Triplet Energy               -25.060491684057
 Nuclear energy                                  0.00000000
 Kinetic energy                                  6.88441171
 One electron energy                           -41.55052740
 Two electron energy                            16.49003572
 Virial ratio                                    4.64017911
 
 !MCSCF STATE 4.1 Triplet Dipole moment          0.00000000     0.00000000     0.00000000
 Dipole moment /Debye                            0.00000000     0.00000000     0.00000000
 
 Results for state 5.1 Triplet
 =============================
 !MCSCF STATE 5.1 Triplet Energy               -25.060491683789
 Nuclear energy                                  0.00000000
 Kinetic energy                                  6.88441171
 One electron energy                           -41.55052739
 Two electron energy                            16.49003570
 Virial ratio                                    4.64017911
 
 !MCSCF STATE 5.1 Triplet Dipole moment          0.00000000     0.00000000     0.00000000
 Dipole moment /Debye                            0.00000000     0.00000000     0.00000000
 
 Results for state 6.1 Triplet
 =============================
 !MCSCF STATE 6.1 Triplet Energy               -25.002580421270
 Nuclear energy                                  0.00000000
 Kinetic energy                                  7.10857795
 One electron energy                           -41.90624487
 Two electron energy                            16.90366445
 Virial ratio                                    4.51724080
 
 !MCSCF STATE 6.1 Triplet Dipole moment          0.00000000     0.00000000     0.00000000
 Dipole moment /Debye                            0.00000000     0.00000000     0.00000000
 
 Results for state 7.1 Triplet
 =============================
 !MCSCF STATE 7.1 Triplet Energy               -25.002580421249
 Nuclear energy                                  0.00000000
 Kinetic energy                                  7.10857794
 One electron energy                           -41.90624486
 Two electron energy                            16.90366444
 Virial ratio                                    4.51724081
 
 !MCSCF STATE 7.1 Triplet Dipole moment          0.00000000     0.00000000     0.00000000
 Dipole moment /Debye                            0.00000000     0.00000000     0.00000000
 
 Results for state 8.1 Triplet
 =============================
 !MCSCF STATE 8.1 Triplet Energy               -25.002580421237
 Nuclear energy                                  0.00000000
 Kinetic energy                                  7.10857794
 One electron energy                           -41.90624484
 Two electron energy                            16.90366442
 Virial ratio                                    4.51724081
 
 !MCSCF STATE 8.1 Triplet Dipole moment          0.00000000     0.00000000     0.00000000
 Dipole moment /Debye                            0.00000000     0.00000000     0.00000000
 
 Results for state 9.1 Triplet
 =============================
 !MCSCF STATE 9.1 Triplet Energy               -25.002580421208
 Nuclear energy                                  0.00000000
 Kinetic energy                                  7.10857794
 One electron energy                           -41.90624485
 Two electron energy                            16.90366443
 Virial ratio                                    4.51724081
 
 !MCSCF STATE 9.1 Triplet Dipole moment          0.00000000     0.00000000     0.00000000
 Dipole moment /Debye                            0.00000000     0.00000000     0.00000000
 
 Results for state 10.1 Triplet
 ==============================
 !MCSCF STATE 10.1 Triplet Energy              -25.002580421179
 Nuclear energy                                  0.00000000
 Kinetic energy                                  7.10857794
 One electron energy                           -41.90624486
 Two electron energy                            16.90366444
 Virial ratio                                    4.51724081
 
 !MCSCF STATE 10.1 Triplet Dipole moment         0.00000000     0.00000000     0.00000000
 Dipole moment /Debye                            0.00000000     0.00000000     0.00000000
 
 Results for state 11.1 Triplet
 ==============================
 !MCSCF STATE 11.1 Triplet Energy              -25.002580421162
 Nuclear energy                                  0.00000000
 Kinetic energy                                  7.10857794
 One electron energy                           -41.90624484
 Two electron energy                            16.90366442
 Virial ratio                                    4.51724081
 
 !MCSCF STATE 11.1 Triplet Dipole moment         0.00000000     0.00000000     0.00000000
 Dipole moment /Debye                            0.00000000     0.00000000     0.00000000
 
 Results for state 12.1 Triplet
 ==============================
 !MCSCF STATE 12.1 Triplet Energy              -25.002580421146
 Nuclear energy                                  0.00000000
 Kinetic energy                                  7.10857794
 One electron energy                           -41.90624486
 Two electron energy                            16.90366444
 Virial ratio                                    4.51724081
 
 !MCSCF STATE 12.1 Triplet Dipole moment         0.00000000     0.00000000     0.00000000
 Dipole moment /Debye                            0.00000000     0.00000000     0.00000000
 
 Results for state 13.1 Triplet
 ==============================
 !MCSCF STATE 13.1 Triplet Energy              -25.000357264568
 Nuclear energy                                  0.00000000
 Kinetic energy                                  6.95125623
 One electron energy                           -41.42514844
 Two electron energy                            16.42479118
 Virial ratio                                    4.59652363
 
 !MCSCF STATE 13.1 Triplet Dipole moment         0.00000000     0.00000000     0.00000000
 Dipole moment /Debye                            0.00000000     0.00000000     0.00000000
 
 Results for state 14.1 Triplet
 ==============================
 !MCSCF STATE 14.1 Triplet Energy              -25.000357264312
 Nuclear energy                                  0.00000000
 Kinetic energy                                  6.95125623
 One electron energy                           -41.42514846
 Two electron energy                            16.42479119
 Virial ratio                                    4.59652363
 
 !MCSCF STATE 14.1 Triplet Dipole moment         0.00000000     0.00000000     0.00000000
 Dipole moment /Debye                            0.00000000     0.00000000     0.00000000
 
 Results for state 15.1 Triplet
 ==============================
 !MCSCF STATE 15.1 Triplet Energy              -25.000357264244
 Nuclear energy                                  0.00000000
 Kinetic energy                                  6.95125623
 One electron energy                           -41.42514846
 Two electron energy                            16.42479120
 Virial ratio                                    4.59652362
 
 !MCSCF STATE 15.1 Triplet Dipole moment         0.00000000     0.00000000     0.00000000
 Dipole moment /Debye                            0.00000000     0.00000000     0.00000000
 
 Results for state 16.1 Triplet
 ==============================
 !MCSCF STATE 16.1 Triplet Energy              -24.996569352087
 Nuclear energy                                  0.00000000
 Kinetic energy                                  6.70153408
 One electron energy                           -40.55275300
 Two electron energy                            15.55618364
 Virial ratio                                    4.72997720
 
 !MCSCF STATE 16.1 Triplet Dipole moment         0.00000000     0.00000000     0.00000000
 Dipole moment /Debye                            0.00000000     0.00000000     0.00000000
 
 State-averaged charge density matrix saved on record 2140.2 (density set 1)
 
 No non-zero expectation values
 
 Expectation values for two-electron operators:
 
 !MCSCF expec      <1.1 Singlet|LXLX|1.1 Singlet>    -0.000000000000
 !MCSCF expec      <2.1 Singlet|LXLX|2.1 Singlet>     0.868023082293
 !MCSCF expec      <3.1 Singlet|LXLX|3.1 Singlet>     4.000000000000
 !MCSCF expec      <4.1 Singlet|LXLX|4.1 Singlet>     1.000000000000
 !MCSCF expec      <5.1 Singlet|LXLX|5.1 Singlet>     3.131976927040
 !MCSCF expec      <6.1 Singlet|LXLX|6.1 Singlet>     1.000000000002
 !MCSCF expec      <7.1 Singlet|LXLX|7.1 Singlet>     3.196433886502
 !MCSCF expec      <8.1 Singlet|LXLX|8.1 Singlet>     1.000000000001
 !MCSCF expec      <9.1 Singlet|LXLX|9.1 Singlet>     4.000000000000
 !MCSCF expec    <10.1 Singlet|LXLX|10.1 Singlet>     1.000000000000
 !MCSCF expec    <11.1 Singlet|LXLX|11.1 Singlet>     0.803567000672
 !MCSCF expec    <12.1 Singlet|LXLX|12.1 Singlet>     0.000000000000
 !MCSCF expec      <1.1 Triplet|LXLX|1.1 Triplet>     4.000000000000
 !MCSCF expec      <2.1 Triplet|LXLX|2.1 Triplet>     0.973692655131
 !MCSCF expec      <3.1 Triplet|LXLX|3.1 Triplet>     0.999999999993
 !MCSCF expec      <4.1 Triplet|LXLX|4.1 Triplet>     3.026306029063
 !MCSCF expec      <5.1 Triplet|LXLX|5.1 Triplet>     1.000000000000
 !MCSCF expec      <6.1 Triplet|LXLX|6.1 Triplet>     3.869511030926
 !MCSCF expec      <7.1 Triplet|LXLX|7.1 Triplet>     3.999999999810
 !MCSCF expec      <8.1 Triplet|LXLX|8.1 Triplet>     1.605530807874
 !MCSCF expec      <9.1 Triplet|LXLX|9.1 Triplet>     5.891680488018
 !MCSCF expec    <10.1 Triplet|LXLX|10.1 Triplet>     8.394471926424
 !MCSCF expec    <11.1 Triplet|LXLX|11.1 Triplet>     0.130487170116
 !MCSCF expec    <12.1 Triplet|LXLX|12.1 Triplet>     4.108314156756
 !MCSCF expec    <13.1 Triplet|LXLX|13.1 Triplet>     1.000000000000
 !MCSCF expec    <14.1 Triplet|LXLX|14.1 Triplet>    -0.000000000000
 !MCSCF expec    <15.1 Triplet|LXLX|15.1 Triplet>     1.000000000000
 !MCSCF expec    <16.1 Triplet|LXLX|16.1 Triplet>    -0.000000000000
 
 !MCSCF expec      <1.1 Singlet|LYLY|1.1 Singlet>    -0.000000000000
 !MCSCF expec      <2.1 Singlet|LYLY|2.1 Singlet>     1.138062972936
 !MCSCF expec      <3.1 Singlet|LYLY|3.1 Singlet>     1.000000000000
 !MCSCF expec      <4.1 Singlet|LYLY|4.1 Singlet>     1.000000000000
 !MCSCF expec      <5.1 Singlet|LYLY|5.1 Singlet>     2.861937016845
 !MCSCF expec      <6.1 Singlet|LYLY|6.1 Singlet>     3.999999999998
 !MCSCF expec      <7.1 Singlet|LYLY|7.1 Singlet>     0.013831520700
 !MCSCF expec      <8.1 Singlet|LYLY|8.1 Singlet>     1.000000000076
 !MCSCF expec      <9.1 Singlet|LYLY|9.1 Singlet>     1.000000000000
 !MCSCF expec    <10.1 Singlet|LYLY|10.1 Singlet>     3.999999999862
 !MCSCF expec    <11.1 Singlet|LYLY|11.1 Singlet>     3.986168609277
 !MCSCF expec    <12.1 Singlet|LYLY|12.1 Singlet>     0.000000000000
 !MCSCF expec      <1.1 Triplet|LYLY|1.1 Triplet>     1.000000000000
 !MCSCF expec      <2.1 Triplet|LYLY|2.1 Triplet>     1.026540096080
 !MCSCF expec      <3.1 Triplet|LYLY|3.1 Triplet>     1.000000000031
 !MCSCF expec      <4.1 Triplet|LYLY|4.1 Triplet>     2.973461243095
 !MCSCF expec      <5.1 Triplet|LYLY|5.1 Triplet>     4.000000000000
 !MCSCF expec      <6.1 Triplet|LYLY|6.1 Triplet>     2.689206005883
 !MCSCF expec      <7.1 Triplet|LYLY|7.1 Triplet>     4.000000000084
 !MCSCF expec      <8.1 Triplet|LYLY|8.1 Triplet>     3.448726803525
 !MCSCF expec      <9.1 Triplet|LYLY|9.1 Triplet>     6.107542752280
 !MCSCF expec    <10.1 Triplet|LYLY|10.1 Triplet>     0.551274978070
 !MCSCF expec    <11.1 Triplet|LYLY|11.1 Triplet>     7.310785728152
 !MCSCF expec    <12.1 Triplet|LYLY|12.1 Triplet>     3.892462526180
 !MCSCF expec    <13.1 Triplet|LYLY|13.1 Triplet>     0.000000000000
 !MCSCF expec    <14.1 Triplet|LYLY|14.1 Triplet>     1.000000000000
 !MCSCF expec    <15.1 Triplet|LYLY|15.1 Triplet>     1.000000000000
 !MCSCF expec    <16.1 Triplet|LYLY|16.1 Triplet>    -0.000000000000
 
 !MCSCF expec      <1.1 Singlet|LZLZ|1.1 Singlet>    -0.000000000000
 !MCSCF expec      <2.1 Singlet|LZLZ|2.1 Singlet>     3.993913944771
 !MCSCF expec      <3.1 Singlet|LZLZ|3.1 Singlet>     1.000000000000
 !MCSCF expec      <4.1 Singlet|LZLZ|4.1 Singlet>     4.000000000000
 !MCSCF expec      <5.1 Singlet|LZLZ|5.1 Singlet>     0.006086056114
 !MCSCF expec      <6.1 Singlet|LZLZ|6.1 Singlet>     0.999999999999
 !MCSCF expec      <7.1 Singlet|LZLZ|7.1 Singlet>     2.789734592798
 !MCSCF expec      <8.1 Singlet|LZLZ|8.1 Singlet>     3.999999999923
 !MCSCF expec      <9.1 Singlet|LZLZ|9.1 Singlet>     1.000000000000
 !MCSCF expec    <10.1 Singlet|LZLZ|10.1 Singlet>     1.000000000138
 !MCSCF expec    <11.1 Singlet|LZLZ|11.1 Singlet>     1.210264390050
 !MCSCF expec    <12.1 Singlet|LZLZ|12.1 Singlet>     0.000000000000
 !MCSCF expec      <1.1 Triplet|LZLZ|1.1 Triplet>     1.000000000000
 !MCSCF expec      <2.1 Triplet|LZLZ|2.1 Triplet>     3.999767248789
 !MCSCF expec      <3.1 Triplet|LZLZ|3.1 Triplet>     3.999999999976
 !MCSCF expec      <4.1 Triplet|LZLZ|4.1 Triplet>     0.000232727842
 !MCSCF expec      <5.1 Triplet|LZLZ|5.1 Triplet>     1.000000000000
 !MCSCF expec      <6.1 Triplet|LZLZ|6.1 Triplet>     5.441282963191
 !MCSCF expec      <7.1 Triplet|LZLZ|7.1 Triplet>     4.000000000106
 !MCSCF expec      <8.1 Triplet|LZLZ|8.1 Triplet>     6.945742388601
 !MCSCF expec      <9.1 Triplet|LZLZ|9.1 Triplet>     0.000776759702
 !MCSCF expec    <10.1 Triplet|LZLZ|10.1 Triplet>     3.054253095506
 !MCSCF expec    <11.1 Triplet|LZLZ|11.1 Triplet>     4.558727101732
 !MCSCF expec    <12.1 Triplet|LZLZ|12.1 Triplet>     3.999223317064
 !MCSCF expec    <13.1 Triplet|LZLZ|13.1 Triplet>     1.000000000000
 !MCSCF expec    <14.1 Triplet|LZLZ|14.1 Triplet>     1.000000000000
 !MCSCF expec    <15.1 Triplet|LZLZ|15.1 Triplet>     0.000000000000
 !MCSCF expec    <16.1 Triplet|LZLZ|16.1 Triplet>    -0.000000000000
 
 !MCSCF expec      <1.1 Singlet|L**2|1.1 Singlet>    -0.000000000000
 !MCSCF expec      <2.1 Singlet|L**2|2.1 Singlet>     6.000000000000
 !MCSCF expec      <3.1 Singlet|L**2|3.1 Singlet>     6.000000000000
 !MCSCF expec      <4.1 Singlet|L**2|4.1 Singlet>     6.000000000000
 !MCSCF expec      <5.1 Singlet|L**2|5.1 Singlet>     6.000000000000
 !MCSCF expec      <6.1 Singlet|L**2|6.1 Singlet>     6.000000000000
 !MCSCF expec      <7.1 Singlet|L**2|7.1 Singlet>     6.000000000000
 !MCSCF expec      <8.1 Singlet|L**2|8.1 Singlet>     6.000000000000
 !MCSCF expec      <9.1 Singlet|L**2|9.1 Singlet>     6.000000000000
 !MCSCF expec    <10.1 Singlet|L**2|10.1 Singlet>     6.000000000000
 !MCSCF expec    <11.1 Singlet|L**2|11.1 Singlet>     6.000000000000
 !MCSCF expec    <12.1 Singlet|L**2|12.1 Singlet>     0.000000000000
 !MCSCF expec      <1.1 Triplet|L**2|1.1 Triplet>     6.000000000000
 !MCSCF expec      <2.1 Triplet|L**2|2.1 Triplet>     6.000000000000
 !MCSCF expec      <3.1 Triplet|L**2|3.1 Triplet>     6.000000000000
 !MCSCF expec      <4.1 Triplet|L**2|4.1 Triplet>     6.000000000000
 !MCSCF expec      <5.1 Triplet|L**2|5.1 Triplet>     6.000000000000
 !MCSCF expec      <6.1 Triplet|L**2|6.1 Triplet>    12.000000000000
 !MCSCF expec      <7.1 Triplet|L**2|7.1 Triplet>    12.000000000000
 !MCSCF expec      <8.1 Triplet|L**2|8.1 Triplet>    12.000000000000
 !MCSCF expec      <9.1 Triplet|L**2|9.1 Triplet>    12.000000000000
 !MCSCF expec    <10.1 Triplet|L**2|10.1 Triplet>    12.000000000000
 !MCSCF expec    <11.1 Triplet|L**2|11.1 Triplet>    12.000000000000
 !MCSCF expec    <12.1 Triplet|L**2|12.1 Triplet>    12.000000000000
 !MCSCF expec    <13.1 Triplet|L**2|13.1 Triplet>     2.000000000000
 !MCSCF expec    <14.1 Triplet|L**2|14.1 Triplet>     2.000000000000
 !MCSCF expec    <15.1 Triplet|L**2|15.1 Triplet>     2.000000000000
 !MCSCF expec    <16.1 Triplet|L**2|16.1 Triplet>    -0.000000000000
 
 EXTRA SYMMETRY OF MOS IN SYMMETRY 1:   1 1 4 5 3 2 6 1 3 6   2 5 4 1 3 6 5 2 4 1  11 7 81214151310 9 5   6 3 2 4 1 2 6 3 4 5
                                       11 7 8121514 91310 6   2 3 5 4 111 7 812 9  15141310 6 2 3 4 511   7 812 915141310 111
                                        7 812 914151310 6 2   4 3 5 6 2 4 3 5 1 1   1
 EXTRA SYMMETRY OF MOS IN SYMMETRY 2:   2 3 1 3 2 1 3 2 1 1   2 3 1 2 3 5 610 4 8   9 71219211314161517  201811 1 2 3 4 6 510
                                        8 7 9 5 6 810 4 9 7   1 3 2 5 6 810 4 9 7  12192113141611151718  20 2 3 1 5 6 810 4 9
                                        7 3 2 1121921131416  1115172018 5 6 810 4   9 7 5 9 7 6 4 810 3   2 1
 
  NATURAL ORBITALS (STATE AVERAGED)
  =================================

  Orbital  Occupation    Energy    Cen Mu Typ  Coefficients
    1.1     2.00000    -1.59221     1  1  s    0.99675
    2.1     1.52547    -0.12412     1  1  s   -0.32004    1  4  s    0.53485    1  5  s    0.63612
    3.1     0.05971     0.06091     1  2  d1+  0.34465    1  3  d1+  0.37711
    4.1     0.05971     0.06091     1  2  d2+  0.34465    1  3  d2+  0.37711
    5.1     0.05971     0.06091     1  2  d2-  0.34465    1  3  d2-  0.37711
    6.1     0.05971     0.06091     1  2  d0   0.34465    1  3  d0   0.37711
    7.1     0.05971     0.06091     1  2  d1-  0.34465    1  3  d1-  0.37711
    8.1     0.01360     0.07338     1  1  s    0.29925    1  2  s    0.36575    1  4  s   -1.47633    1  6  s    1.23466
                                    1 11  s    0.27547
    1.2     2.00000    -0.88671     1  1  py   0.99853
    2.2     2.00000    -0.88671     1  1  pz   0.99853
    3.2     2.00000    -0.88671     1  1  px   0.99853
    4.2     0.05351     0.04994     1  1  pz  -0.39040    1  2  pz   0.39921    1  3  pz   0.51590    1  4  pz   0.26511
    5.2     0.05351     0.04994     1  1  py  -0.39040    1  2  py   0.39921    1  3  py   0.51590    1  4  py   0.26511
    6.2     0.05351     0.04994     1  1  px  -0.39040    1  2  px   0.39921    1  3  px   0.51590    1  4  px   0.26511
    7.2     0.00061     0.14855     1  1  pz   0.42631    1  2  pz  -1.36957    1  4  pz   1.00085    1  5  pz   0.34538
    8.2     0.00061     0.14855     1  1  py   0.42631    1  2  py  -1.36957    1  4  py   1.00085    1  5  py   0.34538
    9.2     0.00061     0.14855     1  1  px   0.42631    1  2  px  -1.36957    1  4  px   1.00085    1  5  px   0.34538
 
 Natural orbital dump (state averaged) at molpro section 2140.2 (Orbital set 2)
 
 Transform the CI vectors
 
 CI Coefficients of symmetry 1 (Singlet)
 =======================================

 State:                   1               2               3               4               5               6               7
 2000000 000000      0.95794629      0.00000000      0.00000000     -0.00000000      0.00000000      0.00000000     -0.00000000
 a0000b0 000000     -0.00000000      0.00000025      0.64494495      0.00000000     -0.00000000      0.00000000     -0.00000001
 b0000a0 000000      0.00000000     -0.00000025     -0.64494495     -0.00000000      0.00000000     -0.00000000      0.00000001
 a00b000 000000      0.00000000     -0.00000043     -0.00000000      0.64494495     -0.00000007      0.00000006     -0.00000001
 b00a000 000000     -0.00000000      0.00000043      0.00000000     -0.64494495      0.00000007     -0.00000006      0.00000001
 ba00000 000000      0.00000000      0.00000002      0.00000000      0.00000006      0.00000100     -0.64494495     -0.00000000
 ab00000 000000     -0.00000000     -0.00000002     -0.00000000     -0.00000006     -0.00000100      0.64494495      0.00000000
 b0a0000 000000     -0.00000000     -0.64445412      0.00000025     -0.00000043     -0.02515710     -0.00000005     -0.01817196
 a0b0000 000000      0.00000000      0.64445412     -0.00000025      0.00000043      0.02515710      0.00000005      0.01817196
 a000b00 000000     -0.00000000     -0.02515710      0.00000001      0.00000006      0.64445412      0.00000100      0.01196907
 b000a00 000000      0.00000000      0.02515710     -0.00000001     -0.00000006     -0.64445412     -0.00000100     -0.01196907
 000ab00 000000     -0.00000000     -0.00000008     -0.00000000      0.11954055     -0.00000001      0.00000001      0.00000021
 000ba00 000000      0.00000000      0.00000008      0.00000000     -0.11954055      0.00000001     -0.00000001     -0.00000021
 0200000 000000     -0.04173823     -0.10111493      0.00000004     -0.00000007     -0.06376295     -0.00000010      0.46502808
 a00000b 000000     -0.00271738      0.00000000      0.00000000     -0.00000000      0.00000000     -0.00000000      0.00000001
 b00000a 000000      0.00271738     -0.00000000     -0.00000000      0.00000000     -0.00000000      0.00000000     -0.00000001
 0000020 000000     -0.04173823      0.10577780     -0.00000004      0.00000006     -0.05568663     -0.00000008     -0.20879117
 0ab0000 000000      0.00000000      0.00000000      0.00000000      0.00000001      0.00000016     -0.10352516      0.00000007
 0ba0000 000000     -0.00000000     -0.00000000     -0.00000000     -0.00000001     -0.00000016      0.10352516     -0.00000007
 0b0a000 000000     -0.00000000      0.00000004      0.10352516      0.00000000     -0.00000000      0.00000000      0.00000021
 0a0b000 000000      0.00000000     -0.00000004     -0.10352516     -0.00000000      0.00000000     -0.00000000     -0.00000021
 0a000b0 000000      0.00000000      0.00000007      0.00000000     -0.10352516      0.00000001     -0.00000001     -0.00000018
 0b000a0 000000     -0.00000000     -0.00000007     -0.00000000      0.10352516     -0.00000001      0.00000001      0.00000018
 00b00a0 000000      0.00000000     -0.00000004     -0.10352516     -0.00000000      0.00000000     -0.00000000     -0.00000021
 00a00b0 000000     -0.00000000      0.00000004      0.10352516      0.00000000     -0.00000000      0.00000000      0.00000021
 000a0b0 000000      0.00000000      0.00000000      0.00000000      0.00000001      0.00000016     -0.10352516      0.00000007
 000b0a0 000000     -0.00000000     -0.00000000     -0.00000000     -0.00000001     -0.00000016      0.10352516     -0.00000007
 0000200 000000     -0.04173823      0.00466287     -0.00000000     -0.00000001     -0.11944958     -0.00000018      0.25623690
 0020000 000000     -0.04173823     -0.00466287      0.00000000      0.00000001      0.11944958      0.00000018     -0.25623688
 00a0b00 000000     -0.00000000      0.11944958     -0.00000005      0.00000008      0.00466287      0.00000001     -0.38902972
 00b0a00 000000      0.00000000     -0.11944958      0.00000005     -0.00000008     -0.00466287     -0.00000001      0.38902972
 0002000 000000     -0.04173823     -0.00466287      0.00000000      0.00000001      0.11944958      0.00000018     -0.25623688
 0000000 020000     -0.15493010      0.22969633     -0.00000009      0.00000017      0.14484622      0.00000023      0.37634480
 0000000 002000     -0.15493010     -0.24028867      0.00000009     -0.00000014      0.12649975      0.00000019     -0.16897363
 0000000 0ba000     -0.00000000     -0.00000016     -0.00000000      0.23517148     -0.00000003      0.00000002     -0.00000014
 0000000 0ab000      0.00000000      0.00000016      0.00000000     -0.23517148      0.00000003     -0.00000002      0.00000014
 0000000 ba0000     -0.00000000      0.00000009      0.23517148      0.00000000     -0.00000000      0.00000000     -0.00000017
 0000000 ab0000      0.00000000     -0.00000009     -0.23517148     -0.00000000      0.00000000     -0.00000000      0.00000017
 0000000 a0b000     -0.00000000      0.00000001      0.00000000      0.00000002      0.00000036     -0.23517148     -0.00000005
 0000000 b0a000      0.00000000     -0.00000001     -0.00000000     -0.00000002     -0.00000036      0.23517148      0.00000005
 0000000 200000     -0.15493010      0.01059234     -0.00000000     -0.00000002     -0.27134597     -0.00000042     -0.20737120
 0b00a00 000000     -0.00000000     -0.00000000     -0.00000000     -0.00000001     -0.00000009      0.05977028     -0.00000004
 0a00b00 000000      0.00000000      0.00000000      0.00000000      0.00000001      0.00000009     -0.05977028      0.00000004
 0000ab0 000000      0.00000000     -0.00000002     -0.05977028     -0.00000000      0.00000000     -0.00000000     -0.00000012
 0000ba0 000000     -0.00000000      0.00000002      0.05977028      0.00000000     -0.00000000      0.00000000      0.00000012
 00000ab 000000     -0.00000000      0.00000002      0.05848810      0.00000000     -0.00000000      0.00000000     -0.00000005
 00000ba 000000      0.00000000     -0.00000002     -0.05848810     -0.00000000      0.00000000     -0.00000000      0.00000005
 000a00b 000000     -0.00000000     -0.00000004     -0.00000000      0.05848810     -0.00000001      0.00000001     -0.00000004
 000b00a 000000      0.00000000      0.00000004      0.00000000     -0.05848810      0.00000001     -0.00000001      0.00000004
 0b0000a 000000     -0.00000000      0.00000000      0.00000000      0.00000001      0.00000009     -0.05848810     -0.00000002
 0a0000b 000000      0.00000000     -0.00000000     -0.00000000     -0.00000001     -0.00000009      0.05848810      0.00000002
 0000000 0b00a0     -0.00831533     -0.01123379      0.00000000     -0.00000001     -0.00708401     -0.00000001     -0.05241659
 0000000 0a00b0      0.00831533      0.01123379     -0.00000000      0.00000001      0.00708401      0.00000001      0.05241659
 0000000 b00a00     -0.00831533     -0.00051804      0.00000000      0.00000000      0.01327075      0.00000002      0.02888227
 0000000 a00b00      0.00831533      0.00051804     -0.00000000     -0.00000000     -0.01327075     -0.00000002     -0.02888227
 0000000 00a00b      0.00831533     -0.01175183      0.00000000     -0.00000001      0.00618674      0.00000001     -0.02353433
 0000000 00b00a     -0.00831533      0.01175183     -0.00000000      0.00000001     -0.00618674     -0.00000001      0.02353433
 0000b0a 000000     -0.00000000      0.00228142     -0.00000000     -0.00000001     -0.05844359     -0.00000009     -0.05222661
 0000a0b 000000      0.00000000     -0.00228142      0.00000000      0.00000001      0.05844359      0.00000009      0.05222661
 00a000b 000000      0.00000000      0.05844359     -0.00000002      0.00000004      0.00228142      0.00000000      0.07929266
 00b000a 000000     -0.00000000     -0.05844359      0.00000002     -0.00000004     -0.00228142     -0.00000000     -0.07929266
 0000002 000000     -0.03316924     -0.00000000     -0.00000000     -0.00000000     -0.00000000      0.00000000     -0.00000000
 
 Energy:           -25.11856165    -25.05429518    -25.05429518    -25.05429518    -25.05429518    -25.05429517    -24.99989035

 State:                   8               9              10              11              12
 2000000 000000      0.00000000     -0.00000000     -0.00000000     -0.00000000     -0.06148312
 a0000b0 000000     -0.00000000      0.02175957      0.00000000      0.00000000     -0.00000000
 b0000a0 000000      0.00000000     -0.02175957     -0.00000000     -0.00000000      0.00000000
 a00b000 000000     -0.02175957     -0.00000000      0.00000011      0.00000001     -0.00000000
 b00a000 000000      0.02175957      0.00000000     -0.00000011     -0.00000001      0.00000000
 ba00000 000000     -0.00000011     -0.00000000     -0.02175957     -0.00000000     -0.00000000
 ab00000 000000      0.00000011      0.00000000      0.02175957      0.00000000      0.00000000
 b0a0000 000000      0.00000001     -0.00000001      0.00000000      0.01196907     -0.00000000
 a0b0000 000000     -0.00000001      0.00000001     -0.00000000     -0.01196907      0.00000000
 a000b00 000000     -0.00000000      0.00000001     -0.00000000      0.01817196     -0.00000000
 b000a00 000000      0.00000000     -0.00000001      0.00000000     -0.01817196      0.00000000
 000ab00 000000      0.46583416      0.00000005     -0.00000235     -0.00000012      0.00000000
 000ba00 000000     -0.46583416     -0.00000005      0.00000235      0.00000012     -0.00000000
 0200000 000000     -0.00000021      0.00000024     -0.00000007     -0.02739279      0.26759216
 a00000b 000000     -0.00000000      0.00000000     -0.00000000      0.00000000      0.43981476
 b00000a 000000      0.00000000     -0.00000000      0.00000000     -0.00000000     -0.43981476
 0000020 000000      0.00000020     -0.00000011      0.00000001      0.41642252      0.26759217
 0ab0000 000000      0.00000204      0.00000000      0.40342423      0.00000002      0.00000000
 0ba0000 000000     -0.00000204     -0.00000000     -0.40342423     -0.00000002     -0.00000000
 0b0a000 000000      0.00000004     -0.40342422     -0.00000000     -0.00000000      0.00000000
 0a0b000 000000     -0.00000004      0.40342422      0.00000000      0.00000000     -0.00000000
 0a000b0 000000     -0.40342422     -0.00000004      0.00000204      0.00000010     -0.00000000
 0b000a0 000000      0.40342422      0.00000004     -0.00000204     -0.00000010      0.00000000
 00b00a0 000000     -0.00000004      0.40342422      0.00000000      0.00000000     -0.00000000
 00a00b0 000000      0.00000004     -0.40342422     -0.00000000     -0.00000000      0.00000000
 000a0b0 000000      0.00000204      0.00000000      0.40342422      0.00000002     -0.00000000
 000b0a0 000000     -0.00000204     -0.00000000     -0.40342422     -0.00000002      0.00000000
 0000200 000000     -0.00000001      0.00000013     -0.00000006      0.38902973      0.26759216
 0020000 000000      0.00000001     -0.00000013      0.00000006     -0.38902972      0.26759218
 00a0b00 000000      0.00000024     -0.00000020      0.00000005      0.25623689      0.00000002
 00b0a00 000000     -0.00000024      0.00000020     -0.00000005     -0.25623689     -0.00000002
 0002000 000000      0.00000001     -0.00000013      0.00000006     -0.38902972      0.26759218
 0000000 020000     -0.00000017      0.00000020     -0.00000006     -0.02216885     -0.25639427
 0000000 002000      0.00000016     -0.00000009      0.00000001      0.33700858     -0.25639425
 0000000 0ba000     -0.32648913     -0.00000004      0.00000165      0.00000008     -0.00000000
 0000000 0ab000      0.32648913      0.00000004     -0.00000165     -0.00000008      0.00000000
 0000000 ba0000     -0.00000004      0.32648913      0.00000000      0.00000000     -0.00000000
 0000000 ab0000      0.00000004     -0.32648913     -0.00000000     -0.00000000      0.00000000
 0000000 a0b000     -0.00000165     -0.00000000     -0.32648913     -0.00000002     -0.00000000
 0000000 b0a000      0.00000165      0.00000000      0.32648913      0.00000002      0.00000000
 0000000 200000      0.00000001     -0.00000011      0.00000005     -0.31483974     -0.25639425
 0b00a00 000000     -0.00000117     -0.00000000     -0.23291709     -0.00000001     -0.00000000
 0a00b00 000000      0.00000117      0.00000000      0.23291709      0.00000001      0.00000000
 0000ab0 000000     -0.00000003      0.23291708      0.00000000      0.00000000     -0.00000000
 0000ba0 000000      0.00000003     -0.23291708     -0.00000000     -0.00000000      0.00000000
 00000ab 000000     -0.00000001      0.09494707      0.00000000      0.00000000     -0.00000000
 00000ba 000000      0.00000001     -0.09494707     -0.00000000     -0.00000000      0.00000000
 000a00b 000000     -0.09494707     -0.00000001      0.00000048      0.00000002      0.00000000
 000b00a 000000      0.09494707      0.00000001     -0.00000048     -0.00000002     -0.00000000
 0b0000a 000000     -0.00000048     -0.00000000     -0.09494707     -0.00000000      0.00000000
 0a0000b 000000      0.00000048      0.00000000      0.09494707      0.00000000     -0.00000000
 0000000 0b00a0      0.00000002     -0.00000003      0.00000001      0.00308764      0.08991912
 0000000 0a00b0     -0.00000002      0.00000003     -0.00000001     -0.00308764     -0.08991912
 0000000 b00a00     -0.00000000      0.00000001     -0.00000001      0.04385029      0.08991912
 0000000 a00b00      0.00000000     -0.00000001      0.00000001     -0.04385029     -0.08991912
 0000000 00a00b      0.00000002     -0.00000001      0.00000000      0.04693792     -0.08991912
 0000000 00b00a     -0.00000002      0.00000001     -0.00000000     -0.04693792      0.08991912
 0000b0a 000000      0.00000000     -0.00000003      0.00000001     -0.07929266      0.00000000
 0000a0b 000000     -0.00000000      0.00000003     -0.00000001      0.07929266     -0.00000000
 00a000b 000000     -0.00000005      0.00000004     -0.00000001     -0.05222661     -0.00000000
 00b000a 000000      0.00000005     -0.00000004      0.00000001      0.05222661      0.00000000
 0000002 000000      0.00000000     -0.00000000      0.00000000     -0.00000000     -0.07470899
 
 Energy:           -24.99989035    -24.99989035    -24.99989035    -24.99989035    -24.99213357
 
 
 CI Coefficients of symmetry 1 (Triplet)
 =======================================

 State:                   1               2               3               4               5               6               7
 00a0a00 000000      0.00000000     -0.00000000      0.00000000      0.00000000     -0.00000000     -0.00000082      1.00000000
 000aa00 000000     -0.00000000     -0.00000000     -0.00000000      0.00000000     -0.00000000      0.00000023      0.00000193
 aa00000 000000     -0.00000000      0.00000001      0.00000011     -0.00000058      0.99902665      0.00000000     -0.00000000
 a00a000 000000      0.00000000      0.00000117      0.99902665     -0.00000242     -0.00000011      0.00000000     -0.00000000
 a0000a0 000000      0.99902665      0.00000000      0.00000000     -0.00000000      0.00000000     -0.00000000     -0.00000000
 a000a00 000000      0.00000000     -0.00762067      0.00000243      0.99899758      0.00000058      0.00000000     -0.00000000
 a0a0000 000000     -0.00000000      0.99899758     -0.00000115      0.00762067     -0.00000000      0.00000000      0.00000000
 a00000a 000000      0.00000000     -0.00000000     -0.00000000     -0.00000000     -0.00000000      0.00000000      0.00000000
 0a000a0 000000      0.00000000     -0.00000000     -0.00000000      0.00000000      0.00000000      0.00000123     -0.00000481
 00a00a0 000000     -0.00000000     -0.00000000      0.00000000     -0.00000000     -0.00000000      0.89216946      0.00000070
 0aa0000 000000     -0.00000000     -0.00000000     -0.00000000     -0.00000000     -0.00000000     -0.00000000     -0.00000685
 0a0a000 000000     -0.00000000      0.00000000      0.00000000     -0.00000000     -0.00000000     -0.16154812      0.00000023
 000a0a0 000000      0.00000000     -0.00000000     -0.00000000      0.00000000     -0.00000000      0.00000000     -0.00000314
 00aa000 000000      0.00000000      0.00000000      0.00000000     -0.00000000      0.00000000     -0.00000062      0.00000241
 0000aa0 000000     -0.00000000     -0.00000000      0.00000000      0.00000000     -0.00000000     -0.42182444     -0.00000054
 0a00a00 000000      0.00000000     -0.00000000     -0.00000000      0.00000000     -0.00000000     -0.00000000     -0.00000214
 0000000 aa0000      0.00000000      0.00000000     -0.00000000     -0.00000000     -0.00000000      0.00000001      0.00000000
 0000000 0aa000     -0.00000000      0.00000000      0.00000000      0.00000000     -0.00000000      0.00000000     -0.00000000
 0000000 a0a000     -0.00000000      0.00000000     -0.00000000     -0.00000000      0.00000000      0.00000000      0.00000000
 0000000 a00a00      0.00000000     -0.00002408      0.00000001      0.00315614      0.00000000     -0.00000000     -0.00000000
 0000000 0a00a0      0.00000000     -0.00272126     -0.00000000     -0.00159892     -0.00000000      0.00000000     -0.00000000
 0000000 00a00a     -0.00000000      0.00274534     -0.00000001     -0.00155722     -0.00000000     -0.00000000      0.00000000
 0000000 00aa00     -0.00000000      0.00000000      0.00000000     -0.00000000      0.00273338     -0.00000000     -0.00000000
 0000000 0a0a00      0.00273338     -0.00000000      0.00000000      0.00000000      0.00000000     -0.00000000      0.00000000
 0000000 a0000a      0.00000000      0.00000000      0.00000000     -0.00000000      0.00273338      0.00000000      0.00000000
 0000000 a000a0      0.00273338      0.00000000      0.00000000      0.00000000     -0.00000000      0.00000000     -0.00000000
 0000000 00a0a0     -0.00000000      0.00000000      0.00273338     -0.00000001     -0.00000000     -0.00000000      0.00000000
 0000000 0a000a      0.00000000      0.00000000      0.00273338     -0.00000001     -0.00000000      0.00000000     -0.00000000
 
 Energy:           -25.06049168    -25.06049168    -25.06049168    -25.06049168    -25.06049168    -25.00258042    -25.00258042

 State:                   8               9              10              11              12              13              14
 00a0a00 000000      0.00000781      0.00000541      0.00000066     -0.00000041     -0.00000186      0.00000000      0.00000000
 000aa00 000000      0.00000017     -0.01393520      0.00000371      0.00000013      0.99990290     -0.00000000      0.00000000
 aa00000 000000      0.00000000     -0.00000000      0.00000000      0.00000000      0.00000000     -0.00000000      0.00000000
 a00a000 000000     -0.00000000      0.00000000      0.00000000     -0.00000000      0.00000000      0.00000000     -0.00000000
 a0000a0 000000     -0.00000000      0.00000000     -0.00000000      0.00000000      0.00000000      0.00000000      0.00000000
 a000a00 000000      0.00000000     -0.00000000     -0.00000000      0.00000000      0.00000000     -0.00000000      0.00000000
 a0a0000 000000      0.00000000      0.00000000      0.00000000     -0.00000000     -0.00000000     -0.00000000      0.00000000
 a00000a 000000      0.00000000     -0.00000000      0.00000000      0.00000000     -0.00000000     -0.00000000     -0.00000000
 0a000a0 000000     -0.00000164      0.89434035      0.00000096     -0.00000011      0.01246402     -0.00000005     -0.00000000
 00a00a0 000000      0.00000000     -0.00000124      0.00000002     -0.06351098     -0.00000022      0.00000000      0.35570396
 0aa0000 000000      0.88714852      0.00000175     -0.11387500     -0.00000000      0.00000030     -0.35570394      0.00000000
 0a0a000 000000     -0.00000003      0.00000033     -0.00000023      0.87971713     -0.00000007      0.00000000      0.35570392
 000a0a0 000000      0.33204613     -0.00000024      0.83050908      0.00000023     -0.00000314      0.35570400     -0.00000000
 00aa000 000000      0.00000082     -0.44717015     -0.00000048      0.00000005     -0.00623201     -0.00000010     -0.00000000
 0000aa0 000000      0.00000001      0.00000052      0.00000012     -0.47123681      0.00000017      0.00000000      0.61609731
 0a00a00 000000      0.32048849      0.00000114     -0.54524046     -0.00000013      0.00000199      0.61609728     -0.00000000
 0000000 aa0000      0.00000000     -0.00000000      0.00000000     -0.00000002      0.00000000     -0.00000000     -0.59474269
 0000000 0aa000     -0.00000000      0.00000002      0.00000000      0.00000000      0.00000000     -0.00000008     -0.00000000
 0000000 a0a000     -0.00000001      0.00000000     -0.00000004     -0.00000000      0.00000000      0.59474269     -0.00000000
 0000000 a00a00     -0.00000000     -0.00000000     -0.00000000     -0.00000000      0.00000000      0.00000000      0.00000000
 0000000 0a00a0     -0.00000000     -0.00000000     -0.00000000     -0.00000000      0.00000000      0.00000000      0.00000000
 0000000 00a00a     -0.00000000     -0.00000000     -0.00000000     -0.00000000      0.00000000      0.00000000      0.00000000
 0000000 00aa00      0.00000000     -0.00000000      0.00000001      0.00000000     -0.00000000     -0.08253188      0.00000000
 0000000 0a0a00     -0.00000000      0.00000000     -0.00000000      0.00000000     -0.00000000      0.00000000      0.08253188
 0000000 a0000a     -0.00000000      0.00000000     -0.00000001     -0.00000000      0.00000000      0.08253188     -0.00000000
 0000000 a000a0      0.00000000     -0.00000000      0.00000000     -0.00000000      0.00000000     -0.00000000     -0.08253188
 0000000 00a0a0      0.00000000     -0.00000000     -0.00000000      0.00000000      0.00000000      0.00000001      0.00000000
 0000000 0a000a     -0.00000000      0.00000000      0.00000000      0.00000000      0.00000000     -0.00000001     -0.00000000
 
 Energy:           -25.00258042    -25.00258042    -25.00258042    -25.00258042    -25.00258042    -25.00035726    -25.00035726

 State:                  15              16
 00a0a00 000000      0.00000000     -0.00000000
 000aa00 000000     -0.00000000      0.00000000
 aa00000 000000     -0.00000000      0.00000000
 a00a000 000000      0.00000000      0.00000000
 a0000a0 000000      0.00000000      0.00000000
 a000a00 000000     -0.00000000      0.00000000
 a0a0000 000000     -0.00000000      0.00000000
 a00000a 000000     -0.00000000      0.98082110
 0a000a0 000000      0.35570391      0.00000000
 00a00a0 000000      0.00000000      0.00000000
 0aa0000 000000     -0.00000005     -0.00000000
 0a0a000 000000      0.00000000     -0.00000000
 000a0a0 000000      0.00000005     -0.00000000
 00aa000 000000      0.71140790      0.00000000
 0000aa0 000000      0.00000000      0.00000000
 0a00a00 000000      0.00000008      0.00000000
 0000000 aa0000     -0.00000000     -0.00000000
 0000000 0aa000      0.59474269      0.00000000
 0000000 a0a000      0.00000008      0.00000000
 0000000 a00a00      0.00000000     -0.11253144
 0000000 0a00a0      0.00000000     -0.11253144
 0000000 00a00a     -0.00000000     -0.11253143
 0000000 00aa00     -0.00000001     -0.00000000
 0000000 0a0a00      0.00000000      0.00000000
 0000000 a0000a      0.00000001      0.00000000
 0000000 a000a0     -0.00000000     -0.00000000
 0000000 00a0a0     -0.08253188      0.00000000
 0000000 0a000a      0.08253188      0.00000000
 
 Energy:           -25.00035726    -24.99656935
 


 **********************************************************************************************************************************
 DATASETS  * FILE   NREC   LENGTH (MB)   RECORD NAMES
              1      21       70.70       500      610      700      900      950      970     1000      129      960     1100   
                                          VAR    BASINP    GEOM    SYMINP    ZMAT    AOBASIS   BASIS     P2S    ABASIS      S 
                                         1400     1410     1420     1200     1210     1080     1700     1600     1650     1380   
                                           T        V       ECP      H0       H01     AOSYM    OPER      SMH    MOLCAS    JKOP   
                                         1700(1)
                                         OPER   

              2       5        1.70       700     1000      520     2100     2140   
                                         GEOM     BASIS   MCVARS     RHF     MCSCF   

 PROGRAMS   *        TOTAL     MULTI   RHF-SCF       INT
 CPU TIMES  *        10.36      5.82      0.47      3.69
 REAL TIME  *        13.66 SEC
 DISK USED  *        72.48 MB (local),        2.16 GB (total)
 SF USED    *       132.21 MB
 GA USED    *         0.00 MB       (max)       0.00 MB       (current)
 **********************************************************************************************************************************

 Energies and &lt;L**2&gt; values

        ENERGY       LL
    -25.11856165   -0.0
    -25.05429518    6.0
    -25.05429518    6.0
    -25.05429518    6.0
    -25.05429518    6.0
    -25.05429517    6.0
    -24.99989035    6.0
    -24.99989035    6.0
    -24.99989035    6.0
    -24.99989035    6.0
    -24.99989035    6.0
    -24.99213357    0.0
    -25.06049168    6.0
    -25.06049168    6.0
    -25.06049168    6.0
    -25.06049168    6.0
    -25.06049168    6.0
    -25.00258042   12.0
    -25.00258042   12.0
    -25.00258042   12.0
    -25.00258042   12.0
    -25.00258042   12.0
    -25.00258042   12.0
    -25.00258042   12.0
    -25.00035726    2.0
    -25.00035726    2.0
    -25.00035726    2.0
    -24.99656935   -0.0
                                                  


 PROGRAM * CI (Multireference internally contracted CI)     Authors: H.-J. Werner, P.J. Knowles, 1987


 Convergence thresholds:  THRVAR = 1.00D-08  THRDEN = 1.00D-06

 Number of optimized states: 12  Roots:   1   2   3   4   5   6   7   8   9  10  11  12
 Number of reference states: 12  Roots:   1   2   3   4   5   6   7   8   9  10  11  12

 Reference symmetry:                   1   Singlet 
 Number of electrons:                 10
 Maximum number of shells:             5
 Maximum number of spin couplings:    14

 Reference space:       49 conf       49 CSFs
 N elec internal:    18369 conf    44681 CSFs
 N-1 el internal:     4797 conf    14053 CSFs
 N-2 el internal:      543 conf     1681 CSFs

 Number of electrons in valence space:                     10
 Maximum number of open shell orbitals in reference space:  2
 Maximum number of open shell orbitals in internal spaces:  8


 Number of closed-shell orbitals:   4 (   1   3 )
 Number of active  orbitals:       13 (   7   6 )
 Number of external orbitals:     196 (  93 103 )

 Molecular orbitals read from record     2140.2  Type=MCSCF/NATURAL (state averaged)

 Valence orbitals related to previous ones by unitary transformation. Operators transformed.


 Number of p-space configurations:  49

 Reference wavefunction optimized for reference space (refopt=1)

 State     Reference Energy 
     1       -25.11856165
     2       -25.05429518
     3       -25.05429518
     4       -25.05429518
     5       -25.05429518
     6       -25.05429517
     7       -24.99989035
     8       -24.99989035
     9       -24.99989035
    10       -24.99989035
    11       -24.99989035
    12       -24.99213357

 Number of blocks in overlap matrix:   249   Smallest eigenvalue:  0.42D+00
 Number of N-2 electron functions:     297
 Number of N-1 electron functions:   14053

 Number of internal configurations:                22428
 Number of singly external configurations:       1377199
 Number of doubly external configurations:       2858315
 Total number of contracted configurations:      4257942
 Total number of uncontracted configurations:   17546986

 Diagonal Coupling coefficients finished.               Storage:13922065 words, CPU-Time:      2.09 seconds.
 Energy denominators for pairs finished in 1 passes.    Storage: 2058872 words, CPU-time:      0.34 seconds.

  ITER. STATE  ROOT     SQ.NORM     CORR.ENERGY   TOTAL ENERGY   ENERGY CHANGE       DEN1      VAR(S)    VAR(P)      TIME
    1     1     1     1.00000000     0.00000000   -25.11856165    -0.00000000    -0.24371155  0.37D-01  0.44D-01     5.12
    1     2     2     1.00000000     0.00000000   -25.05429518     0.00000000    -0.26299182  0.51D-01  0.52D-01     5.12
    1     3     3     1.00000000     0.00000000   -25.05429518     0.00000000    -0.26335329  0.52D-01  0.52D-01     5.12
    1     4     4     1.00000000     0.00000000   -25.05429518    -0.00000000    -0.26321669  0.51D-01  0.52D-01     5.12
    1     5     5     1.00000000     0.00000000   -25.05429518     0.00000000    -0.26305265  0.51D-01  0.52D-01     5.12
    1     6     6     1.00000000     0.00000000   -25.05429517    -0.00000000    -0.26309421  0.51D-01  0.52D-01     5.12
    1     7     7     1.00000000     0.00000000   -24.99989035    -0.00000000    -0.27111846  0.45D-01  0.62D-01     5.12
    1     8     8     1.00000000     0.00000000   -24.99989035    -0.00000000    -0.27179722  0.45D-01  0.62D-01     5.12
    1     9     9     1.00000000     0.00000000   -24.99989035    -0.00000000    -0.27178859  0.45D-01  0.62D-01     5.12
    1    10    10     1.00000000     0.00000000   -24.99989035    -0.00000000    -0.27172627  0.45D-01  0.62D-01     5.12
    1    11    11     1.00000000     0.00000000   -24.99989035    -0.00000000    -0.27089681  0.44D-01  0.62D-01     5.12
    1    12    12     1.00000000     0.00000000   -24.99213357     0.00000000    -0.25825669  0.47D-01  0.55D-01     5.12
    2     1     1     1.06823939    -0.24607703   -25.36463868    -0.24607703    -0.00606686  0.16D-02  0.76D-03    56.52
    2     2     2     1.08191258    -0.25168963   -25.30598481    -0.25168963    -0.00765456  0.28D-02  0.11D-02    56.52
    2     3     3     1.08195863    -0.25168558   -25.30598076    -0.25168558    -0.00766641  0.29D-02  0.11D-02    56.52
    2     4     4     1.08200765    -0.25166040   -25.30595557    -0.25166040    -0.00769936  0.29D-02  0.11D-02    56.52
    2     5     5     1.08198444    -0.25165756   -25.30595274    -0.25165756    -0.00769951  0.29D-02  0.11D-02    56.52
    2     6     6     1.08201966    -0.25163361   -25.30592878    -0.25163361    -0.00772448  0.29D-02  0.11D-02    56.52
    2     7     7     1.08187993    -0.25225858   -25.25214893    -0.25225858    -0.00794628  0.33D-02  0.15D-02    56.52
    2     8     8     1.08198590    -0.25215178   -25.25204213    -0.25215178    -0.00810264  0.35D-02  0.16D-02    56.52
    2     9     9     1.08207371    -0.25203940   -25.25192975    -0.25203940    -0.00826336  0.37D-02  0.16D-02    56.52
    2    10    10     1.08206339    -0.25203780   -25.25192816    -0.25203780    -0.00826548  0.37D-02  0.16D-02    56.52
    2    11    11     1.08207947    -0.25203531   -25.25192567    -0.25203531    -0.00826835  0.37D-02  0.16D-02    56.52
    2    12    12     1.07902909    -0.24820574   -25.24033931    -0.24820574    -0.00855418  0.33D-02  0.17D-02    56.52
    3     1     1     1.07083303    -0.25235901   -25.37092066    -0.00628198    -0.00023350  0.48D-04  0.33D-04   106.73
    3     2     2     1.08427209    -0.25923794   -25.31353311    -0.00754831    -0.00046323  0.17D-03  0.80D-04   106.73
    3     3     3     1.08428747    -0.25923658   -25.31353175    -0.00755100    -0.00046525  0.17D-03  0.80D-04   106.73
    3     4     4     1.08428925    -0.25923506   -25.31353023    -0.00757466    -0.00046667  0.17D-03  0.81D-04   106.73
    3     5     5     1.08428382    -0.25923360   -25.31352878    -0.00757604    -0.00046801  0.17D-03  0.81D-04   106.73
    3     6     6     1.08428821    -0.25923323   -25.31352840    -0.00759962    -0.00046836  0.17D-03  0.81D-04   106.73
    3     7     7     1.08251220    -0.25995494   -25.25984529    -0.00769636    -0.00045892  0.10D-03  0.13D-03   106.73
    3     8     8     1.08254782    -0.25995107   -25.25984142    -0.00779929    -0.00046724  0.10D-03  0.13D-03   106.73
    3     9     9     1.08257602    -0.25994900   -25.25983935    -0.00790961    -0.00047320  0.10D-03  0.13D-03   106.73
    3    10    10     1.08257311    -0.25994891   -25.25983926    -0.00791111    -0.00047297  0.10D-03  0.13D-03   106.73
    3    11    11     1.08256646    -0.25994798   -25.25983833    -0.00791267    -0.00047356  0.10D-03  0.13D-03   106.73
    3    12    12     1.07803403    -0.25619207   -25.24832564    -0.00798633    -0.00053808  0.61D-04  0.20D-03   106.73
    4     1     1     1.07178224    -0.25260494   -25.37116660    -0.00024593    -0.00001116  0.45D-05  0.14D-05   156.47
    4     2     2     1.08724019    -0.25974756   -25.31404273    -0.00050962    -0.00005186  0.36D-04  0.71D-05   156.47
    4     3     3     1.08723920    -0.25974754   -25.31404272    -0.00051097    -0.00005185  0.36D-04  0.71D-05   156.47
    4     4     4     1.08723404    -0.25974718   -25.31404236    -0.00051213    -0.00005210  0.36D-04  0.71D-05   156.47
    4     5     5     1.08723456    -0.25974708   -25.31404225    -0.00051348    -0.00005217  0.36D-04  0.71D-05   156.47
    4     6     6     1.08722987    -0.25974685   -25.31404203    -0.00051363    -0.00005233  0.36D-04  0.71D-05   156.47
    4     7     7     1.08454513    -0.26045232   -25.26034267    -0.00049739    -0.00004110  0.25D-04  0.72D-05   156.47
    4     8     8     1.08454534    -0.26045228   -25.26034263    -0.00050121    -0.00004108  0.25D-04  0.72D-05   156.47
    4     9     9     1.08454336    -0.26045216   -25.26034251    -0.00050316    -0.00004116  0.25D-04  0.72D-05   156.47
    4    10    10     1.08454501    -0.26045086   -25.26034121    -0.00050195    -0.00004177  0.25D-04  0.74D-05   156.47
    4    11    11     1.08454122    -0.26044907   -25.26033942    -0.00050109    -0.00004257  0.25D-04  0.76D-05   156.47
    4    12    12     1.07923451    -0.25670399   -25.24883756    -0.00051193    -0.00004984  0.14D-04  0.15D-04   156.47
    5     1     1     1.07197203    -0.25261684   -25.37117850    -0.00001190    -0.00000079  0.37D-06  0.11D-06   206.22
    5     2     2     1.08871408    -0.25981384   -25.31410902    -0.00006629    -0.00000821  0.38D-05  0.13D-05   206.22
    5     3     3     1.08871277    -0.25981384   -25.31410901    -0.00006629    -0.00000821  0.38D-05  0.13D-05   206.22
    5     4     4     1.08871241    -0.25981380   -25.31410898    -0.00006662    -0.00000823  0.38D-05  0.13D-05   206.22
    5     5     5     1.08871055    -0.25981377   -25.31410895    -0.00006669    -0.00000826  0.39D-05  0.13D-05   206.22
    5     6     6     1.08871157    -0.25981375   -25.31410893    -0.00006690    -0.00000827  0.39D-05  0.13D-05   206.22
    5     7     7     1.08531490    -0.26050091   -25.26039126    -0.00004859    -0.00000508  0.26D-05  0.95D-06   206.22
    5     8     8     1.08531535    -0.26050089   -25.26039124    -0.00004861    -0.00000509  0.26D-05  0.95D-06   206.22
    5     9     9     1.08531472    -0.26050088   -25.26039124    -0.00004872    -0.00000510  0.26D-05  0.95D-06   206.22
    5    10    10     1.08531449    -0.26050057   -25.26039093    -0.00004972    -0.00000533  0.26D-05  0.10D-05   206.22
    5    11    11     1.08531379    -0.26050018   -25.26039053    -0.00005111    -0.00000563  0.27D-05  0.11D-05   206.22
    5    12    12     1.07965057    -0.25675252   -25.24888609    -0.00004853    -0.00000623  0.34D-05  0.14D-05   206.22
[...]
 47  1     3    1  |1 1>-         0.00%    0.00%    0.00%    0.00%    0.00%    0.00%    0.00%    0.00%
 48  1     4    1  |1 1>-         0.00%    0.00%    0.00%    0.00%    0.00%    0.00%    0.00%    0.00%
 49  1     5    1  |1 1>-         0.00%    0.00%    0.00%    0.00%    0.00%    0.00%    0.00%    0.00%
 50  1     6    1  |1 1>-         0.00%   37.13%    0.00%    0.00%    0.00%    0.00%    0.00%    5.69%
 51  1     7    1  |1 1>-         0.00%    0.00%    0.00%   47.37%    0.00%    0.06%    0.00%    0.00%
 52  1     8    1  |1 1>-         4.28%    0.00%    0.00%    0.00%   45.72%    0.00%    7.78%    0.00%
 53  1     9    1  |1 1>-         0.00%    0.00%   37.86%    0.00%    0.00%    0.00%    0.00%    0.00%
 54  1    10    1  |1 1>-        45.69%    0.00%    0.00%    0.00%    4.27%    0.00%   20.82%    0.00%
 55  1    11    1  |1 1>-         0.00%    0.00%    0.00%    2.11%    0.00%   28.55%    0.00%    0.00%
 56  1    12    1  |1 1>-         0.00%    0.01%    0.00%    0.00%    0.00%    0.00%    0.00%   35.74%
 57  1    13    1  |1 1>-         0.00%    0.00%    0.00%    0.00%    0.00%    0.00%    0.00%    0.00%
 58  1    14    1  |1 1>-         0.00%    0.00%    0.00%    0.00%    0.00%    0.00%    0.00%    0.00%
 59  1    15    1  |1 1>-         0.00%    0.00%    0.00%    0.00%    0.00%    0.00%    0.00%    0.00%
 60  1    16    1  |1 1>-         0.00%    0.00%    0.00%    0.00%    0.00%    0.00%    0.00%    0.00%

   Total
 Nr Sym  State Sym Spin / Nr.     41       42       43       44       45       46       47       48

  1  1     1    1  |0 0>          0.00%    0.00%    0.00%    0.00%    0.00%    0.00%    0.00%    0.01%
  2  1     2    1  |0 0>          0.00%    0.00%    0.00%    0.00%    0.00%    0.00%    0.00%    0.00%
  3  1     3    1  |0 0>          0.00%    0.00%    0.00%    0.00%    0.00%    0.00%    0.00%    0.00%
  4  1     4    1  |0 0>          0.00%    0.00%    0.00%    0.00%    0.00%    0.00%    0.00%    0.00%
  5  1     5    1  |0 0>          0.00%    0.00%    0.00%    0.00%    0.00%    0.00%    0.00%    0.00%
  6  1     6    1  |0 0>          0.00%    0.00%    0.00%    0.00%    0.00%    0.00%    0.00%    0.00%
  7  1     7    1  |0 0>          0.00%    0.00%   88.40%    0.00%    0.00%    0.00%    0.00%    0.00%
  8  1     8    1  |0 0>          0.00%    0.00%    0.00%    0.00%    0.00%   88.40%    0.00%    0.00%
  9  1     9    1  |0 0>          0.00%    0.00%    0.00%    0.00%    0.00%    0.00%   88.40%    0.00%
 10  1    10    1  |0 0>          0.00%    0.00%    0.00%   83.98%    4.41%    0.00%    0.00%    0.00%
 11  1    11    1  |0 0>          0.00%    0.00%    0.00%    4.40%   83.97%    0.00%    0.00%    0.00%
 12  1    12    1  |0 0>          0.00%    0.00%    0.00%    0.00%    0.00%    0.00%    0.00%    3.49%
 13  1     1    1  |1 1>+         0.00%    0.00%    0.00%    0.00%    0.00%    0.00%    0.00%    0.00%
 14  1     2    1  |1 1>+         0.00%    0.00%    0.00%    0.00%    0.00%    0.00%    0.00%    0.00%
 15  1     3    1  |1 1>+         0.00%    0.00%    0.00%    0.00%    0.00%    0.00%    0.00%    0.00%
 16  1     4    1  |1 1>+         0.00%    0.00%    0.00%    0.00%    0.00%    0.00%    0.00%    0.00%
 17  1     5    1  |1 1>+         0.00%    0.00%    0.00%    0.00%    0.00%    0.00%    0.00%    0.00%
 18  1     6    1  |1 1>+         5.69%    0.00%    0.00%    0.00%    0.00%    0.22%    0.00%    0.00%
 19  1     7    1  |1 1>+         0.00%    0.00%    0.35%    0.00%    0.00%    0.00%    0.00%    0.00%
 20  1     8    1  |1 1>+         0.00%    0.18%    0.00%    0.20%    0.08%    0.00%    0.00%    0.00%
 21  1     9    1  |1 1>+         0.00%    0.00%    0.00%    0.00%    0.00%    0.00%    0.22%    0.00%
 22  1    10    1  |1 1>+         0.00%   21.76%    0.00%    0.18%    0.15%    0.00%    0.00%    0.00%
 23  1    11    1  |1 1>+         0.00%    0.00%    0.00%    0.00%    0.00%    0.00%    0.00%    0.00%
 24  1    12    1  |1 1>+        35.74%    0.00%    0.00%    0.00%    0.00%    0.13%    0.00%    0.00%
 25  1    13    1  |1 1>+         0.00%    0.00%    0.00%    6.67%    0.46%    0.00%    0.00%   32.17%
 26  1    14    1  |1 1>+         0.00%    0.00%    5.34%    0.00%    0.00%    0.00%    0.00%    0.00%
 27  1    15    1  |1 1>+         0.00%    0.00%    0.00%    0.00%    0.00%    5.34%    0.00%    0.00%
 28  1    16    1  |1 1>+         0.00%    0.00%    0.00%    0.00%    0.00%    0.00%    0.00%    0.00%
 29  1     1    1  |1 0>          0.00%    0.00%    0.00%    0.00%    0.00%    0.00%    0.00%    0.00%
 30  1     2    1  |1 0>          0.00%    0.00%    0.00%    0.00%    0.00%    0.00%    0.00%    0.00%
 31  1     3    1  |1 0>          0.00%    0.00%    0.00%    0.00%    0.00%    0.00%    0.00%    0.00%
 32  1     4    1  |1 0>          0.00%    0.00%    0.00%    0.00%    0.00%    0.00%    0.00%    0.00%
 33  1     5    1  |1 0>          0.00%    0.00%    0.00%    0.00%    0.00%    0.00%    0.00%    0.00%
 34  1     6    1  |1 0>          0.00%    0.00%    0.00%    0.20%    0.02%    0.00%    0.00%    0.00%
 35  1     7    1  |1 0>          0.00%    0.00%    0.00%    0.00%    0.00%    0.00%    0.03%    0.00%
 36  1     8    1  |1 0>          4.31%    0.00%    0.00%    0.00%    0.00%    0.03%    0.00%    0.00%
 37  1     9    1  |1 0>          0.00%    0.00%    0.22%    0.00%    0.00%    0.00%    0.00%    0.00%
 38  1    10    1  |1 0>         49.25%    0.00%    0.00%    0.00%    0.00%    0.32%    0.00%    0.00%
 39  1    11    1  |1 0>          0.00%    0.00%    0.00%    0.00%    0.00%    0.00%    0.32%    0.00%
 40  1    12    1  |1 0>          0.00%   56.11%    0.00%    0.03%    0.37%    0.00%    0.00%    0.00%
 41  1    13    1  |1 0>          0.00%    0.00%    0.00%    0.00%    0.00%    5.34%    0.00%    0.00%
 42  1    14    1  |1 0>          0.00%    0.00%    0.00%    0.00%    0.00%    0.00%    5.34%    0.00%
 43  1    15    1  |1 0>          0.00%    0.00%    0.00%    0.50%    6.64%    0.00%    0.00%   32.17%
 44  1    16    1  |1 0>          0.00%    0.00%    0.00%    0.00%    0.00%    0.00%    0.00%    0.00%
 45  1     1    1  |1 1>-         0.00%    0.00%    0.00%    0.00%    0.00%    0.00%    0.00%    0.00%
 46  1     2    1  |1 1>-         0.00%    0.00%    0.00%    0.00%    0.00%    0.00%    0.00%    0.00%
 47  1     3    1  |1 1>-         0.00%    0.00%    0.00%    0.00%    0.00%    0.00%    0.00%    0.00%
 48  1     4    1  |1 1>-         0.00%    0.00%    0.00%    0.00%    0.00%    0.00%    0.00%    0.00%
 49  1     5    1  |1 1>-         0.00%    0.00%    0.00%    0.00%    0.00%    0.00%    0.00%    0.00%
 50  1     6    1  |1 1>-         0.00%    0.00%    0.00%    0.00%    0.00%    0.00%    0.22%    0.00%
 51  1     7    1  |1 1>-         0.00%    0.18%    0.00%    0.28%    0.00%    0.00%    0.00%    0.00%
 52  1     8    1  |1 1>-         0.00%    0.00%    0.35%    0.00%    0.00%    0.00%    0.00%    0.00%
 53  1     9    1  |1 1>-         5.01%    0.00%    0.00%    0.00%    0.00%    0.22%    0.00%    0.00%
 54  1    10    1  |1 1>-         0.00%    0.00%    0.00%    0.00%    0.00%    0.00%    0.00%    0.00%
 55  1    11    1  |1 1>-         0.00%   21.76%    0.00%    0.03%    0.31%    0.00%    0.00%    0.00%
 56  1    12    1  |1 1>-         0.00%    0.00%    0.00%    0.00%    0.00%    0.00%    0.13%    0.00%
 57  1    13    1  |1 1>-         0.00%    0.00%    5.34%    0.00%    0.00%    0.00%    0.00%    0.00%
 58  1    14    1  |1 1>-         0.00%    0.00%    0.00%    3.52%    3.61%    0.00%    0.00%   32.17%
 59  1    15    1  |1 1>-         0.00%    0.00%    0.00%    0.00%    0.00%    0.00%    5.34%    0.00%
 60  1    16    1  |1 1>-         0.00%    0.00%    0.00%    0.00%    0.00%    0.00%    0.00%    0.00%

   Total
 Nr Sym  State Sym Spin / Nr.     49       50       51       52       53       54       55       56

  1  1     1    1  |0 0>          0.00%    0.00%    0.00%    0.00%    0.00%    0.00%    0.00%    0.00%
  2  1     2    1  |0 0>          0.00%    0.00%    0.00%    0.00%    0.00%    0.00%    0.00%    0.00%
  3  1     3    1  |0 0>          0.00%    0.00%    0.00%    0.00%    0.00%    0.00%    0.00%    0.00%
  4  1     4    1  |0 0>          0.00%    0.00%    0.00%    0.00%    0.00%    0.00%    0.00%    0.00%
  5  1     5    1  |0 0>          0.00%    0.00%    0.00%    0.00%    0.00%    0.00%    0.00%    0.00%
  6  1     6    1  |0 0>          0.00%    0.00%    0.00%    0.00%    0.00%    0.00%    0.00%    0.00%
  7  1     7    1  |0 0>          0.00%    0.00%    0.00%   10.65%    0.00%    0.00%    0.00%    0.00%
  8  1     8    1  |0 0>          0.00%    0.00%    0.00%    0.00%   10.65%    0.00%    0.00%    0.00%
  9  1     9    1  |0 0>          0.00%    0.00%    0.00%    0.00%    0.00%   10.65%    0.00%    0.00%
 10  1    10    1  |0 0>          0.00%    0.00%    0.00%    0.00%    0.00%    0.00%   10.64%    0.02%
 11  1    11    1  |0 0>          0.00%    0.00%    0.00%    0.00%    0.00%    0.00%    0.02%   10.65%
 12  1    12    1  |0 0>          0.00%    0.00%    0.00%    0.00%    0.00%    0.00%    0.00%    0.00%
 13  1     1    1  |1 1>+         0.00%    0.00%    0.00%    0.00%    0.00%    0.00%    0.00%    0.00%
 14  1     2    1  |1 1>+         0.00%    0.00%    0.00%    0.00%    0.00%    0.00%    0.00%    0.00%
 15  1     3    1  |1 1>+         0.00%    0.00%    0.00%    0.00%    0.00%    0.00%    0.00%    0.00%
 16  1     4    1  |1 1>+         0.00%    0.00%    0.00%    0.00%    0.00%    0.00%    0.00%    0.00%
 17  1     5    1  |1 1>+         0.00%    0.00%    0.00%    0.00%    0.00%    0.00%    0.00%    0.00%
 18  1     6    1  |1 1>+         0.00%    0.00%    0.00%    0.00%    0.01%    0.00%    0.00%    0.00%
 19  1     7    1  |1 1>+         0.00%    0.00%    0.00%    0.02%    0.00%    0.00%    0.00%    0.00%
 20  1     8    1  |1 1>+         0.00%    0.00%    0.00%    0.00%    0.00%    0.00%    0.01%    0.00%
 21  1     9    1  |1 1>+         0.00%    0.00%    0.00%    0.00%    0.00%    0.01%    0.00%    0.00%
 22  1    10    1  |1 1>+         0.00%    0.00%    0.00%    0.00%    0.00%    0.00%    0.01%    0.01%
 23  1    11    1  |1 1>+         0.00%    0.00%    0.00%    0.00%    0.00%    0.00%    0.00%    0.00%
 24  1    12    1  |1 1>+         0.00%    0.00%    0.00%    0.00%    0.01%    0.00%    0.00%    0.00%
 25  1    13    1  |1 1>+         0.00%    0.00%    0.00%    0.00%    0.00%    0.00%   44.72%   14.81%
 26  1    14    1  |1 1>+        49.96%    0.00%    0.00%   44.65%    0.00%    0.00%    0.00%    0.00%
 27  1    15    1  |1 1>+         0.00%   49.96%    0.00%    0.00%   44.66%    0.00%    0.00%    0.00%
 28  1    16    1  |1 1>+         0.00%    0.00%    0.07%    0.00%    0.00%    0.00%    0.00%    0.00%
 29  1     1    1  |1 0>          0.00%    0.00%    0.00%    0.00%    0.00%    0.00%    0.00%    0.00%
 30  1     2    1  |1 0>          0.00%    0.00%    0.00%    0.00%    0.00%    0.00%    0.00%    0.00%
 31  1     3    1  |1 0>          0.00%    0.00%    0.00%    0.00%    0.00%    0.00%    0.00%    0.00%
 32  1     4    1  |1 0>          0.00%    0.00%    0.00%    0.00%    0.00%    0.00%    0.00%    0.00%
 33  1     5    1  |1 0>          0.00%    0.00%    0.00%    0.00%    0.00%    0.00%    0.00%    0.00%
 34  1     6    1  |1 0>          0.00%    0.00%    0.00%    0.00%    0.00%    0.00%    0.01%    0.00%
 35  1     7    1  |1 0>          0.00%    0.00%    0.00%    0.00%    0.00%    0.00%    0.00%    0.00%
 36  1     8    1  |1 0>          0.00%    0.00%    0.00%    0.00%    0.00%    0.00%    0.00%    0.00%
 37  1     9    1  |1 0>          0.00%    0.00%    0.00%    0.01%    0.00%    0.00%    0.00%    0.00%
 38  1    10    1  |1 0>          0.00%    0.00%    0.00%    0.00%    0.02%    0.00%    0.00%    0.00%
 39  1    11    1  |1 0>          0.00%    0.00%    0.00%    0.00%    0.00%    0.02%    0.00%    0.00%
 40  1    12    1  |1 0>          0.00%    0.00%    0.00%    0.00%    0.00%    0.00%    0.00%    0.02%
 41  1    13    1  |1 0>          0.00%   49.97%    0.00%    0.00%   44.64%    0.00%    0.00%    0.00%
 42  1    14    1  |1 0>          0.00%    0.00%   49.97%    0.00%    0.00%   44.64%    0.00%    0.00%
 43  1    15    1  |1 0>          0.00%    0.00%    0.00%    0.00%    0.00%    0.00%    0.00%   59.52%
 44  1    16    1  |1 0>          0.07%    0.00%    0.00%    0.00%    0.00%    0.00%    0.00%    0.00%
 45  1     1    1  |1 1>-         0.00%    0.00%    0.00%    0.00%    0.00%    0.00%    0.00%    0.00%
 46  1     2    1  |1 1>-         0.00%    0.00%    0.00%    0.00%    0.00%    0.00%    0.00%    0.00%
 47  1     3    1  |1 1>-         0.00%    0.00%    0.00%    0.00%    0.00%    0.00%    0.00%    0.00%
 48  1     4    1  |1 1>-         0.00%    0.00%    0.00%    0.00%    0.00%    0.00%    0.00%    0.00%
 49  1     5    1  |1 1>-         0.00%    0.00%    0.00%    0.00%    0.00%    0.00%    0.00%    0.00%
 50  1     6    1  |1 1>-         0.00%    0.00%    0.00%    0.00%    0.00%    0.01%    0.00%    0.00%
 51  1     7    1  |1 1>-         0.00%    0.00%    0.00%    0.00%    0.00%    0.00%    0.01%    0.00%
 52  1     8    1  |1 1>-         0.00%    0.00%    0.00%    0.02%    0.00%    0.00%    0.00%    0.00%
 53  1     9    1  |1 1>-         0.00%    0.00%    0.00%    0.00%    0.01%    0.00%    0.00%    0.00%
 54  1    10    1  |1 1>-         0.00%    0.00%    0.00%    0.00%    0.00%    0.00%    0.00%    0.00%
 55  1    11    1  |1 1>-         0.00%    0.00%    0.00%    0.00%    0.00%    0.00%    0.01%    0.01%
 56  1    12    1  |1 1>-         0.00%    0.00%    0.00%    0.00%    0.00%    0.01%    0.00%    0.00%
 57  1    13    1  |1 1>-        49.96%    0.00%    0.00%   44.65%    0.00%    0.00%    0.00%    0.00%
 58  1    14    1  |1 1>-         0.00%    0.00%    0.00%    0.00%    0.00%    0.00%   44.58%   14.95%
 59  1    15    1  |1 1>-         0.00%    0.00%   49.96%    0.00%    0.00%   44.66%    0.00%    0.00%
 60  1    16    1  |1 1>-         0.00%    0.07%    0.00%    0.00%    0.00%    0.00%    0.00%    0.00%

   Total
 Nr Sym  State Sym Spin / Nr.     57       58       59       60

  1  1     1    1  |0 0>          0.00%    0.00%    0.00%    0.00%
  2  1     2    1  |0 0>          0.00%    0.00%    0.00%    0.00%
  3  1     3    1  |0 0>          0.00%    0.00%    0.00%    0.00%
  4  1     4    1  |0 0>          0.00%    0.00%    0.00%    0.00%
  5  1     5    1  |0 0>          0.00%    0.00%    0.00%    0.00%
  6  1     6    1  |0 0>          0.00%    0.00%    0.00%    0.00%
  7  1     7    1  |0 0>          0.00%    0.00%    0.00%    0.00%
  8  1     8    1  |0 0>          0.00%    0.00%    0.00%    0.00%
  9  1     9    1  |0 0>          0.00%    0.00%    0.00%    0.00%
 10  1    10    1  |0 0>          0.00%    0.00%    0.00%    0.00%
 11  1    11    1  |0 0>          0.00%    0.00%    0.00%    0.00%
 12  1    12    1  |0 0>         96.51%    0.00%    0.00%    0.00%
 13  1     1    1  |1 1>+         0.00%    0.00%    0.00%    0.00%
 14  1     2    1  |1 1>+         0.00%    0.00%    0.00%    0.00%
 15  1     3    1  |1 1>+         0.00%    0.00%    0.00%    0.00%
 16  1     4    1  |1 1>+         0.00%    0.00%    0.00%    0.00%
 17  1     5    1  |1 1>+         0.00%    0.00%    0.00%    0.00%
 18  1     6    1  |1 1>+         0.00%    0.00%    0.00%    0.00%
 19  1     7    1  |1 1>+         0.00%    0.00%    0.00%    0.00%
 20  1     8    1  |1 1>+         0.00%    0.00%    0.00%    0.00%
 21  1     9    1  |1 1>+         0.00%    0.00%    0.00%    0.00%
 22  1    10    1  |1 1>+         0.00%    0.00%    0.00%    0.00%
 23  1    11    1  |1 1>+         0.00%    0.00%    0.00%    0.00%
 24  1    12    1  |1 1>+         0.00%    0.00%    0.00%    0.00%
 25  1    13    1  |1 1>+         1.16%    0.00%    0.00%    0.00%
 26  1    14    1  |1 1>+         0.00%    0.04%    0.00%    0.00%
 27  1    15    1  |1 1>+         0.00%    0.00%    0.00%    0.04%
 28  1    16    1  |1 1>+         0.00%    0.00%   99.93%    0.00%
 29  1     1    1  |1 0>          0.00%    0.00%    0.00%    0.00%
 30  1     2    1  |1 0>          0.00%    0.00%    0.00%    0.00%
 31  1     3    1  |1 0>          0.00%    0.00%    0.00%    0.00%
 32  1     4    1  |1 0>          0.00%    0.00%    0.00%    0.00%
 33  1     5    1  |1 0>          0.00%    0.00%    0.00%    0.00%
 34  1     6    1  |1 0>          0.00%    0.00%    0.00%    0.00%
 35  1     7    1  |1 0>          0.00%    0.00%    0.00%    0.00%
 36  1     8    1  |1 0>          0.00%    0.00%    0.00%    0.00%
 37  1     9    1  |1 0>          0.00%    0.00%    0.00%    0.00%
 38  1    10    1  |1 0>          0.00%    0.00%    0.00%    0.00%
 39  1    11    1  |1 0>          0.00%    0.00%    0.00%    0.00%
 40  1    12    1  |1 0>          0.00%    0.00%    0.00%    0.00%
 41  1    13    1  |1 0>          0.00%    0.00%    0.00%    0.04%
 42  1    14    1  |1 0>          0.00%    0.00%    0.04%    0.00%
 43  1    15    1  |1 0>          1.16%    0.00%    0.00%    0.00%
 44  1    16    1  |1 0>          0.00%   99.93%    0.00%    0.00%
 45  1     1    1  |1 1>-         0.00%    0.00%    0.00%    0.00%
 46  1     2    1  |1 1>-         0.00%    0.00%    0.00%    0.00%
 47  1     3    1  |1 1>-         0.00%    0.00%    0.00%    0.00%
 48  1     4    1  |1 1>-         0.00%    0.00%    0.00%    0.00%
 49  1     5    1  |1 1>-         0.00%    0.00%    0.00%    0.00%
 50  1     6    1  |1 1>-         0.00%    0.00%    0.00%    0.00%
 51  1     7    1  |1 1>-         0.00%    0.00%    0.00%    0.00%
 52  1     8    1  |1 1>-         0.00%    0.00%    0.00%    0.00%
 53  1     9    1  |1 1>-         0.00%    0.00%    0.00%    0.00%
 54  1    10    1  |1 1>-         0.00%    0.00%    0.00%    0.00%
 55  1    11    1  |1 1>-         0.00%    0.00%    0.00%    0.00%
 56  1    12    1  |1 1>-         0.00%    0.00%    0.00%    0.00%
 57  1    13    1  |1 1>-         0.00%    0.04%    0.00%    0.00%
 58  1    14    1  |1 1>-         1.16%    0.00%    0.00%    0.00%
 59  1    15    1  |1 1>-         0.00%    0.00%    0.04%    0.00%
 60  1    16    1  |1 1>-         0.00%    0.00%    0.00%   99.93%



 **********************************************************************************************************************************
 DATASETS  * FILE   NREC   LENGTH (MB)   RECORD NAMES
              1      21       70.70       500      610      700      900      950      970     1000      129      960     1100   
                                          VAR    BASINP    GEOM    SYMINP    ZMAT    AOBASIS   BASIS     P2S    ABASIS      S 
                                         1400     1410     1420     1200     1210     1080     1700     1600     1650     1380   
                                           T        V       ECP      H0       H01     AOSYM    OPER      SMH    MOLCAS    JKOP   
                                         1700(1)
                                         OPER   

              2       7     1095.53       700     1000      520     2100     2140     5101     5103   
                                         GEOM     BASIS   MCVARS     RHF     MCSCF    MRCI     MRCI   

 PROGRAMS   *        TOTAL        CI        CI        CI     MULTI   RHF-SCF       INT
 CPU TIMES  *      5400.38   4180.09    796.96    412.93      5.82      0.47      3.69
 REAL TIME  *      5672.98 SEC
 DISK USED  *         1.14 GB (local),       27.79 GB (total)
 SF USED    *         6.96 GB
 GA USED    *         0.00 MB       (max)       0.00 MB       (current)
 **********************************************************************************************************************************

 CI/aug-cc-pWCV5Z-PP energy=    -25.270560388351

              CI              CI           MULTI         RHF-SCF
    -25.24748900    -25.24889395    -25.00258042    -25.09501761
 **********************************************************************************************************************************
 Molpro calculation terminated
