
 Working directory              : /wrk/irikura/molpro.0FtaLulTC4/
 Global scratch directory       : /wrk/irikura/molpro.0FtaLulTC4/
 Wavefunction directory         : /home/irikura/wfu/
 Main file repository           : /wrk/irikura/molpro.0FtaLulTC4/

 id        : nistki

 Nodes            nprocs
 pn125343.nist.gov   28
 GA implementation: MPI file
 GA implementation (serial work in mppx): MPI file

 Using customized tuning parameters: mindgm=1; mindgv=20; mindgc=4; mindgr=1; noblas=0; minvec=7
 default implementation of scratch files=sf  


 Variables initialized (1042), CPU time= 0.03 sec
 ***,Bi SO-CI
 memory,1500,M;
 
 gprint,orbitals,civector,basis;
 
 symmetry,xyz
 geometry={Bi};
 
 basis={
 ecp,bi,ECP60MDF;
 spdfghi,bi,aug-cc-pwCV5Z-PP;C; spdf,1,even,nprim=1,ratio=3.0;
 }
 
 PAR=2                                                                           ! parity even (1) or odd (2)
 NQ=10
 ND=8
 
 do I=1,NQ
   WTQ(I) = 1.
 enddo
 WTQ(1)=25.
 
 {multi
     closed,6,3
     occ,7,9
     wf,charge=0,sym=PAR,spin=3;state,NQ; weight,WTQ
     wf,charge=0,sym=PAR,spin=1;state,ND;
     expec2,lxx,lyy,lzz;
 }
 table, energy, ll
 title, Energies and &lt;L**2&gt; values
 
 core,0,0
 
 {ci;wf,sym=PAR,spin=3;state,NQ; save,5302.2}
 if NQ.LT.2 then
   hlsdiag(1) = energd
 else
   hlsdiag = energd4
 endif
 
 {ci;wf,sym=PAR,spin=1;state,ND; save,5102.2}
 hlsdiag(NQ+1) = energd4
 
 table,hlsdiag
 
 {ci;hlsmat,ecp,5302.2,5102.2;print,vls=0,hls=0}                                 !compute and diagonalize SO matrix
 Commands initialized (847), CPU time= 0.02 sec, 718 directives.
 Default parameters read. Elapsed time= 0.23 sec

 Checking input...
 Passed
1


                                         ***  PROGRAM SYSTEM MOLPRO  ***
                                       Copyright, TTI GmbH Stuttgart, 2015
                                    Version 2024.1 linked Mon Jun 17 07:53:25 2024


 **********************************************************************************************************************************
 LABEL *   Bi SO-CI                                                                                                                                                      
  (64 PROC) 64 bit mpp version                                                           DATE: 10-Jan-25          TIME: 16:50:50  
 **********************************************************************************************************************************

 SHA1:             0134236b472f03f1f5189f93707d8671e415b05c
 **********************************************************************************************************************************

 Memory per process:      1500 MW
 Total memory per node:  42000 MW

 GA preallocation disabled
 GA check disabled

 Variable memory set to 1500.0 MW


 ZSYMEL=XYZ

 SETTING BASIS          =    USERDEF
 SETTING PAR            =         2.00000000                                  
 SETTING NQ             =        10.00000000                                  
 SETTING ND             =         8.00000000                                  

 DO I                   =         1.00000000   
 SETTING WTQ(1)         =         1.00000000                                  

 DO I                   =         2.00000000   
 SETTING WTQ(2)         =         1.00000000                                  

 DO I                   =         3.00000000   
 SETTING WTQ(3)         =         1.00000000                                  

 DO I                   =         4.00000000   
 SETTING WTQ(4)         =         1.00000000                                  

 DO I                   =         5.00000000   
 SETTING WTQ(5)         =         1.00000000                                  

 DO I                   =         6.00000000   
 SETTING WTQ(6)         =         1.00000000                                  

 DO I                   =         7.00000000   
 SETTING WTQ(7)         =         1.00000000                                  

 DO I                   =         8.00000000   
 SETTING WTQ(8)         =         1.00000000                                  

 DO I                   =         9.00000000   
 SETTING WTQ(9)         =         1.00000000                                  

 DO I                   =        10.00000000   
 SETTING WTQ(10)        =         1.00000000                                  
 SETTING WTQ(1)         =        25.00000000                                  


 Recomputing integrals since basis changed


 Using spherical harmonics

 Library entry Bi   ECP ECP60MDF                 selected for group  1
 Library entry BI     S AUG-CC-PWCV5Z-PP     selected for orbital group  1
 Even tempered Bi S diffuse               selected for group 1    nprim= 1    centre=  0.008    ratio= 3.000    dratio= 1.000
 Library entry BI     P AUG-CC-PWCV5Z-PP     selected for orbital group  1
 Even tempered Bi P diffuse               selected for group 1    nprim= 1    centre=  0.005    ratio= 3.000    dratio= 1.000
 Library entry BI     D AUG-CC-PWCV5Z-PP     selected for orbital group  1
 Even tempered Bi D diffuse               selected for group 1    nprim= 1    centre=  0.012    ratio= 3.000    dratio= 1.000
 Library entry BI     F AUG-CC-PWCV5Z-PP     selected for orbital group  1
 Even tempered Bi F diffuse               selected for group 1    nprim= 1    centre=  0.021    ratio= 3.000    dratio= 1.000
 Library entry BI     G AUG-CC-PWCV5Z-PP     selected for orbital group  1
 Library entry BI     H AUG-CC-PWCV5Z-PP     selected for orbital group  1
 Library entry BI     I AUG-CC-PWCV5Z-PP     selected for orbital group  1


 PROGRAM * SEWARD (Integral evaluation for generally contracted gaussian basis sets)     Author: Roland Lindh, 1990

 Geometry written to block  1 of record 700

 Orientation using atomic masses  
 Molecule type: Atom
 User-specified symmetry elements: XYZ
 Symmetry elements: XYZ
 Rotational constants:       0.0000000      0.0000000      0.0000000 GHz  (calculated with average atomic masses)

 Point group  Ci  



 ATOMIC COORDINATES

 NR  ATOM    CHARGE       X              Y              Z

   1  BI     23.00    0.000000000    0.000000000    0.000000000


          BI  CORE POTENTIAL

          h POTENTIAL

 POWERS             2
 EXPONENTIALS   1.000000    
 COEFFICIENTS   0.000000    

          s - h POTENTIAL

 POWERS             2              2
 EXPONENTIALS   13.04309       8.221682    
 COEFFICIENTS   283.2642       62.47196    

          p - h POTENTIAL

 POWERS             2              2              2              2
 EXPONENTIALS   10.46778       9.118901       6.754791       6.252592    
 COEFFICIENTS   72.00150       144.0023       5.007945       9.991550    

          d - h POTENTIAL

 POWERS             2              2              2              2
 EXPONENTIALS   8.081474       7.890595       4.955556       4.704559    
 COEFFICIENTS   36.39626       54.59766       9.984294       14.98148    

          f - h POTENTIAL

 POWERS             2              2
 EXPONENTIALS   4.214546       4.133400    
 COEFFICIENTS   13.71338       18.19431    

          g - h POTENTIAL

 POWERS             2              2
 EXPONENTIALS   6.205709       6.227782    
 COEFFICIENTS  -10.24744      -12.95571    


          BI  SPIN-ORBIT POTENTIAL

          p POTENTIAL

 POWERS             2              2              2              2
 EXPONENTIALS   10.46778       9.118901       6.754791       6.252592    
 COEFFICIENTS  -144.0030       144.0023      -10.01589       9.991550    

          d POTENTIAL

 POWERS             2              2              2              2
 EXPONENTIALS   8.081474       7.890595       4.955556       4.704559    
 COEFFICIENTS  -36.39626       36.39844      -9.984294       9.987657    

          f POTENTIAL

 POWERS             2              2
 EXPONENTIALS   4.214546       4.133400    
 COEFFICIENTS  -9.142256       9.097154    

          g POTENTIAL

 POWERS             2              2
 EXPONENTIALS   6.205709       6.227782    
 COEFFICIENTS   5.123722      -5.182284    


 BASIS DATA

   Nr Sym  Nuc  Type         Exponents   Contraction coefficients

    1.1 Ag    1  1s       26111.400000     0.000007    0.000000    0.000000    0.000000    0.000000    0.000000
                                           0.000000
    2.1 Ag                 3868.090000     0.000052    0.000000    0.000000    0.000000    0.000000    0.000000
                                           0.000000
    3.1 Ag                  869.499000     0.000245    0.000000    0.000000    0.000000    0.000000    0.000000
                                           0.000000
    4.1 Ag                  238.741000     0.000663    0.000000    0.000000    0.000000    0.000000    0.000000
                                           0.000000
    5.1 Ag                   36.674500     0.021122    0.000000    0.000000    0.000000    0.000000    0.000000
                                           0.000000
    6.1 Ag                   22.912900    -0.181926    0.000000    0.000000    0.000000    0.000000    0.000000
                                           0.000000
    7.1 Ag                   14.318500     0.634722    1.000000    0.000000    0.000000    0.000000    0.000000
                                           0.000000
                              8.948480    -0.546557    0.000000    0.000000    0.000000    0.000000    0.000000
                                           0.000000
                              5.260680    -0.730393    0.000000    0.000000    0.000000    0.000000    0.000000
                                           0.000000
                              3.120890     0.267295    0.000000    0.000000    0.000000    0.000000    0.000000
                                           0.000000
                              1.705560     0.838031    0.000000    0.000000    0.000000    0.000000    0.000000
                                           0.000000
                              0.928424     0.438363    0.000000    1.000000    0.000000    0.000000    0.000000
                                           0.000000
                              0.433707     0.042614    0.000000    0.000000    1.000000    0.000000    0.000000
                                           0.000000
                              0.238683    -0.003787    0.000000    0.000000    0.000000    1.000000    0.000000
                                           0.000000
                              0.120263     0.001167    0.000000    0.000000    0.000000    0.000000    1.000000
                                           0.000000
                              0.057755    -0.000182    0.000000    0.000000    0.000000    0.000000    0.000000
                                           1.000000
    8.1 Ag    1  1s           6.783900     1.000000
    9.1 Ag    1  1s           4.232300     1.000000
   10.1 Ag    1  1s           2.640500     1.000000
   11.1 Ag    1  1s           1.647300     1.000000
   12.1 Ag    1  1s           0.023300     1.000000
   13.1 Ag    1  1s           0.007767     1.000000
   14.1 Ag    1  3d0        174.915000     0.000058
                             51.930100     0.000433
                             13.685200     0.010367
                              6.887430    -0.077729
                              4.182500     0.010661
                              2.612270     0.211105
                              1.545840     0.342520
                              0.893771     0.330038
                              0.501899     0.204188
                              0.272309     0.071425
                              0.148448     0.011389
                              0.078800     0.001322
   15.1 Ag    1  3d2-       174.915000     0.000058
                             51.930100     0.000433
                             13.685200     0.010367
                              6.887430    -0.077729
                              4.182500     0.010661
                              2.612270     0.211105
                              1.545840     0.342520
                              0.893771     0.330038
                              0.501899     0.204188
                              0.272309     0.071425
                              0.148448     0.011389
                              0.078800     0.001322
   16.1 Ag    1  3d1+       174.915000     0.000058
                             51.930100     0.000433
                             13.685200     0.010367
                              6.887430    -0.077729
                              4.182500     0.010661
                              2.612270     0.211105
                              1.545840     0.342520
                              0.893771     0.330038
                              0.501899     0.204188
                              0.272309     0.071425
                              0.148448     0.011389
                              0.078800     0.001322
   17.1 Ag    1  3d2+       174.915000     0.000058
                             51.930100     0.000433
                             13.685200     0.010367
                              6.887430    -0.077729
                              4.182500     0.010661
                              2.612270     0.211105
                              1.545840     0.342520
                              0.893771     0.330038
                              0.501899     0.204188
                              0.272309     0.071425
                              0.148448     0.011389
                              0.078800     0.001322
   18.1 Ag    1  3d1-       174.915000     0.000058
                             51.930100     0.000433
                             13.685200     0.010367
                              6.887430    -0.077729
                              4.182500     0.010661
                              2.612270     0.211105
                              1.545840     0.342520
                              0.893771     0.330038
                              0.501899     0.204188
                              0.272309     0.071425
                              0.148448     0.011389
                              0.078800     0.001322
   19.1 Ag    1  3d0        174.915000     0.000000
                             51.930100     0.000000
                             13.685200     0.000000
                              6.887430     0.000000
                              4.182500     0.000000
                              2.612270     0.000000
                              1.545840     0.000000
                              0.893771     0.000000
                              0.501899     1.000000
                              0.272309     0.000000
                              0.148448     0.000000
                              0.078800     0.000000
   20.1 Ag    1  3d2-       174.915000     0.000000
                             51.930100     0.000000
                             13.685200     0.000000
                              6.887430     0.000000
                              4.182500     0.000000
                              2.612270     0.000000
                              1.545840     0.000000
                              0.893771     0.000000
                              0.501899     1.000000
                              0.272309     0.000000
                              0.148448     0.000000
                              0.078800     0.000000
   21.1 Ag    1  3d1+       174.915000     0.000000
                             51.930100     0.000000
                             13.685200     0.000000
                              6.887430     0.000000
                              4.182500     0.000000
                              2.612270     0.000000
                              1.545840     0.000000
                              0.893771     0.000000
                              0.501899     1.000000
                              0.272309     0.000000
                              0.148448     0.000000
                              0.078800     0.000000
   22.1 Ag    1  3d2+       174.915000     0.000000
                             51.930100     0.000000
                             13.685200     0.000000
                              6.887430     0.000000
                              4.182500     0.000000
                              2.612270     0.000000
                              1.545840     0.000000
                              0.893771     0.000000
                              0.501899     1.000000
                              0.272309     0.000000
                              0.148448     0.000000
                              0.078800     0.000000
   23.1 Ag    1  3d1-       174.915000     0.000000
                             51.930100     0.000000
                             13.685200     0.000000
                              6.887430     0.000000
                              4.182500     0.000000
                              2.612270     0.000000
                              1.545840     0.000000
                              0.893771     0.000000
                              0.501899     1.000000
                              0.272309     0.000000
                              0.148448     0.000000
                              0.078800     0.000000
   24.1 Ag    1  3d0        174.915000     0.000000
                             51.930100     0.000000
                             13.685200     0.000000
                              6.887430     0.000000
                              4.182500     0.000000
                              2.612270     0.000000
                              1.545840     0.000000
                              0.893771     0.000000
                              0.501899     0.000000
                              0.272309     1.000000
                              0.148448     0.000000
                              0.078800     0.000000
   25.1 Ag    1  3d2-       174.915000     0.000000
                             51.930100     0.000000
                             13.685200     0.000000
                              6.887430     0.000000
                              4.182500     0.000000
                              2.612270     0.000000
                              1.545840     0.000000
                              0.893771     0.000000
                              0.501899     0.000000
                              0.272309     1.000000
                              0.148448     0.000000
                              0.078800     0.000000
   26.1 Ag    1  3d1+       174.915000     0.000000
                             51.930100     0.000000
                             13.685200     0.000000
                              6.887430     0.000000
                              4.182500     0.000000
                              2.612270     0.000000
                              1.545840     0.000000
                              0.893771     0.000000
                              0.501899     0.000000
                              0.272309     1.000000
                              0.148448     0.000000
                              0.078800     0.000000
   27.1 Ag    1  3d2+       174.915000     0.000000
                             51.930100     0.000000
                             13.685200     0.000000
                              6.887430     0.000000
                              4.182500     0.000000
                              2.612270     0.000000
                              1.545840     0.000000
                              0.893771     0.000000
                              0.501899     0.000000
                              0.272309     1.000000
                              0.148448     0.000000
                              0.078800     0.000000
   28.1 Ag    1  3d1-       174.915000     0.000000
                             51.930100     0.000000
                             13.685200     0.000000
                              6.887430     0.000000
                              4.182500     0.000000
                              2.612270     0.000000
                              1.545840     0.000000
                              0.893771     0.000000
                              0.501899     0.000000
                              0.272309     1.000000
                              0.148448     0.000000
                              0.078800     0.000000
   29.1 Ag    1  3d0        174.915000     0.000000
                             51.930100     0.000000
                             13.685200     0.000000
                              6.887430     0.000000
                              4.182500     0.000000
                              2.612270     0.000000
                              1.545840     0.000000
                              0.893771     0.000000
                              0.501899     0.000000
                              0.272309     0.000000
                              0.148448     1.000000
                              0.078800     0.000000
   30.1 Ag    1  3d2-       174.915000     0.000000
                             51.930100     0.000000
                             13.685200     0.000000
                              6.887430     0.000000
                              4.182500     0.000000
                              2.612270     0.000000
                              1.545840     0.000000
                              0.893771     0.000000
                              0.501899     0.000000
                              0.272309     0.000000
                              0.148448     1.000000
                              0.078800     0.000000
   31.1 Ag    1  3d1+       174.915000     0.000000
                             51.930100     0.000000
                             13.685200     0.000000
                              6.887430     0.000000
                              4.182500     0.000000
                              2.612270     0.000000
                              1.545840     0.000000
                              0.893771     0.000000
                              0.501899     0.000000
                              0.272309     0.000000
                              0.148448     1.000000
                              0.078800     0.000000
   32.1 Ag    1  3d2+       174.915000     0.000000
                             51.930100     0.000000
                             13.685200     0.000000
                              6.887430     0.000000
                              4.182500     0.000000
                              2.612270     0.000000
                              1.545840     0.000000
                              0.893771     0.000000
                              0.501899     0.000000
                              0.272309     0.000000
                              0.148448     1.000000
                              0.078800     0.000000
   33.1 Ag    1  3d1-       174.915000     0.000000
                             51.930100     0.000000
                             13.685200     0.000000
                              6.887430     0.000000
                              4.182500     0.000000
                              2.612270     0.000000
                              1.545840     0.000000
                              0.893771     0.000000
                              0.501899     0.000000
                              0.272309     0.000000
                              0.148448     1.000000
                              0.078800     0.000000
   34.1 Ag    1  3d0        174.915000     0.000000
                             51.930100     0.000000
                             13.685200     0.000000
                              6.887430     0.000000
                              4.182500     0.000000
                              2.612270     0.000000
                              1.545840     0.000000
                              0.893771     0.000000
                              0.501899     0.000000
                              0.272309     0.000000
                              0.148448     0.000000
                              0.078800     1.000000
   35.1 Ag    1  3d2-       174.915000     0.000000
                             51.930100     0.000000
                             13.685200     0.000000
                              6.887430     0.000000
                              4.182500     0.000000
                              2.612270     0.000000
                              1.545840     0.000000
                              0.893771     0.000000
                              0.501899     0.000000
                              0.272309     0.000000
                              0.148448     0.000000
                              0.078800     1.000000
   36.1 Ag    1  3d1+       174.915000     0.000000
                             51.930100     0.000000
                             13.685200     0.000000
                              6.887430     0.000000
                              4.182500     0.000000
                              2.612270     0.000000
                              1.545840     0.000000
                              0.893771     0.000000
                              0.501899     0.000000
                              0.272309     0.000000
                              0.148448     0.000000
                              0.078800     1.000000
   37.1 Ag    1  3d2+       174.915000     0.000000
                             51.930100     0.000000
                             13.685200     0.000000
                              6.887430     0.000000
                              4.182500     0.000000
                              2.612270     0.000000
                              1.545840     0.000000
                              0.893771     0.000000
                              0.501899     0.000000
                              0.272309     0.000000
                              0.148448     0.000000
                              0.078800     1.000000
   38.1 Ag    1  3d1-       174.915000     0.000000
                             51.930100     0.000000
                             13.685200     0.000000
                              6.887430     0.000000
                              4.182500     0.000000
                              2.612270     0.000000
                              1.545840     0.000000
                              0.893771     0.000000
                              0.501899     0.000000
                              0.272309     0.000000
                              0.148448     0.000000
                              0.078800     1.000000
   39.1 Ag    1  3d0          7.064000     1.000000
   40.1 Ag    1  3d2-         7.064000     1.000000
   41.1 Ag    1  3d1+         7.064000     1.000000
   42.1 Ag    1  3d2+         7.064000     1.000000
   43.1 Ag    1  3d1-         7.064000     1.000000
   44.1 Ag    1  3d0          3.811400     1.000000
   45.1 Ag    1  3d2-         3.811400     1.000000
   46.1 Ag    1  3d1+         3.811400     1.000000
   47.1 Ag    1  3d2+         3.811400     1.000000
   48.1 Ag    1  3d1-         3.811400     1.000000
   49.1 Ag    1  3d0          2.056500     1.000000
   50.1 Ag    1  3d2-         2.056500     1.000000
   51.1 Ag    1  3d1+         2.056500     1.000000
   52.1 Ag    1  3d2+         2.056500     1.000000
   53.1 Ag    1  3d1-         2.056500     1.000000
   54.1 Ag    1  3d0          1.109600     1.000000
   55.1 Ag    1  3d2-         1.109600     1.000000
   56.1 Ag    1  3d1+         1.109600     1.000000
   57.1 Ag    1  3d2+         1.109600     1.000000
   58.1 Ag    1  3d1-         1.109600     1.000000
   59.1 Ag    1  3d0          0.034800     1.000000
   60.1 Ag    1  3d2-         0.034800     1.000000
   61.1 Ag    1  3d1+         0.034800     1.000000
   62.1 Ag    1  3d2+         0.034800     1.000000
   63.1 Ag    1  3d1-         0.034800     1.000000
   64.1 Ag    1  3d0          0.011600     1.000000
   65.1 Ag    1  3d2-         0.011600     1.000000
   66.1 Ag    1  3d1+         0.011600     1.000000
   67.1 Ag    1  3d2+         0.011600     1.000000
   68.1 Ag    1  3d1-         0.011600     1.000000
   69.1 Ag    1  5g0          0.576200     1.000000
   70.1 Ag    1  5g2-         0.576200     1.000000
   71.1 Ag    1  5g1+         0.576200     1.000000
   72.1 Ag    1  5g4+         0.576200     1.000000
   73.1 Ag    1  5g1-         0.576200     1.000000
   74.1 Ag    1  5g2+         0.576200     1.000000
   75.1 Ag    1  5g4-         0.576200     1.000000
   76.1 Ag    1  5g3+         0.576200     1.000000
   77.1 Ag    1  5g3-         0.576200     1.000000
   78.1 Ag    1  5g0          0.280200     1.000000
   79.1 Ag    1  5g2-         0.280200     1.000000
   80.1 Ag    1  5g1+         0.280200     1.000000
   81.1 Ag    1  5g4+         0.280200     1.000000
   82.1 Ag    1  5g1-         0.280200     1.000000
   83.1 Ag    1  5g2+         0.280200     1.000000
   84.1 Ag    1  5g4-         0.280200     1.000000
   85.1 Ag    1  5g3+         0.280200     1.000000
   86.1 Ag    1  5g3-         0.280200     1.000000
   87.1 Ag    1  5g0          4.369600     1.000000
   88.1 Ag    1  5g2-         4.369600     1.000000
   89.1 Ag    1  5g1+         4.369600     1.000000
   90.1 Ag    1  5g4+         4.369600     1.000000
   91.1 Ag    1  5g1-         4.369600     1.000000
   92.1 Ag    1  5g2+         4.369600     1.000000
   93.1 Ag    1  5g4-         4.369600     1.000000
   94.1 Ag    1  5g3+         4.369600     1.000000
   95.1 Ag    1  5g3-         4.369600     1.000000
   96.1 Ag    1  5g0          2.313600     1.000000
   97.1 Ag    1  5g2-         2.313600     1.000000
   98.1 Ag    1  5g1+         2.313600     1.000000
   99.1 Ag    1  5g4+         2.313600     1.000000
  100.1 Ag    1  5g1-         2.313600     1.000000
  101.1 Ag    1  5g2+         2.313600     1.000000
  102.1 Ag    1  5g4-         2.313600     1.000000
  103.1 Ag    1  5g3+         2.313600     1.000000
  104.1 Ag    1  5g3-         2.313600     1.000000
  105.1 Ag    1  5g0          1.224900     1.000000
  106.1 Ag    1  5g2-         1.224900     1.000000
  107.1 Ag    1  5g1+         1.224900     1.000000
  108.1 Ag    1  5g4+         1.224900     1.000000
  109.1 Ag    1  5g1-         1.224900     1.000000
  110.1 Ag    1  5g2+         1.224900     1.000000
  111.1 Ag    1  5g4-         1.224900     1.000000
  112.1 Ag    1  5g3+         1.224900     1.000000
  113.1 Ag    1  5g3-         1.224900     1.000000
  114.1 Ag    1  5g0          0.123600     1.000000
  115.1 Ag    1  5g2-         0.123600     1.000000
  116.1 Ag    1  5g1+         0.123600     1.000000
  117.1 Ag    1  5g4+         0.123600     1.000000
  118.1 Ag    1  5g1-         0.123600     1.000000
  119.1 Ag    1  5g2+         0.123600     1.000000
  120.1 Ag    1  5g4-         0.123600     1.000000
  121.1 Ag    1  5g3+         0.123600     1.000000
  122.1 Ag    1  5g3-         0.123600     1.000000
  123.1 Ag    1  7i6+         1.228500     1.000000
  124.1 Ag    1  7i2-         1.228500     1.000000
  125.1 Ag    1  7i5+         1.228500     1.000000
  126.1 Ag    1  7i4+         1.228500     1.000000
  127.1 Ag    1  7i5-         1.228500     1.000000
  128.1 Ag    1  7i2+         1.228500     1.000000
  129.1 Ag    1  7i6-         1.228500     1.000000
  130.1 Ag    1  7i3+         1.228500     1.000000
  131.1 Ag    1  7i4-         1.228500     1.000000
  132.1 Ag    1  7i0          1.228500     1.000000
  133.1 Ag    1  7i3-         1.228500     1.000000
  134.1 Ag    1  7i1-         1.228500     1.000000
  135.1 Ag    1  7i1+         1.228500     1.000000
    1.2 Au    1  2px        267.346000     0.000084
                             50.086200     0.000930
                             20.556200    -0.024321
                             12.844100     0.173162
                              8.027280    -0.332624
                              5.017340    -0.121838
                              2.505680     0.422811
                              1.382050     0.545333
                              0.733963     0.241932
                              0.349494     0.029469
                              0.171219     0.000285
                              0.082166     0.000465
                              0.038382    -0.000107
    2.2 Au    1  2py        267.346000     0.000084
                             50.086200     0.000930
                             20.556200    -0.024321
                             12.844100     0.173162
                              8.027280    -0.332624
                              5.017340    -0.121838
                              2.505680     0.422811
                              1.382050     0.545333
                              0.733963     0.241932
                              0.349494     0.029469
                              0.171219     0.000285
                              0.082166     0.000465
                              0.038382    -0.000107
    3.2 Au    1  2pz        267.346000     0.000084
                             50.086200     0.000930
                             20.556200    -0.024321
                             12.844100     0.173162
                              8.027280    -0.332624
                              5.017340    -0.121838
                              2.505680     0.422811
                              1.382050     0.545333
                              0.733963     0.241932
                              0.349494     0.029469
                              0.171219     0.000285
                              0.082166     0.000465
                              0.038382    -0.000107
    4.2 Au    1  2px        267.346000     0.000000
                             50.086200     0.000000
                             20.556200     0.000000
                             12.844100     1.000000
                              8.027280     0.000000
                              5.017340     0.000000
                              2.505680     0.000000
                              1.382050     0.000000
                              0.733963     0.000000
                              0.349494     0.000000
                              0.171219     0.000000
                              0.082166     0.000000
                              0.038382     0.000000
    5.2 Au    1  2py        267.346000     0.000000
                             50.086200     0.000000
                             20.556200     0.000000
                             12.844100     1.000000
                              8.027280     0.000000
                              5.017340     0.000000
                              2.505680     0.000000
                              1.382050     0.000000
                              0.733963     0.000000
                              0.349494     0.000000
                              0.171219     0.000000
                              0.082166     0.000000
                              0.038382     0.000000
    6.2 Au    1  2pz        267.346000     0.000000
                             50.086200     0.000000
                             20.556200     0.000000
                             12.844100     1.000000
                              8.027280     0.000000
                              5.017340     0.000000
                              2.505680     0.000000
                              1.382050     0.000000
                              0.733963     0.000000
                              0.349494     0.000000
                              0.171219     0.000000
                              0.082166     0.000000
                              0.038382     0.000000
    7.2 Au    1  2px        267.346000     0.000000
                             50.086200     0.000000
                             20.556200     0.000000
                             12.844100     0.000000
                              8.027280     0.000000
                              5.017340     0.000000
                              2.505680     0.000000
                              1.382050     0.000000
                              0.733963     1.000000
                              0.349494     0.000000
                              0.171219     0.000000
                              0.082166     0.000000
                              0.038382     0.000000
    8.2 Au    1  2py        267.346000     0.000000
                             50.086200     0.000000
                             20.556200     0.000000
                             12.844100     0.000000
                              8.027280     0.000000
                              5.017340     0.000000
                              2.505680     0.000000
                              1.382050     0.000000
                              0.733963     1.000000
                              0.349494     0.000000
                              0.171219     0.000000
                              0.082166     0.000000
                              0.038382     0.000000
    9.2 Au    1  2pz        267.346000     0.000000
                             50.086200     0.000000
                             20.556200     0.000000
                             12.844100     0.000000
                              8.027280     0.000000
                              5.017340     0.000000
                              2.505680     0.000000
                              1.382050     0.000000
                              0.733963     1.000000
                              0.349494     0.000000
                              0.171219     0.000000
                              0.082166     0.000000
                              0.038382     0.000000
   10.2 Au    1  2px        267.346000     0.000000
                             50.086200     0.000000
                             20.556200     0.000000
                             12.844100     0.000000
                              8.027280     0.000000
                              5.017340     0.000000
                              2.505680     0.000000
                              1.382050     0.000000
                              0.733963     0.000000
                              0.349494     1.000000
                              0.171219     0.000000
                              0.082166     0.000000
                              0.038382     0.000000
   11.2 Au    1  2py        267.346000     0.000000
                             50.086200     0.000000
                             20.556200     0.000000
                             12.844100     0.000000
                              8.027280     0.000000
                              5.017340     0.000000
                              2.505680     0.000000
                              1.382050     0.000000
                              0.733963     0.000000
                              0.349494     1.000000
                              0.171219     0.000000
                              0.082166     0.000000
                              0.038382     0.000000
   12.2 Au    1  2pz        267.346000     0.000000
                             50.086200     0.000000
                             20.556200     0.000000
                             12.844100     0.000000
                              8.027280     0.000000
                              5.017340     0.000000
                              2.505680     0.000000
                              1.382050     0.000000
                              0.733963     0.000000
                              0.349494     1.000000
                              0.171219     0.000000
                              0.082166     0.000000
                              0.038382     0.000000
   13.2 Au    1  2px        267.346000     0.000000
                             50.086200     0.000000
                             20.556200     0.000000
                             12.844100     0.000000
                              8.027280     0.000000
                              5.017340     0.000000
                              2.505680     0.000000
                              1.382050     0.000000
                              0.733963     0.000000
                              0.349494     0.000000
                              0.171219     1.000000
                              0.082166     0.000000
                              0.038382     0.000000
   14.2 Au    1  2py        267.346000     0.000000
                             50.086200     0.000000
                             20.556200     0.000000
                             12.844100     0.000000
                              8.027280     0.000000
                              5.017340     0.000000
                              2.505680     0.000000
                              1.382050     0.000000
                              0.733963     0.000000
                              0.349494     0.000000
                              0.171219     1.000000
                              0.082166     0.000000
                              0.038382     0.000000
   15.2 Au    1  2pz        267.346000     0.000000
                             50.086200     0.000000
                             20.556200     0.000000
                             12.844100     0.000000
                              8.027280     0.000000
                              5.017340     0.000000
                              2.505680     0.000000
                              1.382050     0.000000
                              0.733963     0.000000
                              0.349494     0.000000
                              0.171219     1.000000
                              0.082166     0.000000
                              0.038382     0.000000
   16.2 Au    1  2px        267.346000     0.000000
                             50.086200     0.000000
                             20.556200     0.000000
                             12.844100     0.000000
                              8.027280     0.000000
                              5.017340     0.000000
                              2.505680     0.000000
                              1.382050     0.000000
                              0.733963     0.000000
                              0.349494     0.000000
                              0.171219     0.000000
                              0.082166     1.000000
                              0.038382     0.000000
   17.2 Au    1  2py        267.346000     0.000000
                             50.086200     0.000000
                             20.556200     0.000000
                             12.844100     0.000000
                              8.027280     0.000000
                              5.017340     0.000000
                              2.505680     0.000000
                              1.382050     0.000000
                              0.733963     0.000000
                              0.349494     0.000000
                              0.171219     0.000000
                              0.082166     1.000000
                              0.038382     0.000000
   18.2 Au    1  2pz        267.346000     0.000000
                             50.086200     0.000000
                             20.556200     0.000000
                             12.844100     0.000000
                              8.027280     0.000000
                              5.017340     0.000000
                              2.505680     0.000000
                              1.382050     0.000000
                              0.733963     0.000000
                              0.349494     0.000000
                              0.171219     0.000000
                              0.082166     1.000000
                              0.038382     0.000000
   19.2 Au    1  2px        267.346000     0.000000
                             50.086200     0.000000
                             20.556200     0.000000
                             12.844100     0.000000
                              8.027280     0.000000
                              5.017340     0.000000
                              2.505680     0.000000
                              1.382050     0.000000
                              0.733963     0.000000
                              0.349494     0.000000
                              0.171219     0.000000
                              0.082166     0.000000
                              0.038382     1.000000
   20.2 Au    1  2py        267.346000     0.000000
                             50.086200     0.000000
                             20.556200     0.000000
                             12.844100     0.000000
                              8.027280     0.000000
                              5.017340     0.000000
                              2.505680     0.000000
                              1.382050     0.000000
                              0.733963     0.000000
                              0.349494     0.000000
                              0.171219     0.000000
                              0.082166     0.000000
                              0.038382     1.000000
   21.2 Au    1  2pz        267.346000     0.000000
                             50.086200     0.000000
                             20.556200     0.000000
                             12.844100     0.000000
                              8.027280     0.000000
                              5.017340     0.000000
                              2.505680     0.000000
                              1.382050     0.000000
                              0.733963     0.000000
                              0.349494     0.000000
                              0.171219     0.000000
                              0.082166     0.000000
                              0.038382     1.000000
   22.2 Au    1  2px          7.098600     1.000000
   23.2 Au    1  2py          7.098600     1.000000
   24.2 Au    1  2pz          7.098600     1.000000
   25.2 Au    1  2px          4.118300     1.000000
   26.2 Au    1  2py          4.118300     1.000000
   27.2 Au    1  2pz          4.118300     1.000000
   28.2 Au    1  2px          2.389200     1.000000
   29.2 Au    1  2py          2.389200     1.000000
   30.2 Au    1  2pz          2.389200     1.000000
   31.2 Au    1  2px          1.386100     1.000000
   32.2 Au    1  2py          1.386100     1.000000
   33.2 Au    1  2pz          1.386100     1.000000
   34.2 Au    1  2px          0.016000     1.000000
   35.2 Au    1  2py          0.016000     1.000000
   36.2 Au    1  2pz          0.016000     1.000000
   37.2 Au    1  2px          0.005333     1.000000
   38.2 Au    1  2py          0.005333     1.000000
   39.2 Au    1  2pz          0.005333     1.000000
   40.2 Au    1  4f1+         0.565400     1.000000
   41.2 Au    1  4f1-         0.565400     1.000000
   42.2 Au    1  4f0          0.565400     1.000000
   43.2 Au    1  4f3+         0.565400     1.000000
   44.2 Au    1  4f2-         0.565400     1.000000
   45.2 Au    1  4f3-         0.565400     1.000000
   46.2 Au    1  4f2+         0.565400     1.000000
   47.2 Au    1  4f1+         0.293700     1.000000
   48.2 Au    1  4f1-         0.293700     1.000000
   49.2 Au    1  4f0          0.293700     1.000000
   50.2 Au    1  4f3+         0.293700     1.000000
   51.2 Au    1  4f2-         0.293700     1.000000
   52.2 Au    1  4f3-         0.293700     1.000000
   53.2 Au    1  4f2+         0.293700     1.000000
   54.2 Au    1  4f1+         0.152500     1.000000
   55.2 Au    1  4f1-         0.152500     1.000000
   56.2 Au    1  4f0          0.152500     1.000000
   57.2 Au    1  4f3+         0.152500     1.000000
   58.2 Au    1  4f2-         0.152500     1.000000
   59.2 Au    1  4f3-         0.152500     1.000000
   60.2 Au    1  4f2+         0.152500     1.000000
   61.2 Au    1  4f1+         5.647800     1.000000
   62.2 Au    1  4f1-         5.647800     1.000000
   63.2 Au    1  4f0          5.647800     1.000000
   64.2 Au    1  4f3+         5.647800     1.000000
   65.2 Au    1  4f2-         5.647800     1.000000
   66.2 Au    1  4f3-         5.647800     1.000000
   67.2 Au    1  4f2+         5.647800     1.000000
   68.2 Au    1  4f1+         3.307700     1.000000
   69.2 Au    1  4f1-         3.307700     1.000000
   70.2 Au    1  4f0          3.307700     1.000000
   71.2 Au    1  4f3+         3.307700     1.000000
   72.2 Au    1  4f2-         3.307700     1.000000
   73.2 Au    1  4f3-         3.307700     1.000000
   74.2 Au    1  4f2+         3.307700     1.000000
   75.2 Au    1  4f1+         1.937200     1.000000
   76.2 Au    1  4f1-         1.937200     1.000000
   77.2 Au    1  4f0          1.937200     1.000000
   78.2 Au    1  4f3+         1.937200     1.000000
   79.2 Au    1  4f2-         1.937200     1.000000
   80.2 Au    1  4f3-         1.937200     1.000000
   81.2 Au    1  4f2+         1.937200     1.000000
   82.2 Au    1  4f1+         1.134600     1.000000
   83.2 Au    1  4f1-         1.134600     1.000000
   84.2 Au    1  4f0          1.134600     1.000000
   85.2 Au    1  4f3+         1.134600     1.000000
   86.2 Au    1  4f2-         1.134600     1.000000
   87.2 Au    1  4f3-         1.134600     1.000000
   88.2 Au    1  4f2+         1.134600     1.000000
   89.2 Au    1  4f1+         0.063500     1.000000
   90.2 Au    1  4f1-         0.063500     1.000000
   91.2 Au    1  4f0          0.063500     1.000000
   92.2 Au    1  4f3+         0.063500     1.000000
   93.2 Au    1  4f2-         0.063500     1.000000
   94.2 Au    1  4f3-         0.063500     1.000000
   95.2 Au    1  4f2+         0.063500     1.000000
   96.2 Au    1  4f1+         0.021167     1.000000
   97.2 Au    1  4f1-         0.021167     1.000000
   98.2 Au    1  4f0          0.021167     1.000000
   99.2 Au    1  4f3+         0.021167     1.000000
  100.2 Au    1  4f2-         0.021167     1.000000
  101.2 Au    1  4f3-         0.021167     1.000000
  102.2 Au    1  4f2+         0.021167     1.000000
  103.2 Au    1  6h1+         0.522300     1.000000
  104.2 Au    1  6h1-         0.522300     1.000000
  105.2 Au    1  6h2+         0.522300     1.000000
  106.2 Au    1  6h3+         0.522300     1.000000
  107.2 Au    1  6h4-         0.522300     1.000000
  108.2 Au    1  6h3-         0.522300     1.000000
  109.2 Au    1  6h4+         0.522300     1.000000
  110.2 Au    1  6h5-         0.522300     1.000000
  111.2 Au    1  6h0          0.522300     1.000000
  112.2 Au    1  6h5+         0.522300     1.000000
  113.2 Au    1  6h2-         0.522300     1.000000
  114.2 Au    1  6h1+         3.836700     1.000000
  115.2 Au    1  6h1-         3.836700     1.000000
  116.2 Au    1  6h2+         3.836700     1.000000
  117.2 Au    1  6h3+         3.836700     1.000000
  118.2 Au    1  6h4-         3.836700     1.000000
  119.2 Au    1  6h3-         3.836700     1.000000
  120.2 Au    1  6h4+         3.836700     1.000000
  121.2 Au    1  6h5-         3.836700     1.000000
  122.2 Au    1  6h0          3.836700     1.000000
  123.2 Au    1  6h5+         3.836700     1.000000
  124.2 Au    1  6h2-         3.836700     1.000000
  125.2 Au    1  6h1+         1.300200     1.000000
  126.2 Au    1  6h1-         1.300200     1.000000
  127.2 Au    1  6h2+         1.300200     1.000000
  128.2 Au    1  6h3+         1.300200     1.000000
  129.2 Au    1  6h4-         1.300200     1.000000
  130.2 Au    1  6h3-         1.300200     1.000000
  131.2 Au    1  6h4+         1.300200     1.000000
  132.2 Au    1  6h5-         1.300200     1.000000
  133.2 Au    1  6h0          1.300200     1.000000
  134.2 Au    1  6h5+         1.300200     1.000000
  135.2 Au    1  6h2-         1.300200     1.000000
  136.2 Au    1  6h1+         0.254300     1.000000
  137.2 Au    1  6h1-         0.254300     1.000000
  138.2 Au    1  6h2+         0.254300     1.000000
  139.2 Au    1  6h3+         0.254300     1.000000
  140.2 Au    1  6h4-         0.254300     1.000000
  141.2 Au    1  6h3-         0.254300     1.000000
  142.2 Au    1  6h4+         0.254300     1.000000
  143.2 Au    1  6h5-         0.254300     1.000000
  144.2 Au    1  6h0          0.254300     1.000000
  145.2 Au    1  6h5+         0.254300     1.000000
  146.2 Au    1  6h2-         0.254300     1.000000

 NUCLEAR CHARGE:                   23
 NUMBER OF PRIMITIVE AOS:         479
 NUMBER OF SYMMETRY AOS:          343
 NUMBER OF CONTRACTIONS:          281   (  135Ag  +  146Au  )
 NUMBER OF INNER CORE ORBITALS:     0   (    0Ag  +    0Au  )
 NUMBER OF OUTER CORE ORBITALS:     9   (    6Ag  +    3Au  )
 NUMBER OF VALENCE ORBITALS:        4   (    1Ag  +    3Au  )


 LX: Ag           LY: Ag           LZ: Ag 


 NUCLEAR REPULSION ENERGY    0.00000000

 EXTRA SYMMETRY OF AOS IN SYMMETRY 1:   1 1 1 1 1 1 1 1 1 1   1 1 1 2 3 4 5 6 2 3   4 5 6 2 3 4 5 6 2 3   4 5 6 2 3 4 5 6 2 3
                                        4 5 6 2 3 4 5 6 2 3   4 5 6 2 3 4 5 6 2 3   4 5 6 2 3 4 5 6 7 8   9101112131415 7 8 9
                                       101112131415 7 8 910  1112131415 7 8 91011  12131415 7 8 9101112  131415 7 8 910111213
                                       14151617181920212223  2425262728
 EXTRA SYMMETRY OF AOS IN SYMMETRY 2:   1 2 3 1 2 3 1 2 3 1   2 3 1 2 3 1 2 3 1 2   3 1 2 3 1 2 3 1 2 3   1 2 3 1 2 3 1 2 3 4
                                        5 6 7 8 910 4 5 6 7   8 910 4 5 6 7 8 910   4 5 6 7 8 910 4 5 6   7 8 910 4 5 6 7 8 9
                                       10 4 5 6 7 8 910 4 5   6 7 8 910 4 5 6 7 8   9101112131415161718  19202111121314151617
                                       18192021111213141516  17181920211112131415  161718192021


 Eigenvalues of metric

         1 0.100E-04 0.244E-04 0.244E-04 0.244E-04 0.244E-04 0.244E-04 0.357E-04 0.220E-03
         2 0.186E-05 0.186E-05 0.186E-05 0.295E-03 0.295E-03 0.295E-03 0.205E-02 0.205E-02


 Contracted 2-electron integrals neglected if value below      1.0D-12
 AO integral compression algorithm  1   Integral accuracy      1.0D-12

     698.089 MB (compressed) written to integral file ( 13.5%)

     Node minimum: 15.991 MB, node maximum: 42.729 MB


 NUMBER OF SORTED TWO-ELECTRON INTEGRALS:   14108412.     BUFFER LENGTH:  32768
 NUMBER OF SEGMENTS:   1  SEGMENT LENGTH:   14108412      RECORD LENGTH: 524288

 Memory used in sort:      14.67 MW

 SORT1 READ   646821870. AND WROTE     2419159. INTEGRALS IN      7 RECORDS. CPU TIME:     4.48 SEC, REAL TIME:     4.60 SEC
 SORT2 READ    68065344. AND WROTE   395255076. INTEGRALS IN   2156 RECORDS. CPU TIME:     0.28 SEC, REAL TIME:     0.32 SEC

 Node minimum:    14103376.  Node maximum:    14140936. integrals

 OPERATOR DM      FOR CENTER  0  COORDINATES:    0.000000    0.000000    0.000000


 **********************************************************************************************************************************
 DATASETS  * FILE   NREC   LENGTH (MB)   RECORD NAMES
              1      19       30.69       500      610      700      900      950      970     1000      129      960     1100   
                                          VAR    BASINP    GEOM    SYMINP    ZMAT    AOBASIS   BASIS     P2S    ABASIS      S 
                                         1400     1410     1420     1200     1210     1080     1700     1600     1650   
                                           T        V       ECP      H0       H01     AOSYM    OPER      SMH    MOLCAS    

 PROGRAMS   *        TOTAL       INT
 CPU TIMES  *        11.09     10.68
 REAL TIME  *        12.29 SEC
 DISK USED  *        31.11 MB (local),        2.23 GB (total)
 GA USED    *         0.00 MB       (max)       0.00 MB       (current)
 **********************************************************************************************************************************

 PROGRAM * MULTI (Direct Multiconfiguration SCF)       Authors: P.J. Knowles, H.-J. Werner (1984)
                                                                D.A. Kreplin, P.J. Knowles, H.-J. Werner (2019)

 Number of closed-shell orbitals:   9 (    6    3)
 Number of active  orbitals:        7 (    1    6)
 Number of external orbitals:     265 (  128  137)

 State symmetry 1

 Number of active electrons:   5    Spin symmetry=Quartet   Space symmetry=2
 Number of states:            10
 Number of CSFs:             104   (110 determinants, 245 intermediate states)

 State symmetry 2

 Number of active electrons:   5    Spin symmetry=Doublet   Space symmetry=2
 Number of states:             8
 Number of CSFs:             280   (390 determinants, 735 intermediate states)


   Atom=BI basis=cc-pVTZ-PP        lmin=0  lmax=2

 Orbital guess generated from atomic densities.
 *** IN SYMMETRY 1 ORBITAL  2 SYMMETRY CONTAMINATION OF 0.148D+00 HAS BEEN REMOVED
 *** IN SYMMETRY 1 ORBITAL  3 SYMMETRY CONTAMINATION OF 0.149D+00 HAS BEEN REMOVED
 *** IN SYMMETRY 1 ORBITAL  4 SYMMETRY CONTAMINATION OF 0.160D-02 HAS BEEN REMOVED
 *** IN SYMMETRY 1 ORBITAL  5 SYMMETRY CONTAMINATION OF 0.585D-02 HAS BEEN REMOVED
 *** IN SYMMETRY 1 ORBITAL  6 SYMMETRY CONTAMINATION OF 0.466D-02 HAS BEEN REMOVED

 EXTRA SYMMETRY OF MOS IN SYMMETRY 1:   1 2 5 3 4 6 1 1 3 5   2 4 6 1 4 6 3 5 2 1   4 6 3 5 212 8131014  15 7 911 4 6 5 3 2 1
                                        4 6 2 3 5 911 7 812  14151013 1 9 711 812  13101415 2 4 6 5 3 1   9 711 81214151310 2
                                        4 6 5 3252817272123  26241918202216 7 911   81214151310 1 2 5 4   3 6 9 711 812141513
                                       10 1 5 3 4 6 2 1 5 3   4 6 2 1 1
 *** IN SYMMETRY 2 ORBITAL  1 SYMMETRY CONTAMINATION OF 0.433D-03 HAS BEEN REMOVED
 *** IN SYMMETRY 2 ORBITAL  2 SYMMETRY CONTAMINATION OF 0.548D-03 HAS BEEN REMOVED
 *** IN SYMMETRY 2 ORBITAL  3 SYMMETRY CONTAMINATION OF 0.408D-03 HAS BEEN REMOVED
 *** IN SYMMETRY 2 ORBITAL  4 SYMMETRY CONTAMINATION OF 0.382D-03 HAS BEEN REMOVED
 *** IN SYMMETRY 2 ORBITAL  6 SYMMETRY CONTAMINATION OF 0.382D-03 HAS BEEN REMOVED
 *** IN SYMMETRY 2 ORBITAL  8 SYMMETRY CONTAMINATION OF 0.252D-02 HAS BEEN REMOVED
 *** IN SYMMETRY 2 ORBITAL  9 SYMMETRY CONTAMINATION OF 0.252D-02 HAS BEEN REMOVED
 EXTRA SYMMETRY OF MOS IN SYMMETRY 2:   2 1 3 3 1 2 1 2 3 1   2 3 4 5 6 9 7 810 1   2 3 9 7 810 4 5 6 1   2 3 6 810 9 7 4 5 6
                                        810 7 9 4 5 1 2 319  21171416151311122018  10 8 6 4 5 7 9191116  2114131215171820 1 2
                                        310 8 6 4 5 7 91911  12211314161517182010   8 4 6 5 7 9 3 1 210   4 8 6 5 7 919111221
                                       13141615172018 1 3 2   6 4 8 510 7 9 1 2 3   1 2 3 1 2 3

 Wavefunction dump at record             2140.2

 Convergence thresholds  0.10E-04 (gradient)  0.10E-05 (energy)

 Weight factors for state symmetry  1:    0.59524   0.02381   0.02381   0.02381   0.02381   0.02381   0.02381   0.02381
                                          0.02381   0.02381
 Weight factors for state symmetry  2:    0.02381   0.02381   0.02381   0.02381   0.02381   0.02381   0.02381   0.02381
 
 Number of orbital rotations:  2153  ( 24 closed/active, 1179 closed/virtual, 0 active/active, 950 active/virtual )
 Total number of variables:    6373
 
 Second-order MCSCF: L-BFGS accelerated
 
 ITER  MIC  NCI  NEG     ENERGY(VAR)    ENERGY(PROJ) ENERGY CHANGE       GRAD(0)  GRAD(ORB)   GRAD(CI)      STEP      TIME
   1   12   20    0   -213.50934523    -213.53048282   -0.02113758    0.09858125 0.00052863 0.00000000  0.13E+01      4.50
   2    6   10    0   -213.52722344    -213.52871137   -0.00148793    0.08780261 0.00018470 0.00000000  0.28E+00      8.16
   3    5   10    0   -213.52871721    -213.52871730   -0.00000009    0.00044837 0.00000188 0.00000000  0.26E-02     11.52
   4    2    4    0   -213.52871730    -213.52871730    0.00000000    0.00000005 0.00000000 0.00000000  0.79E-07     14.43

 CONVERGENCE REACHED!  Final gradient:    0.00000000 ( 0.20E-08)
                       Final energy:   -213.52871730
 
 Results for state 1.2 Quartet
 =============================
 !MCSCF STATE 1.2 Quartet Energy              -213.591290822420
 Nuclear energy                                  0.00000000
 Kinetic energy                                 69.04016242
 One electron energy                          -373.08653831
 Two electron energy                           159.49524749
 Virial ratio                                    4.09372521
 
 !MCSCF STATE 1.2 Quartet Dipole moment          0.00000000     0.00000000     0.00000000
 Dipole moment /Debye                            0.00000000     0.00000000     0.00000000
 
 Results for state 2.2 Quartet
 =============================
 !MCSCF STATE 2.2 Quartet Energy              -213.361088691815
 Nuclear energy                                  0.00000000
 Kinetic energy                                 68.51100740
 One electron energy                          -368.13470513
 Two electron energy                           154.77361644
 Virial ratio                                    4.11425998
 
 !MCSCF STATE 2.2 Quartet Dipole moment          0.00000000     0.00000000     0.00000000
 Dipole moment /Debye                            0.00000000     0.00000000     0.00000000
 
 Results for state 3.2 Quartet
 =============================
 !MCSCF STATE 3.2 Quartet Energy              -213.361088691639
 Nuclear energy                                  0.00000000
 Kinetic energy                                 68.51100741
 One electron energy                          -368.13470514
 Two electron energy                           154.77361645
 Virial ratio                                    4.11425998
 
 !MCSCF STATE 3.2 Quartet Dipole moment          0.00000000     0.00000000     0.00000000
 Dipole moment /Debye                            0.00000000     0.00000000     0.00000000
 
 Results for state 4.2 Quartet
 =============================
 !MCSCF STATE 4.2 Quartet Energy              -213.361088691601
 Nuclear energy                                  0.00000000
 Kinetic energy                                 68.51100741
 One electron energy                          -368.13470515
 Two electron energy                           154.77361645
 Virial ratio                                    4.11425998
 
 !MCSCF STATE 4.2 Quartet Dipole moment          0.00000000     0.00000000     0.00000000
 Dipole moment /Debye                            0.00000000     0.00000000     0.00000000
 
 Results for state 5.2 Quartet
 =============================
 !MCSCF STATE 5.2 Quartet Energy              -213.361088691032
 Nuclear energy                                  0.00000000
 Kinetic energy                                 68.51100741
 One electron energy                          -368.13470520
 Two electron energy                           154.77361651
 Virial ratio                                    4.11425998
 
 !MCSCF STATE 5.2 Quartet Dipole moment          0.00000000     0.00000000     0.00000000
 Dipole moment /Debye                            0.00000000     0.00000000     0.00000000
 
 Results for state 6.2 Quartet
 =============================
 !MCSCF STATE 6.2 Quartet Energy              -213.361088691030
 Nuclear energy                                  0.00000000
 Kinetic energy                                 68.51100741
 One electron energy                          -368.13470520
 Two electron energy                           154.77361651
 Virial ratio                                    4.11425998
 
 !MCSCF STATE 6.2 Quartet Dipole moment          0.00000000     0.00000000     0.00000000
 Dipole moment /Debye                            0.00000000     0.00000000     0.00000000
 
 Results for state 7.2 Quartet
 =============================
 !MCSCF STATE 7.2 Quartet Energy              -213.356043030517
 Nuclear energy                                  0.00000000
 Kinetic energy                                 68.51091749
 One electron energy                          -368.13397238
 Two electron energy                           154.77792935
 Virial ratio                                    4.11419042
 
 !MCSCF STATE 7.2 Quartet Dipole moment          0.00000000     0.00000000     0.00000000
 Dipole moment /Debye                            0.00000000     0.00000000     0.00000000
 
 Results for state 8.2 Quartet
 =============================
 !MCSCF STATE 8.2 Quartet Energy              -213.356043030470
 Nuclear energy                                  0.00000000
 Kinetic energy                                 68.51091749
 One electron energy                          -368.13397238
 Two electron energy                           154.77792935
 Virial ratio                                    4.11419042
 
 !MCSCF STATE 8.2 Quartet Dipole moment          0.00000000     0.00000000     0.00000000
 Dipole moment /Debye                            0.00000000     0.00000000     0.00000000
 
 Results for state 9.2 Quartet
 =============================
 !MCSCF STATE 9.2 Quartet Energy              -213.356043029720
 Nuclear energy                                  0.00000000
 Kinetic energy                                 68.51091749
 One electron energy                          -368.13397243
 Two electron energy                           154.77792940
 Virial ratio                                    4.11419042
 
 !MCSCF STATE 9.2 Quartet Dipole moment          0.00000000     0.00000000     0.00000000
 Dipole moment /Debye                            0.00000000     0.00000000     0.00000000
 
 Results for state 10.2 Quartet
 ==============================
 !MCSCF STATE 10.2 Quartet Energy             -213.355052197868
 Nuclear energy                                  0.00000000
 Kinetic energy                                 68.62080115
 One electron energy                          -368.59139934
 Two electron energy                           155.23634714
 Virial ratio                                    4.10918918
 
 !MCSCF STATE 10.2 Quartet Dipole moment         0.00000000     0.00000000     0.00000000
 Dipole moment /Debye                            0.00000000     0.00000000     0.00000000
 
 Results for state 1.2 Doublet
 =============================
 !MCSCF STATE 1.2 Doublet Energy              -213.534180587793
 Nuclear energy                                  0.00000000
 Kinetic energy                                 68.98723989
 One electron energy                          -372.83457605
 Two electron energy                           159.30039546
 Virial ratio                                    4.09527067
 
 !MCSCF STATE 1.2 Doublet Dipole moment          0.00000000     0.00000000     0.00000000
 Dipole moment /Debye                            0.00000000     0.00000000     0.00000000
 
 Results for state 2.2 Doublet
 =============================
 !MCSCF STATE 2.2 Doublet Energy              -213.534180587792
 Nuclear energy                                  0.00000000
 Kinetic energy                                 68.98723989
 One electron energy                          -372.83457605
 Two electron energy                           159.30039546
 Virial ratio                                    4.09527067
 
 !MCSCF STATE 2.2 Doublet Dipole moment          0.00000000     0.00000000     0.00000000
 Dipole moment /Debye                            0.00000000     0.00000000     0.00000000
 
 Results for state 3.2 Doublet
 =============================
 !MCSCF STATE 3.2 Doublet Energy              -213.534180587739
 Nuclear energy                                  0.00000000
 Kinetic energy                                 68.98723989
 One electron energy                          -372.83457606
 Two electron energy                           159.30039547
 Virial ratio                                    4.09527067
 
 !MCSCF STATE 3.2 Doublet Dipole moment          0.00000000     0.00000000     0.00000000
 Dipole moment /Debye                            0.00000000     0.00000000     0.00000000
 
 Results for state 4.2 Doublet
 =============================
 !MCSCF STATE 4.2 Doublet Energy              -213.534180587738
 Nuclear energy                                  0.00000000
 Kinetic energy                                 68.98723989
 One electron energy                          -372.83457606
 Two electron energy                           159.30039547
 Virial ratio                                    4.09527067
 
 !MCSCF STATE 4.2 Doublet Dipole moment          0.00000000     0.00000000     0.00000000
 Dipole moment /Debye                            0.00000000     0.00000000     0.00000000
 
 Results for state 5.2 Doublet
 =============================
 !MCSCF STATE 5.2 Doublet Energy              -213.534180587720
 Nuclear energy                                  0.00000000
 Kinetic energy                                 68.98723989
 One electron energy                          -372.83457606
 Two electron energy                           159.30039547
 Virial ratio                                    4.09527067
 
 !MCSCF STATE 5.2 Doublet Dipole moment          0.00000000     0.00000000     0.00000000
 Dipole moment /Debye                            0.00000000     0.00000000     0.00000000
 
 Results for state 6.2 Doublet
 =============================
 !MCSCF STATE 6.2 Doublet Energy              -213.508109433691
 Nuclear energy                                  0.00000000
 Kinetic energy                                 68.95183553
 One electron energy                          -372.63640001
 Two electron energy                           159.12829058
 Virial ratio                                    4.09648188
 
 !MCSCF STATE 6.2 Doublet Dipole moment          0.00000000     0.00000000     0.00000000
 Dipole moment /Debye                            0.00000000     0.00000000     0.00000000
 
 Results for state 7.2 Doublet
 =============================
 !MCSCF STATE 7.2 Doublet Energy              -213.508109433579
 Nuclear energy                                  0.00000000
 Kinetic energy                                 68.95183554
 One electron energy                          -372.63640002
 Two electron energy                           159.12829059
 Virial ratio                                    4.09648188
 
 !MCSCF STATE 7.2 Doublet Dipole moment          0.00000000     0.00000000     0.00000000
 Dipole moment /Debye                            0.00000000     0.00000000     0.00000000
 
 Results for state 8.2 Doublet
 =============================
 !MCSCF STATE 8.2 Doublet Energy              -213.508109433579
 Nuclear energy                                  0.00000000
 Kinetic energy                                 68.95183554
 One electron energy                          -372.63640002
 Two electron energy                           159.12829059
 Virial ratio                                    4.09648188
 
 !MCSCF STATE 8.2 Doublet Dipole moment          0.00000000     0.00000000     0.00000000
 Dipole moment /Debye                            0.00000000     0.00000000     0.00000000
 
 State-averaged charge density matrix saved on record 2140.2 (density set 1)
 
 No non-zero expectation values
 
 Expectation values for two-electron operators:
 
 ? Warning
 ? Transition properties are only calculated between states of the same symmetry
 ? The problem occurs in mu_properties_expec2

 !MCSCF expec      <1.2 Quartet|LXLX|1.2 Quartet>     0.000000000000
 !MCSCF expec      <2.2 Quartet|LXLX|2.2 Quartet>     2.902427741437
 !MCSCF expec      <3.2 Quartet|LXLX|3.2 Quartet>     1.000000000070
 !MCSCF expec      <4.2 Quartet|LXLX|4.2 Quartet>     3.999999999979
 !MCSCF expec      <5.2 Quartet|LXLX|5.2 Quartet>     1.000000000207
 !MCSCF expec      <6.2 Quartet|LXLX|6.2 Quartet>     1.097569111926
 !MCSCF expec      <7.2 Quartet|LXLX|7.2 Quartet>     0.999999999996
 !MCSCF expec      <8.2 Quartet|LXLX|8.2 Quartet>     0.000000000007
 !MCSCF expec      <9.2 Quartet|LXLX|9.2 Quartet>     0.999999999996
 !MCSCF expec    <10.2 Quartet|LXLX|10.2 Quartet>     0.000000000004
 !MCSCF expec      <1.2 Doublet|LXLX|1.2 Doublet>     0.999999927281
 !MCSCF expec      <2.2 Doublet|LXLX|2.2 Doublet>     0.987481705097
 !MCSCF expec      <3.2 Doublet|LXLX|3.2 Doublet>     1.000000257006
 !MCSCF expec      <4.2 Doublet|LXLX|4.2 Doublet>     3.999999999999
 !MCSCF expec      <5.2 Doublet|LXLX|5.2 Doublet>     3.012529665663
 !MCSCF expec      <6.2 Doublet|LXLX|6.2 Doublet>     1.000000000000
 !MCSCF expec      <7.2 Doublet|LXLX|7.2 Doublet>     0.999998210756
 !MCSCF expec      <8.2 Doublet|LXLX|8.2 Doublet>     0.000000000001
 
 !MCSCF expec      <1.2 Quartet|LYLY|1.2 Quartet>     0.000000000000
 !MCSCF expec      <2.2 Quartet|LYLY|2.2 Quartet>     0.003076541931
 !MCSCF expec      <3.2 Quartet|LYLY|3.2 Quartet>     1.000000000024
 !MCSCF expec      <4.2 Quartet|LYLY|4.2 Quartet>     0.999999999996
 !MCSCF expec      <5.2 Quartet|LYLY|5.2 Quartet>     3.999999999854
 !MCSCF expec      <6.2 Quartet|LYLY|6.2 Quartet>     3.996923653603
 !MCSCF expec      <7.2 Quartet|LYLY|7.2 Quartet>     0.999999999987
 !MCSCF expec      <8.2 Quartet|LYLY|8.2 Quartet>     0.999999999996
 !MCSCF expec      <9.2 Quartet|LYLY|9.2 Quartet>     0.000000000011
 !MCSCF expec    <10.2 Quartet|LYLY|10.2 Quartet>     0.000000000004
 !MCSCF expec      <1.2 Doublet|LYLY|1.2 Doublet>     3.999999986850
 !MCSCF expec      <2.2 Doublet|LYLY|2.2 Doublet>     3.999947513281
 !MCSCF expec      <3.2 Doublet|LYLY|3.2 Doublet>     1.000000062678
 !MCSCF expec      <4.2 Doublet|LYLY|4.2 Doublet>     1.000000000000
 !MCSCF expec      <5.2 Doublet|LYLY|5.2 Doublet>     0.000052630688
 !MCSCF expec      <6.2 Doublet|LYLY|6.2 Doublet>     0.000000010354
 !MCSCF expec      <7.2 Doublet|LYLY|7.2 Doublet>     0.999999987967
 !MCSCF expec      <8.2 Doublet|LYLY|8.2 Doublet>     1.000000000000
 
 !MCSCF expec      <1.2 Quartet|LZLZ|1.2 Quartet>     0.000000000000
 !MCSCF expec      <2.2 Quartet|LZLZ|2.2 Quartet>     3.094495716603
 !MCSCF expec      <3.2 Quartet|LZLZ|3.2 Quartet>     3.999999999877
 !MCSCF expec      <4.2 Quartet|LZLZ|4.2 Quartet>     0.999999999996
 !MCSCF expec      <5.2 Quartet|LZLZ|5.2 Quartet>     0.999999999910
 !MCSCF expec      <6.2 Quartet|LZLZ|6.2 Quartet>     0.905507234443
 !MCSCF expec      <7.2 Quartet|LZLZ|7.2 Quartet>     0.000000000017
 !MCSCF expec      <8.2 Quartet|LZLZ|8.2 Quartet>     0.999999999996
 !MCSCF expec      <9.2 Quartet|LZLZ|9.2 Quartet>     0.999999999992
 !MCSCF expec    <10.2 Quartet|LZLZ|10.2 Quartet>     0.000000000004
 !MCSCF expec      <1.2 Doublet|LZLZ|1.2 Doublet>     1.000000085868
 !MCSCF expec      <2.2 Doublet|LZLZ|2.2 Doublet>     1.012570781621
 !MCSCF expec      <3.2 Doublet|LZLZ|3.2 Doublet>     3.999999680314
 !MCSCF expec      <4.2 Doublet|LZLZ|4.2 Doublet>     1.000000000000
 !MCSCF expec      <5.2 Doublet|LZLZ|5.2 Doublet>     2.987417703648
 !MCSCF expec      <6.2 Doublet|LZLZ|6.2 Doublet>     0.999999989647
 !MCSCF expec      <7.2 Doublet|LZLZ|7.2 Doublet>     0.000001801277
 !MCSCF expec      <8.2 Doublet|LZLZ|8.2 Doublet>     1.000000000000
 
 !MCSCF expec      <1.2 Quartet|L**2|1.2 Quartet>     0.000000000000
 !MCSCF expec      <2.2 Quartet|L**2|2.2 Quartet>     5.999999999971
 !MCSCF expec      <3.2 Quartet|L**2|3.2 Quartet>     5.999999999971
 !MCSCF expec      <4.2 Quartet|L**2|4.2 Quartet>     5.999999999971
 !MCSCF expec      <5.2 Quartet|L**2|5.2 Quartet>     5.999999999971
 !MCSCF expec      <6.2 Quartet|L**2|6.2 Quartet>     5.999999999971
 !MCSCF expec      <7.2 Quartet|L**2|7.2 Quartet>     2.000000000000
 !MCSCF expec      <8.2 Quartet|L**2|8.2 Quartet>     2.000000000000
 !MCSCF expec      <9.2 Quartet|L**2|9.2 Quartet>     2.000000000000
 !MCSCF expec    <10.2 Quartet|L**2|10.2 Quartet>     0.000000000013
 !MCSCF expec      <1.2 Doublet|L**2|1.2 Doublet>     5.999999999998
 !MCSCF expec      <2.2 Doublet|L**2|2.2 Doublet>     5.999999999998
 !MCSCF expec      <3.2 Doublet|L**2|3.2 Doublet>     5.999999999998
 !MCSCF expec      <4.2 Doublet|L**2|4.2 Doublet>     5.999999999998
 !MCSCF expec      <5.2 Doublet|L**2|5.2 Doublet>     5.999999999998
 !MCSCF expec      <6.2 Doublet|L**2|6.2 Doublet>     2.000000000000
 !MCSCF expec      <7.2 Doublet|L**2|7.2 Doublet>     2.000000000000
 !MCSCF expec      <8.2 Doublet|L**2|8.2 Doublet>     2.000000000000
 
 EXTRA SYMMETRY OF MOS IN SYMMETRY 1:   1 3 5 4 6 2 1 1 6 2   3 5 4 1 2 6 4 3 5 1   6 3 5 4 213101415 8  12 9 711 3 5 4 6 2 1
                                        5 3 4 6 210131415 9  12 8 711 113101514 9   812 711 5 3 4 2 6 1  13101415 9 812 711 5
                                        3 4 2 6221620182419  23262817212527131014  15 9 812 711 1 5 3 2   4 613101514 9 812 7
                                       11 1 2 5 3 4 6 1 5 2   3 4 6 1 1
 EXTRA SYMMETRY OF MOS IN SYMMETRY 2:   1 2 3 3 2 1 1 2 3 3   1 2 5 6 4 810 7 9 3   1 2 9 7 810 5 4 6 1   3 2 9 710 8 4 6 5 9
                                        710 8 4 6 5 1 2 318  20151714161121131912   9 710 8 4 6 5201815  1714161121131912 1 2
                                        3 7 910 8 4 6 52018  151716141121131912 7   9 810 4 6 5 1 2 3 7   9 810 4 6 518201517
                                       16141121131912 1 2 3   7 9 810 4 6 5 1 3 2   1 2 3 1 2 3
 
  NATURAL ORBITALS (STATE AVERAGED)
  =================================

  Orbital  Occupation    Energy    Cen Mu Typ  Coefficients
    1.1     2.00000    -6.72131     1  1  s    0.99825
    2.1     2.00000    -1.34967     1  1  d2-  1.00065
    3.1     2.00000    -1.34967     1  1  d2+  1.00065
    4.1     2.00000    -1.34967     1  1  d1+  1.00065
    5.1     2.00000    -1.34967     1  1  d1-  1.00065
    6.1     2.00000    -1.34967     1  1  d0   1.00065
    7.1     1.99376    -0.71074     1  1  s   -0.42419    1  5  s    0.61119    1  6  s    0.46832
    1.2     2.00000    -4.29770     1  1  px   0.99996
    2.2     2.00000    -4.29770     1  1  py   0.99996
    3.2     2.00000    -4.29770     1  1  pz   0.99996
    4.2     0.92918    -0.15468     1  1  pz  -0.27570    1  5  pz   0.48017    1  6  pz   0.37261
    5.2     0.92918    -0.15468     1  1  py  -0.27570    1  5  py   0.48017    1  6  py   0.37261
    6.2     0.92918    -0.15468     1  1  px  -0.27570    1  5  px   0.48017    1  6  px   0.37261
    7.2     0.07290     0.05218     1  5  px  -0.25599    1 12  px   0.80288
    8.2     0.07290     0.05218     1  5  py  -0.25599    1 12  py   0.80288
    9.2     0.07290     0.05218     1  5  pz  -0.25599    1 12  pz   0.80288
 
 Natural orbital dump (state averaged) at molpro section 2140.2 (Orbital set 2)
 
 Transform the CI vectors
 
 CI Coefficients of symmetry 2 (Quartet)
 =======================================

 State:              1               2               3               4               5               6               7
 2 aaa000       0.99940461      0.00000000      0.00000000     -0.00000000      0.00000000      0.00000001      0.00000000
 2 a0a0a0      -0.00053056      0.81123768      0.00000432      0.00000040      0.00000301      0.02250695      0.00000000
 2 0aa00a       0.00053056      0.38612713      0.00000189      0.00000019      0.00002044      0.71380584     -0.00000000
 2 0aa0a0      -0.00000000      0.00000034     -0.00000001     -0.70282279     -0.00000002      0.00000000      0.00000022
 2 aa00a0       0.00000000     -0.00000375      0.70282278     -0.00000001      0.00000337      0.00000017      0.70276206
 2 0aaa00      -0.00000000     -0.00000208     -0.00000337     -0.00000002      0.70282271     -0.00001900     -0.00000217
 2 aa000a      -0.00000000     -0.00000208     -0.00000337     -0.00000002      0.70282270     -0.00001900      0.00000217
 2 a0aa00       0.00000000      0.00000375     -0.70282263      0.00000001     -0.00000337     -0.00000017      0.70276222
 2 a0a00a       0.00000000     -0.00000034      0.00000001      0.70282262      0.00000002     -0.00000000      0.00000022
[...]
   53    5.2  0.5 -0.5   0.000%   0.000%   0.020%   0.002%   0.001%   0.010%   0.000%   0.000%   0.001%   0.041%
   54    6.2  0.5 -0.5   0.191%   0.000%   0.006%   0.083%   0.000%   0.000%   0.003%   0.000%   0.022%   0.000%
   55    7.2  0.5 -0.5   0.188%   0.004%   0.001%   0.021%   0.067%   0.001%   0.003%   0.000%   0.007%   0.000%
   56    8.2  0.5 -0.5   0.004%   0.188%   0.023%   0.001%   0.001%   0.065%   0.000%   0.003%   0.000%   0.004%

   Nr   State  S   Sz      31       32       33       34       35       36       37       38       39       40

    1    1.2  1.5  1.5   0.019%   0.002%   0.000%   0.000%   0.000%   0.000%   0.000%   0.000%   0.065%   0.001%
    2    2.2  1.5  1.5   5.389%   0.526%   0.752%   0.326%   5.085%   0.382%   0.000%   0.001%   0.175%   0.002%
    3    3.2  1.5  1.5   0.528%   5.394%   5.145%  18.865%   0.331%   3.785%   0.222%   2.640%   0.002%   0.174%
    4    4.2  1.5  1.5   0.467%   5.460%   0.636%   2.649%   1.487%  23.364%   0.222%   2.644%   0.003%   0.174%
    5    5.2  1.5  1.5   2.177%   0.187%   3.430%   0.927%   2.114%   0.148%   7.358%   0.618%   0.532%   0.008%
    6    6.2  1.5  1.5   4.493%   0.385%   1.972%   0.496%   4.074%   0.254%  22.433%   1.886%   0.190%   0.003%
    7    7.2  1.5  1.5   6.596%   0.563%   0.000%   0.000%   0.000%   0.000%   0.000%   0.000%  38.380%   0.578%
    8    8.2  1.5  1.5   2.467%   0.226%   1.085%   0.303%   0.251%   0.019%   7.215%   0.589%  20.078%   0.318%
    9    9.2  1.5  1.5   0.329%   3.661%   1.209%   4.644%   0.298%   4.789%   0.146%   1.931%   0.049%   2.105%
   10   10.2  1.5  1.5   0.317%   3.677%   2.263%   8.610%   0.002%   0.068%   0.160%   1.917%   0.032%   2.119%
   11    1.2  1.5  0.5   0.007%   0.083%   0.000%   0.000%   0.000%   0.000%   0.000%   0.000%   0.000%   0.021%
   12    2.2  1.5  0.5   0.118%   1.215%   6.084%  23.880%   0.389%   5.427%   0.277%   3.085%   0.006%   0.551%
   13    3.2  1.5  0.5   1.209%   0.118%   1.002%   0.185%  11.757%   0.860%   0.811%   0.087%   0.551%   0.006%
   14    4.2  1.5  0.5   1.228%   0.105%   2.790%   0.774%   9.581%   0.647%   0.828%   0.070%   0.549%   0.008%
   15    5.2  1.5  0.5   0.385%   4.495%   0.431%   1.713%   0.243%   3.889%   1.925%  22.910%   0.003%   0.190%
   16    6.2  1.5  0.5   0.187%   2.176%   0.875%   3.231%   0.154%   2.191%   0.632%   7.513%   0.008%   0.532%
   17    7.2  1.5  0.5   2.519%  29.341%   0.000%   0.000%   0.000%   0.000%   0.000%   0.000%   0.184%  12.145%
   18    8.2  1.5  0.5   0.111%   1.218%   0.509%   1.800%   0.771%  11.123%   0.000%   0.000%   0.004%   0.715%
   19    9.2  1.5  0.5   1.699%   0.153%   0.061%   0.009%   4.412%   0.315%   5.399%   0.454%  18.233%   0.267%
   20   10.2  1.5  0.5   9.760%   0.836%   2.500%   0.674%   1.515%   0.106%   5.402%   0.454%   0.823%   0.012%
   21    1.2  1.5 -0.5   0.083%   0.007%   0.000%   0.000%   0.000%   0.000%   0.000%   0.000%   0.021%   0.000%
   22    2.2  1.5 -0.5   1.215%   0.118%  23.880%   6.084%   5.427%   0.389%   3.085%   0.277%   0.551%   0.006%
   23    3.2  1.5 -0.5   0.118%   1.209%   0.185%   1.002%   0.860%  11.757%   0.087%   0.811%   0.006%   0.551%
   24    4.2  1.5 -0.5   0.105%   1.228%   0.774%   2.790%   0.647%   9.581%   0.070%   0.828%   0.008%   0.549%
   25    5.2  1.5 -0.5   4.495%   0.385%   1.713%   0.431%   3.889%   0.243%  22.910%   1.925%   0.190%   0.003%
   26    6.2  1.5 -0.5   2.176%   0.187%   3.231%   0.875%   2.191%   0.154%   7.513%   0.632%   0.532%   0.008%
   27    7.2  1.5 -0.5  29.341%   2.519%   0.000%   0.000%   0.000%   0.000%   0.000%   0.000%  12.145%   0.184%
   28    8.2  1.5 -0.5   1.218%   0.111%   1.800%   0.509%  11.123%   0.771%   0.000%   0.000%   0.715%   0.004%
   29    9.2  1.5 -0.5   0.153%   1.699%   0.009%   0.061%   0.315%   4.412%   0.454%   5.399%   0.267%  18.233%
   30   10.2  1.5 -0.5   0.836%   9.760%   0.674%   2.500%   0.106%   1.515%   0.454%   5.402%   0.012%   0.823%
   31    1.2  1.5 -1.5   0.002%   0.019%   0.000%   0.000%   0.000%   0.000%   0.000%   0.000%   0.001%   0.065%
   32    2.2  1.5 -1.5   0.526%   5.389%   0.326%   0.752%   0.382%   5.085%   0.001%   0.000%   0.002%   0.175%
   33    3.2  1.5 -1.5   5.394%   0.528%  18.865%   5.145%   3.785%   0.331%   2.640%   0.222%   0.174%   0.002%
   34    4.2  1.5 -1.5   5.460%   0.467%   2.649%   0.636%  23.364%   1.487%   2.644%   0.222%   0.174%   0.003%
   35    5.2  1.5 -1.5   0.187%   2.177%   0.927%   3.430%   0.148%   2.114%   0.618%   7.358%   0.008%   0.532%
   36    6.2  1.5 -1.5   0.385%   4.493%   0.496%   1.972%   0.254%   4.074%   1.886%  22.433%   0.003%   0.190%
   37    7.2  1.5 -1.5   0.563%   6.596%   0.000%   0.000%   0.000%   0.000%   0.000%   0.000%   0.578%  38.380%
   38    8.2  1.5 -1.5   0.226%   2.467%   0.303%   1.085%   0.019%   0.251%   0.589%   7.215%   0.318%  20.078%
   39    9.2  1.5 -1.5   3.661%   0.329%   4.644%   1.209%   4.789%   0.298%   1.931%   0.146%   2.105%   0.049%
   40   10.2  1.5 -1.5   3.677%   0.317%   8.610%   2.263%   0.068%   0.002%   1.917%   0.160%   2.119%   0.032%
   41    1.2  0.5  0.5   0.008%   0.040%   0.004%   0.008%   0.006%   0.067%   0.016%   0.001%   0.000%   0.004%
   42    2.2  0.5  0.5   0.017%   0.001%   0.020%   0.012%   0.015%   0.001%   0.048%   0.005%   0.019%   0.001%
   43    3.2  0.5  0.5   0.042%   0.006%   0.001%   0.011%   0.040%   0.012%   0.037%   0.001%   0.000%   0.004%
   44    4.2  0.5  0.5   0.001%   0.010%   0.008%   0.038%   0.001%   0.008%   0.006%   0.041%   0.000%   0.020%
   45    5.2  0.5  0.5   0.004%   0.010%   0.020%   0.047%   0.002%   0.018%   0.000%   0.013%   0.001%   0.017%
   46    6.2  0.5  0.5   0.000%   0.000%   0.000%   0.000%   0.000%   0.000%   0.000%   0.000%   0.090%   0.001%
   47    7.2  0.5  0.5   0.015%   0.001%   0.000%   0.000%   0.000%   0.000%   0.000%   0.000%   0.024%   0.000%
   48    8.2  0.5  0.5   0.001%   0.018%   0.000%   0.000%   0.000%   0.000%   0.000%   0.000%   0.000%   0.022%
   49    1.2  0.5 -0.5   0.040%   0.008%   0.008%   0.004%   0.067%   0.006%   0.001%   0.016%   0.004%   0.000%
   50    2.2  0.5 -0.5   0.001%   0.017%   0.012%   0.020%   0.001%   0.015%   0.005%   0.048%   0.001%   0.019%
   51    3.2  0.5 -0.5   0.006%   0.042%   0.011%   0.001%   0.012%   0.040%   0.001%   0.037%   0.004%   0.000%
   52    4.2  0.5 -0.5   0.010%   0.001%   0.038%   0.008%   0.008%   0.001%   0.041%   0.006%   0.020%   0.000%
   53    5.2  0.5 -0.5   0.010%   0.004%   0.047%   0.020%   0.018%   0.002%   0.013%   0.000%   0.017%   0.001%
   54    6.2  0.5 -0.5   0.000%   0.000%   0.000%   0.000%   0.000%   0.000%   0.000%   0.000%   0.001%   0.090%
   55    7.2  0.5 -0.5   0.001%   0.015%   0.000%   0.000%   0.000%   0.000%   0.000%   0.000%   0.000%   0.024%
   56    8.2  0.5 -0.5   0.018%   0.001%   0.000%   0.000%   0.000%   0.000%   0.000%   0.000%   0.022%   0.000%

   Nr   State  S   Sz      41       42       43       44       45       46       47       48       49       50

    1    1.2  1.5  1.5   0.000%   0.021%   0.000%   0.000%   0.000%   0.000%   0.000%   0.000%   0.000%   0.000%
    2    2.2  1.5  1.5   0.008%   0.549%   0.013%   0.087%  30.548%   0.086%   0.026%  14.957%   3.120%   2.584%
    3    3.2  1.5  1.5   0.549%   0.008%  22.390%   0.000%   0.042%   5.422%   5.198%   0.026%   0.507%   0.709%
    4    4.2  1.5  1.5   0.546%   0.011%  21.087%   0.000%   0.001%   0.157%   5.094%   0.008%   3.675%   4.265%
    5    5.2  1.5  1.5   0.004%   0.189%   0.000%   2.215%   6.357%   0.016%   0.037%  27.881%   4.993%   4.285%
    6    6.2  1.5  1.5   0.011%   0.529%   0.000%   4.603%  15.818%   0.026%   0.004%   1.985%   6.339%   5.440%
    7    7.2  1.5  1.5   0.250%  12.079%   0.000%   0.000%   0.000%   0.000%   0.000%   0.000%   0.000%   0.000%
    8    8.2  1.5  1.5   0.114%   6.342%   0.000%   0.000%   0.000%   0.000%   0.000%   0.000%   0.000%   0.000%
    9    9.2  1.5  1.5   6.679%   0.121%   0.000%   0.000%   0.000%   0.000%   0.000%   0.000%   0.000%   0.000%
   10   10.2  1.5  1.5   6.661%   0.138%   0.000%   0.000%   0.000%   0.000%   0.000%   0.000%   0.000%   0.000%
   11    1.2  1.5  0.5   0.065%   0.001%   0.000%   0.000%   0.000%   0.000%   0.000%   0.000%   0.000%   0.000%
   12    2.2  1.5  0.5   0.174%   0.003%  28.491%   0.002%   0.009%   0.070%   0.002%   0.007%   0.001%   0.001%
   13    3.2  1.5  0.5   0.003%   0.174%   0.012%   6.146%  20.819%   0.029%   0.024%  14.953%   2.004%   1.720%
   14    4.2  1.5  0.5   0.004%   0.173%   0.000%   7.420%   0.028%   0.000%   0.020%  14.636%  12.706%  10.905%
   15    5.2  1.5  0.5   0.529%   0.011%   6.151%   0.000%   0.020%  13.820%  11.509%   0.019%   1.243%   1.452%
   16    6.2  1.5  0.5   0.189%   0.004%   1.384%   0.000%   0.013%   6.718%   3.613%   0.004%  15.731%  18.320%
   17    7.2  1.5  0.5  38.166%   0.793%   0.000%   0.000%   0.000%   0.000%   0.000%   0.000%   0.000%   0.000%
   18    8.2  1.5  0.5   2.227%   0.040%   0.000%   0.000%   0.000%   0.000%   0.000%   0.000%   0.000%   0.000%
   19    9.2  1.5  0.5   0.043%   2.341%   0.000%   0.000%   0.000%   0.000%   0.000%   0.000%   0.000%   0.000%
   20   10.2  1.5  0.5   0.407%  19.642%   0.000%   0.000%   0.000%   0.000%   0.000%   0.000%   0.000%   0.000%
   21    1.2  1.5 -0.5   0.001%   0.065%   0.000%   0.000%   0.000%   0.000%   0.000%   0.000%   0.000%   0.000%
   22    2.2  1.5 -0.5   0.003%   0.174%   0.002%  28.491%   0.070%   0.009%   0.007%   0.002%   0.001%   0.001%
   23    3.2  1.5 -0.5   0.174%   0.003%   6.146%   0.012%   0.029%  20.819%  14.953%   0.024%   1.720%   2.004%
   24    4.2  1.5 -0.5   0.173%   0.004%   7.420%   0.000%   0.000%   0.028%  14.636%   0.020%  10.905%  12.706%
   25    5.2  1.5 -0.5   0.011%   0.529%   0.000%   6.151%  13.820%   0.020%   0.019%  11.509%   1.452%   1.243%
   26    6.2  1.5 -0.5   0.004%   0.189%   0.000%   1.384%   6.718%   0.013%   0.004%   3.613%  18.320%  15.731%
   27    7.2  1.5 -0.5   0.793%  38.166%   0.000%   0.000%   0.000%   0.000%   0.000%   0.000%   0.000%   0.000%
   28    8.2  1.5 -0.5   0.040%   2.227%   0.000%   0.000%   0.000%   0.000%   0.000%   0.000%   0.000%   0.000%
   29    9.2  1.5 -0.5   2.341%   0.043%   0.000%   0.000%   0.000%   0.000%   0.000%   0.000%   0.000%   0.000%
   30   10.2  1.5 -0.5  19.642%   0.407%   0.000%   0.000%   0.000%   0.000%   0.000%   0.000%   0.000%   0.000%
   31    1.2  1.5 -1.5   0.021%   0.000%   0.000%   0.000%   0.000%   0.000%   0.000%   0.000%   0.000%   0.000%
   32    2.2  1.5 -1.5   0.549%   0.008%   0.087%   0.013%   0.086%  30.548%  14.957%   0.026%   2.584%   3.120%
   33    3.2  1.5 -1.5   0.008%   0.549%   0.000%  22.390%   5.422%   0.042%   0.026%   5.198%   0.709%   0.507%
   34    4.2  1.5 -1.5   0.011%   0.546%   0.000%  21.087%   0.157%   0.001%   0.008%   5.094%   4.265%   3.675%
   35    5.2  1.5 -1.5   0.189%   0.004%   2.215%   0.000%   0.016%   6.357%  27.881%   0.037%   4.285%   4.993%
   36    6.2  1.5 -1.5   0.529%   0.011%   4.603%   0.000%   0.026%  15.818%   1.985%   0.004%   5.440%   6.339%
   37    7.2  1.5 -1.5  12.079%   0.250%   0.000%   0.000%   0.000%   0.000%   0.000%   0.000%   0.000%   0.000%
   38    8.2  1.5 -1.5   6.342%   0.114%   0.000%   0.000%   0.000%   0.000%   0.000%   0.000%   0.000%   0.000%
   39    9.2  1.5 -1.5   0.121%   6.679%   0.000%   0.000%   0.000%   0.000%   0.000%   0.000%   0.000%   0.000%
   40   10.2  1.5 -1.5   0.138%   6.661%   0.000%   0.000%   0.000%   0.000%   0.000%   0.000%   0.000%   0.000%
   41    1.2  0.5  0.5   0.011%   0.011%   0.000%   0.000%   0.000%   0.000%   0.000%   0.000%   0.000%   0.000%
   42    2.2  0.5  0.5   0.001%   0.006%   0.000%   0.000%   0.000%   0.000%   0.000%   0.000%   0.000%   0.000%
   43    3.2  0.5  0.5   0.008%   0.015%   0.000%   0.000%   0.000%   0.000%   0.000%   0.000%   0.000%   0.000%
   44    4.2  0.5  0.5   0.006%   0.001%   0.000%   0.000%   0.000%   0.000%   0.000%   0.000%   0.000%   0.000%
   45    5.2  0.5  0.5   0.008%   0.000%   0.000%   0.000%   0.000%   0.000%   0.000%   0.000%   0.000%   0.000%
   46    6.2  0.5  0.5   0.000%   0.000%   0.000%   0.000%   0.000%   0.000%   0.000%   0.000%   0.000%   0.000%
   47    7.2  0.5  0.5   0.005%   0.063%   0.000%   0.000%   0.000%   0.000%   0.000%   0.000%   0.000%   0.000%
   48    8.2  0.5  0.5   0.065%   0.005%   0.000%   0.000%   0.000%   0.000%   0.000%   0.000%   0.000%   0.000%
   49    1.2  0.5 -0.5   0.011%   0.011%   0.000%   0.000%   0.000%   0.000%   0.000%   0.000%   0.000%   0.000%
   50    2.2  0.5 -0.5   0.006%   0.001%   0.000%   0.000%   0.000%   0.000%   0.000%   0.000%   0.000%   0.000%
   51    3.2  0.5 -0.5   0.015%   0.008%   0.000%   0.000%   0.000%   0.000%   0.000%   0.000%   0.000%   0.000%
   52    4.2  0.5 -0.5   0.001%   0.006%   0.000%   0.000%   0.000%   0.000%   0.000%   0.000%   0.000%   0.000%
   53    5.2  0.5 -0.5   0.000%   0.008%   0.000%   0.000%   0.000%   0.000%   0.000%   0.000%   0.000%   0.000%
   54    6.2  0.5 -0.5   0.000%   0.000%   0.000%   0.000%   0.000%   0.000%   0.000%   0.000%   0.000%   0.000%
   55    7.2  0.5 -0.5   0.063%   0.005%   0.000%   0.000%   0.000%   0.000%   0.000%   0.000%   0.000%   0.000%
   56    8.2  0.5 -0.5   0.005%   0.065%   0.000%   0.000%   0.000%   0.000%   0.000%   0.000%   0.000%   0.000%

   Nr   State  S   Sz      51       52       53       54       55       56

    1    1.2  1.5  1.5   0.000%   0.000%   0.000%   0.000%   0.000%   0.000%
    2    2.2  1.5  1.5   1.089%   0.368%   0.003%   0.545%   0.000%   0.006%
    3    3.2  1.5  1.5   0.165%   0.494%   8.101%   0.001%   0.772%   0.001%
    4    4.2  1.5  1.5   2.032%   5.867%   0.401%   0.000%   1.237%   0.002%
    5    5.2  1.5  1.5   0.245%   0.085%   0.000%   1.568%   0.005%   2.587%
    6    6.2  1.5  1.5   1.512%   0.523%   0.000%   0.492%   0.012%   7.032%
    7    7.2  1.5  1.5   0.000%   0.000%   0.000%   0.000%   0.000%   0.000%
    8    8.2  1.5  1.5   1.723%   0.574%   0.000%   3.835%   0.036%  24.329%
    9    9.2  1.5  1.5   5.007%  14.502%  14.273%   0.001%   8.139%   0.009%
   10   10.2  1.5  1.5   0.304%   0.886%  33.769%   0.005%   6.957%   0.013%
   11    1.2  1.5  0.5   0.000%   0.000%   0.000%   0.000%   0.000%   0.000%
   12    2.2  1.5  0.5   0.807%   2.393%   8.001%   0.003%   0.838%   0.002%
   13    3.2  1.5  0.5   2.699%   0.913%   0.006%   0.738%   0.001%   0.163%
   14    4.2  1.5  0.5   1.860%   0.649%   0.000%   1.612%   0.001%   0.395%
   15    5.2  1.5  0.5   0.285%   0.819%   0.442%   0.000%   8.012%   0.014%
   16    6.2  1.5  0.5   0.161%   0.463%   1.516%   0.000%   2.345%   0.004%
   17    7.2  1.5  0.5   0.000%   0.000%   0.000%   0.000%   0.000%   0.000%
   18    8.2  1.5  0.5   8.498%  24.701%  12.402%   0.003%   0.139%   0.001%
   19    9.2  1.5  0.5  13.111%   4.473%   0.001%   0.005%   0.028%  16.692%
   20   10.2  1.5  0.5   1.830%   0.632%   0.002%  11.946%   0.035%  19.864%
   21    1.2  1.5 -0.5   0.000%   0.000%   0.000%   0.000%   0.000%   0.000%
   22    2.2  1.5 -0.5   2.393%   0.807%   0.003%   8.001%   0.002%   0.838%
   23    3.2  1.5 -0.5   0.913%   2.699%   0.738%   0.006%   0.163%   0.001%
   24    4.2  1.5 -0.5   0.649%   1.860%   1.612%   0.000%   0.395%   0.001%
   25    5.2  1.5 -0.5   0.819%   0.285%   0.000%   0.442%   0.014%   8.012%
   26    6.2  1.5 -0.5   0.463%   0.161%   0.000%   1.516%   0.004%   2.345%
   27    7.2  1.5 -0.5   0.000%   0.000%   0.000%   0.000%   0.000%   0.000%
   28    8.2  1.5 -0.5  24.701%   8.498%   0.003%  12.402%   0.001%   0.139%
   29    9.2  1.5 -0.5   4.473%  13.111%   0.005%   0.001%  16.692%   0.028%
   30   10.2  1.5 -0.5   0.632%   1.830%  11.946%   0.002%  19.864%   0.035%
   31    1.2  1.5 -1.5   0.000%   0.000%   0.000%   0.000%   0.000%   0.000%
   32    2.2  1.5 -1.5   0.368%   1.089%   0.545%   0.003%   0.006%   0.000%
   33    3.2  1.5 -1.5   0.494%   0.165%   0.001%   8.101%   0.001%   0.772%
   34    4.2  1.5 -1.5   5.867%   2.032%   0.000%   0.401%   0.002%   1.237%
   35    5.2  1.5 -1.5   0.085%   0.245%   1.568%   0.000%   2.587%   0.005%
   36    6.2  1.5 -1.5   0.523%   1.512%   0.492%   0.000%   7.032%   0.012%
   37    7.2  1.5 -1.5   0.000%   0.000%   0.000%   0.000%   0.000%   0.000%
   38    8.2  1.5 -1.5   0.574%   1.723%   3.835%   0.000%  24.329%   0.036%
   39    9.2  1.5 -1.5  14.502%   5.007%   0.001%  14.273%   0.009%   8.139%
   40   10.2  1.5 -1.5   0.886%   0.304%   0.005%  33.769%   0.013%   6.957%
   41    1.2  0.5  0.5   0.063%   0.068%   0.036%   0.000%   0.001%   0.030%
   42    2.2  0.5  0.5   0.016%   0.000%   0.006%   0.065%   0.001%   0.108%
   43    3.2  0.5  0.5   0.050%   0.050%   0.031%   0.000%   0.004%   0.063%
   44    4.2  0.5  0.5   0.003%   0.021%   0.078%   0.002%   0.091%   0.004%
   45    5.2  0.5  0.5   0.008%   0.050%   0.109%   0.002%   0.023%   0.005%
   46    6.2  0.5  0.5   0.000%   0.000%   0.000%   0.000%   0.000%   0.000%
   47    7.2  0.5  0.5   0.000%   0.000%   0.000%   0.000%   0.000%   0.000%
   48    8.2  0.5  0.5   0.000%   0.000%   0.000%   0.000%   0.000%   0.000%
   49    1.2  0.5 -0.5   0.068%   0.063%   0.000%   0.036%   0.030%   0.001%
   50    2.2  0.5 -0.5   0.000%   0.016%   0.065%   0.006%   0.108%   0.001%
   51    3.2  0.5 -0.5   0.050%   0.050%   0.000%   0.031%   0.063%   0.004%
   52    4.2  0.5 -0.5   0.021%   0.003%   0.002%   0.078%   0.004%   0.091%
   53    5.2  0.5 -0.5   0.050%   0.008%   0.002%   0.109%   0.005%   0.023%
   54    6.2  0.5 -0.5   0.000%   0.000%   0.000%   0.000%   0.000%   0.000%
   55    7.2  0.5 -0.5   0.000%   0.000%   0.000%   0.000%   0.000%   0.000%
   56    8.2  0.5 -0.5   0.000%   0.000%   0.000%   0.000%   0.000%   0.000%


 Property matrices transformed in SO basis (not sym. adapted)
 ============================================================

 No matrix element <i|DMX|i> larger than 5E-7
 No matrix element <i|DMX|1> larger than 5E-7

 No matrix element <i|DMY|i> larger than 5E-7
 No matrix element <i|DMY|1> larger than 5E-7

 No matrix element <i|DMZ|i> larger than 5E-7
 No matrix element <i|DMZ|1> larger than 5E-7


 **********************************************************************************************************************************
 DATASETS  * FILE   NREC   LENGTH (MB)   RECORD NAMES
              1      21       94.20       500      610      700      900      950      970     1000      129      960     1100   
                                          VAR    BASINP    GEOM    SYMINP    ZMAT    AOBASIS   BASIS     P2S    ABASIS      S 
                                         1400     1410     1420     1200     1210     1080     1700     1600     1650     1380   
                                           T        V       ECP      H0       H01     AOSYM    OPER      SMH    MOLCAS    JKOP   
                                         1700(1)
                                         OPER   

              2       6     7002.62       700     1000      520     2140     5302     5102   
                                         GEOM     BASIS   MCVARS    MCSCF    MRCI     MRCI   

 PROGRAMS   *        TOTAL        CI        CI        CI     MULTI       INT
 CPU TIMES  *    190344.15 174336.06   7955.11   8027.22     14.61     10.68
 REAL TIME  *    192911.59 SEC
 DISK USED  *         6.93 GB (local),      195.44 GB (total)
 SF USED    *        38.68 GB
 GA USED    *         0.00 MB       (max)       0.00 MB       (current)
 **********************************************************************************************************************************

 CI/USERDEF energy=   -214.218739174399

              CI              CI           MULTI
   -214.33615020   -214.16698339   -213.50810943
 **********************************************************************************************************************************
 Molpro calculation terminated with 1 warning(s)
