
 Working directory              : /wrk/irikura/molpro.aiVzNMZi6D/
 Global scratch directory       : /wrk/irikura/molpro.aiVzNMZi6D/
 Wavefunction directory         : /home/irikura/wfu/
 Main file repository           : /wrk/irikura/molpro.aiVzNMZi6D/

 id        : nistki

 Nodes            nprocs
 pn125343.nist.gov   28
 GA implementation: MPI file
 GA implementation (serial work in mppx): MPI file

 Using customized tuning parameters: mindgm=1; mindgv=20; mindgc=4; mindgr=1; noblas=0; minvec=7
 default implementation of scratch files=sf  


 Variables initialized (1042), CPU time= 0.02 sec
 ***,Bi SO-CI
                                                                                 ! valence s2 inactive
 memory,1500,M;
 
 gprint,orbitals,civector;
 
 symmetry,xyz
 geometry={Bi};
 
 basis={
 ecp,bi,ECP60MDF;
 spdfghi,bi,aug-cc-pwCV5Z-PP;C; spdf,1,even,nprim=1,ratio=3.0;
 }
 
 PAR=2                                                                           ! parity even (1) or odd (2)
 NQ=10
 ND=8
 
 {multi
     closed,7,3
     occ,7,9
     wf,charge=0,sym=PAR,spin=3;state,NQ;
     wf,charge=0,sym=PAR,spin=1;state,ND;
     expec2,lxx,lyy,lzz;
 }
 table, energy, ll
 title, Energies and &lt;L**2&gt; values
 
 core,0,0
 
 {ci;wf,sym=PAR,spin=3;state,NQ; save,5302.2}
 if NQ.LT.2 then
 hlsdiag(1) = energd
 else
 hlsdiag = energd4
 endif
 
 {ci;wf,sym=PAR,spin=1;state,ND; save,5102.2}
 hlsdiag(NQ+1) = energd4
 
 table,hlsdiag
 
 {ci;hlsmat,ecp,5302.2,5102.2;print,vls=0,hls=0}                                 !compute and diagonalize SO matrix
 Commands initialized (847), CPU time= 0.02 sec, 718 directives.
 Default parameters read. Elapsed time= 0.18 sec

 Checking input...
 Passed
1


                                         ***  PROGRAM SYSTEM MOLPRO  ***
                                       Copyright, TTI GmbH Stuttgart, 2015
                                    Version 2024.1 linked Mon Jun 17 07:53:25 2024


 **********************************************************************************************************************************
 LABEL *   Bi SO-CI                                                                                                                                                      
  (64 PROC) 64 bit mpp version                                                           DATE: 24-Jan-25          TIME: 09:52:40  
 **********************************************************************************************************************************

 SHA1:             0134236b472f03f1f5189f93707d8671e415b05c
 **********************************************************************************************************************************

 Memory per process:      1500 MW
 Total memory per node:  42000 MW

 GA preallocation disabled
 GA check disabled

 Variable memory set to 1500.0 MW


 ZSYMEL=XYZ

 SETTING BASIS          =    USERDEF
 SETTING PAR            =         2.00000000                                  
 SETTING NQ             =        10.00000000                                  
 SETTING ND             =         8.00000000                                  


 Recomputing integrals since basis changed


 Using spherical harmonics

 Library entry Bi   ECP ECP60MDF                 selected for group  1
 Library entry BI     S AUG-CC-PWCV5Z-PP     selected for orbital group  1
 Even tempered Bi S diffuse               selected for group 1    nprim= 1    centre=  0.008    ratio= 3.000    dratio= 1.000
 Library entry BI     P AUG-CC-PWCV5Z-PP     selected for orbital group  1
 Even tempered Bi P diffuse               selected for group 1    nprim= 1    centre=  0.005    ratio= 3.000    dratio= 1.000
 Library entry BI     D AUG-CC-PWCV5Z-PP     selected for orbital group  1
 Even tempered Bi D diffuse               selected for group 1    nprim= 1    centre=  0.012    ratio= 3.000    dratio= 1.000
 Library entry BI     F AUG-CC-PWCV5Z-PP     selected for orbital group  1
 Even tempered Bi F diffuse               selected for group 1    nprim= 1    centre=  0.021    ratio= 3.000    dratio= 1.000
 Library entry BI     G AUG-CC-PWCV5Z-PP     selected for orbital group  1
 Library entry BI     H AUG-CC-PWCV5Z-PP     selected for orbital group  1
 Library entry BI     I AUG-CC-PWCV5Z-PP     selected for orbital group  1


 PROGRAM * SEWARD (Integral evaluation for generally contracted gaussian basis sets)     Author: Roland Lindh, 1990

 Geometry written to block  1 of record 700

 Orientation using atomic masses  
 Molecule type: Atom
 User-specified symmetry elements: XYZ
 Symmetry elements: XYZ
 Rotational constants:       0.0000000      0.0000000      0.0000000 GHz  (calculated with average atomic masses)

 Point group  Ci  



 ATOMIC COORDINATES

 NR  ATOM    CHARGE       X              Y              Z

   1  BI     23.00    0.000000000    0.000000000    0.000000000

 NUCLEAR CHARGE:                   23
 NUMBER OF PRIMITIVE AOS:         479
 NUMBER OF SYMMETRY AOS:          343
 NUMBER OF CONTRACTIONS:          281   (  135Ag  +  146Au  )
 NUMBER OF INNER CORE ORBITALS:     0   (    0Ag  +    0Au  )
 NUMBER OF OUTER CORE ORBITALS:     9   (    6Ag  +    3Au  )
 NUMBER OF VALENCE ORBITALS:        4   (    1Ag  +    3Au  )


 LX: Ag           LY: Ag           LZ: Ag 


 NUCLEAR REPULSION ENERGY    0.00000000

 EXTRA SYMMETRY OF AOS IN SYMMETRY 1:   1 1 1 1 1 1 1 1 1 1   1 1 1 2 3 4 5 6 2 3   4 5 6 2 3 4 5 6 2 3   4 5 6 2 3 4 5 6 2 3
                                        4 5 6 2 3 4 5 6 2 3   4 5 6 2 3 4 5 6 2 3   4 5 6 2 3 4 5 6 7 8   9101112131415 7 8 9
                                       101112131415 7 8 910  1112131415 7 8 91011  12131415 7 8 9101112  131415 7 8 910111213
                                       14151617181920212223  2425262728
 EXTRA SYMMETRY OF AOS IN SYMMETRY 2:   1 2 3 1 2 3 1 2 3 1   2 3 1 2 3 1 2 3 1 2   3 1 2 3 1 2 3 1 2 3   1 2 3 1 2 3 1 2 3 4
                                        5 6 7 8 910 4 5 6 7   8 910 4 5 6 7 8 910   4 5 6 7 8 910 4 5 6   7 8 910 4 5 6 7 8 9
                                       10 4 5 6 7 8 910 4 5   6 7 8 910 4 5 6 7 8   9101112131415161718  19202111121314151617
                                       18192021111213141516  17181920211112131415  161718192021


 Eigenvalues of metric

         1 0.100E-04 0.244E-04 0.244E-04 0.244E-04 0.244E-04 0.244E-04 0.357E-04 0.220E-03
         2 0.186E-05 0.186E-05 0.186E-05 0.295E-03 0.295E-03 0.295E-03 0.205E-02 0.205E-02


 Contracted 2-electron integrals neglected if value below      1.0D-12
 AO integral compression algorithm  1   Integral accuracy      1.0D-12

     697.827 MB (compressed) written to integral file ( 13.5%)

     Node minimum: 17.564 MB, node maximum: 36.438 MB


 NUMBER OF SORTED TWO-ELECTRON INTEGRALS:   14108412.     BUFFER LENGTH:  32768
 NUMBER OF SEGMENTS:   1  SEGMENT LENGTH:   14108412      RECORD LENGTH: 524288

 Memory used in sort:      14.67 MW

 SORT1 READ   646821870. AND WROTE     2419159. INTEGRALS IN      7 RECORDS. CPU TIME:     4.40 SEC, REAL TIME:     4.53 SEC
 SORT2 READ    68065344. AND WROTE   395255076. INTEGRALS IN   2128 RECORDS. CPU TIME:     0.24 SEC, REAL TIME:     0.30 SEC

 Node minimum:    14103376.  Node maximum:    14140936. integrals

 OPERATOR DM      FOR CENTER  0  COORDINATES:    0.000000    0.000000    0.000000


 **********************************************************************************************************************************
 DATASETS  * FILE   NREC   LENGTH (MB)   RECORD NAMES
              1      19       30.69       500      610      700      900      950      970     1000      129      960     1100   
                                          VAR    BASINP    GEOM    SYMINP    ZMAT    AOBASIS   BASIS     P2S    ABASIS      S 
                                         1400     1410     1420     1200     1210     1080     1700     1600     1650   
                                           T        V       ECP      H0       H01     AOSYM    OPER      SMH    MOLCAS    

 PROGRAMS   *        TOTAL       INT
 CPU TIMES  *         9.56      9.24
 REAL TIME  *        11.17 SEC
 DISK USED  *        31.11 MB (local),        2.22 GB (total)
 GA USED    *         0.00 MB       (max)       0.00 MB       (current)
 **********************************************************************************************************************************

 PROGRAM * MULTI (Direct Multiconfiguration SCF)       Authors: P.J. Knowles, H.-J. Werner (1984)
                                                                D.A. Kreplin, P.J. Knowles, H.-J. Werner (2019)

 Number of closed-shell orbitals:  10 (    7    3)
 Number of active  orbitals:        6 (    0    6)
 Number of external orbitals:     265 (  128  137)

 State symmetry 1

 Number of active electrons:   3    Spin symmetry=Quartet   Space symmetry=2
 Number of states:            10
 Number of CSFs:              20   (20 determinants, 20 intermediate states)

 State symmetry 2

 Number of active electrons:   3    Spin symmetry=Doublet   Space symmetry=2
 Number of states:             8
 Number of CSFs:              70   (90 determinants, 90 intermediate states)

 Orbital guess generated from atomic densities.
 *** IN SYMMETRY 1 ORBITAL  2 SYMMETRY CONTAMINATION OF 0.146D+00 HAS BEEN REMOVED
 *** IN SYMMETRY 1 ORBITAL  3 SYMMETRY CONTAMINATION OF 0.147D+00 HAS BEEN REMOVED
 *** IN SYMMETRY 1 ORBITAL  4 SYMMETRY CONTAMINATION OF 0.151D-02 HAS BEEN REMOVED
 *** IN SYMMETRY 1 ORBITAL  5 SYMMETRY CONTAMINATION OF 0.596D-02 HAS BEEN REMOVED
 *** IN SYMMETRY 1 ORBITAL  6 SYMMETRY CONTAMINATION OF 0.494D-02 HAS BEEN REMOVED

 EXTRA SYMMETRY OF MOS IN SYMMETRY 1:   1 2 5 3 4 6 1 1 5 3   2 4 6 1 4 6 3 5 2 1   4 6 3 5 212 8131014  15 7 911 4 6 5 3 2 1
                                        4 6 2 3 5 911 7 812  14151013 1 9 711 812  13101415 2 4 6 5 3 1   9 711 81214151310 2
                                        4 6 5 3252817272123  26241918202216 7 911   81214151310 1 2 5 4   3 6 9 711 812141513
                                       10 1 5 3 4 6 2 1 5 3   4 6 2 1 1
 *** IN SYMMETRY 2 ORBITAL  1 SYMMETRY CONTAMINATION OF 0.182D-03 HAS BEEN REMOVED
 *** IN SYMMETRY 2 ORBITAL  2 SYMMETRY CONTAMINATION OF 0.222D-03 HAS BEEN REMOVED
 *** IN SYMMETRY 2 ORBITAL  3 SYMMETRY CONTAMINATION OF 0.246D-03 HAS BEEN REMOVED
 *** IN SYMMETRY 2 ORBITAL  4 SYMMETRY CONTAMINATION OF 0.464D-03 HAS BEEN REMOVED
 *** IN SYMMETRY 2 ORBITAL  6 SYMMETRY CONTAMINATION OF 0.464D-03 HAS BEEN REMOVED
 *** IN SYMMETRY 2 ORBITAL  8 SYMMETRY CONTAMINATION OF 0.173D+00 HAS BEEN REMOVED
 *** IN SYMMETRY 2 ORBITAL  9 SYMMETRY CONTAMINATION OF 0.173D+00 HAS BEEN REMOVED
 EXTRA SYMMETRY OF MOS IN SYMMETRY 2:   2 1 3 3 1 2 1 2 3 1   2 3 4 5 6 9 7 810 1   2 3 7 910 8 4 5 6 1   2 3 6 810 7 9 4 5 6
                                        810 7 9 4 5 1 2 319  21171416151311121820  10 8 6 4 5 7 9191116  2114131215172018 1 2
                                        310 8 6 4 5 7 91911  12211314161517182010   8 4 6 5 7 9 3 1 210   4 8 6 5 7 919111221
                                       13141615172018 1 3 2   6 4 8 510 7 9 1 2 3   1 2 3 1 2 3

 Wavefunction dump at record             2140.2

 Convergence thresholds  0.10E-04 (gradient)  0.10E-05 (energy)

 Weight factors for state symmetry  1:    0.05556   0.05556   0.05556   0.05556   0.05556   0.05556   0.05556   0.05556
                                          0.05556   0.05556
 Weight factors for state symmetry  2:    0.05556   0.05556   0.05556   0.05556   0.05556   0.05556   0.05556   0.05556
 
 Number of orbital rotations:  2147  ( 18 closed/active, 1307 closed/virtual, 0 active/active, 822 active/virtual )
 Total number of variables:    3067
 
 Second-order MCSCF: L-BFGS accelerated
 
 ITER  MIC  NCI  NEG     ENERGY(VAR)    ENERGY(PROJ) ENERGY CHANGE       GRAD(0)  GRAD(ORB)   GRAD(CI)      STEP      TIME
   1    8   14    0   -213.41129739    -213.44157842   -0.03028103    0.12714361 0.00014103 0.00000000  0.14E+01      3.10
   2    7   12    0   -213.44068829    -213.44075261   -0.00006432    0.00714592 0.00000267 0.00000000  0.45E-01      6.21
   3    7   14    0   -213.44075269    -213.44075269   -0.00000000    0.00002179 0.00000001 0.00000000  0.11E-03      9.03
   4    2    4    0   -213.44075269    -213.44075269    0.00000000    0.00000000 0.00000001 0.00000000  0.65E-07     11.50

 CONVERGENCE REACHED!  Final gradient:    0.00000001 ( 0.88E-08)
                       Final energy:   -213.44075269
 
 Results for state 1.2 Quartet
 =============================
 !MCSCF STATE 1.2 Quartet Energy              -213.588533844866
 Nuclear energy                                  0.00000000
 Kinetic energy                                 69.17706009
 One electron energy                          -373.44309408
 Two electron energy                           159.85456023
 Virial ratio                                    4.08756304
 
 !MCSCF STATE 1.2 Quartet Dipole moment          0.00000000     0.00000000     0.00000000
 Dipole moment /Debye                            0.00000000     0.00000000     0.00000000
 
 Results for state 2.2 Quartet
 =============================
 !MCSCF STATE 2.2 Quartet Energy              -213.358666282331
 Nuclear energy                                  0.00000000
 Kinetic energy                                 68.59165782
 One electron energy                          -368.19729987
 Two electron energy                           154.83863358
 Virial ratio                                    4.11056290
 
 !MCSCF STATE 2.2 Quartet Dipole moment          0.00000000     0.00000000     0.00000000
 Dipole moment /Debye                            0.00000000     0.00000000     0.00000000
 
 Results for state 3.2 Quartet
 =============================
 !MCSCF STATE 3.2 Quartet Energy              -213.358666282221
 Nuclear energy                                  0.00000000
 Kinetic energy                                 68.59165782
 One electron energy                          -368.19729987
 Two electron energy                           154.83863359
 Virial ratio                                    4.11056290
 
 !MCSCF STATE 3.2 Quartet Dipole moment          0.00000000     0.00000000     0.00000000
 Dipole moment /Debye                            0.00000000     0.00000000     0.00000000
 
 Results for state 4.2 Quartet
 =============================
 !MCSCF STATE 4.2 Quartet Energy              -213.358666281909
 Nuclear energy                                  0.00000000
 Kinetic energy                                 68.59165782
 One electron energy                          -368.19729989
 Two electron energy                           154.83863360
 Virial ratio                                    4.11056290
 
 !MCSCF STATE 4.2 Quartet Dipole moment          0.00000000     0.00000000     0.00000000
 Dipole moment /Debye                            0.00000000     0.00000000     0.00000000
 
 Results for state 5.2 Quartet
 =============================
 !MCSCF STATE 5.2 Quartet Energy              -213.358666281360
 Nuclear energy                                  0.00000000
 Kinetic energy                                 68.59165782
 One electron energy                          -368.19729991
 Two electron energy                           154.83863363
 Virial ratio                                    4.11056290
 
 !MCSCF STATE 5.2 Quartet Dipole moment          0.00000000     0.00000000     0.00000000
 Dipole moment /Debye                            0.00000000     0.00000000     0.00000000
 
 Results for state 6.2 Quartet
 =============================
 !MCSCF STATE 6.2 Quartet Energy              -213.358666281325
 Nuclear energy                                  0.00000000
 Kinetic energy                                 68.59165782
 One electron energy                          -368.19729992
 Two electron energy                           154.83863363
 Virial ratio                                    4.11056290
 
 !MCSCF STATE 6.2 Quartet Dipole moment          0.00000000     0.00000000     0.00000000
 Dipole moment /Debye                            0.00000000     0.00000000     0.00000000
 
 Results for state 7.2 Quartet
 =============================
 !MCSCF STATE 7.2 Quartet Energy              -213.354723562842
 Nuclear energy                                  0.00000000
 Kinetic energy                                 68.67959025
 One electron energy                          -368.56909173
 Two electron energy                           155.21436817
 Virial ratio                                    4.10652295
 
 !MCSCF STATE 7.2 Quartet Dipole moment          0.00000000     0.00000000     0.00000000
 Dipole moment /Debye                            0.00000000     0.00000000     0.00000000
 
 Results for state 8.2 Quartet
 =============================
 !MCSCF STATE 8.2 Quartet Energy              -213.354200366337
 Nuclear energy                                  0.00000000
 Kinetic energy                                 68.59165782
 One electron energy                          -368.19729987
 Two electron energy                           154.84309951
 Virial ratio                                    4.11049779
 
 !MCSCF STATE 8.2 Quartet Dipole moment          0.00000000     0.00000000     0.00000000
 Dipole moment /Debye                            0.00000000     0.00000000     0.00000000
 
 Results for state 9.2 Quartet
 =============================
 !MCSCF STATE 9.2 Quartet Energy              -213.354200365935
 Nuclear energy                                  0.00000000
 Kinetic energy                                 68.59165782
 One electron energy                          -368.19729989
 Two electron energy                           154.84309952
 Virial ratio                                    4.11049779
 
 !MCSCF STATE 9.2 Quartet Dipole moment          0.00000000     0.00000000     0.00000000
 Dipole moment /Debye                            0.00000000     0.00000000     0.00000000
 
 Results for state 10.2 Quartet
 ==============================
 !MCSCF STATE 10.2 Quartet Energy             -213.354200365212
 Nuclear energy                                  0.00000000
 Kinetic energy                                 68.59165782
 One electron energy                          -368.19729991
 Two electron energy                           154.84309955
 Virial ratio                                    4.11049779
 
 !MCSCF STATE 10.2 Quartet Dipole moment         0.00000000     0.00000000     0.00000000
 Dipole moment /Debye                            0.00000000     0.00000000     0.00000000
 
 Results for state 1.2 Doublet
 =============================
 !MCSCF STATE 1.2 Doublet Energy              -213.530735525039
 Nuclear energy                                  0.00000000
 Kinetic energy                                 69.13178016
 One electron energy                          -373.22310593
 Two electron energy                           159.69237040
 Virial ratio                                    4.08874927
 
 !MCSCF STATE 1.2 Doublet Dipole moment          0.00000000     0.00000000     0.00000000
 Dipole moment /Debye                            0.00000000     0.00000000     0.00000000
 
 Results for state 2.2 Doublet
 =============================
 !MCSCF STATE 2.2 Doublet Energy              -213.530735525026
 Nuclear energy                                  0.00000000
 Kinetic energy                                 69.13178015
 One electron energy                          -373.22310593
 Two electron energy                           159.69237040
 Virial ratio                                    4.08874927
 
 !MCSCF STATE 2.2 Doublet Dipole moment          0.00000000     0.00000000     0.00000000
 Dipole moment /Debye                            0.00000000     0.00000000     0.00000000
 
 Results for state 3.2 Doublet
 =============================
 !MCSCF STATE 3.2 Doublet Energy              -213.530735524980
 Nuclear energy                                  0.00000000
 Kinetic energy                                 69.13178015
 One electron energy                          -373.22310592
 Two electron energy                           159.69237040
 Virial ratio                                    4.08874927
 
 !MCSCF STATE 3.2 Doublet Dipole moment          0.00000000     0.00000000     0.00000000
 Dipole moment /Debye                            0.00000000     0.00000000     0.00000000
 
 Results for state 4.2 Doublet
 =============================
 !MCSCF STATE 4.2 Doublet Energy              -213.530735524910
 Nuclear energy                                  0.00000000
 Kinetic energy                                 69.13178015
 One electron energy                          -373.22310591
 Two electron energy                           159.69237038
 Virial ratio                                    4.08874927
 
 !MCSCF STATE 4.2 Doublet Dipole moment          0.00000000     0.00000000     0.00000000
 Dipole moment /Debye                            0.00000000     0.00000000     0.00000000
 
 Results for state 5.2 Doublet
 =============================
 !MCSCF STATE 5.2 Doublet Energy              -213.530735524904
 Nuclear energy                                  0.00000000
 Kinetic energy                                 69.13178015
 One electron energy                          -373.22310591
 Two electron energy                           159.69237038
 Virial ratio                                    4.08874927
 
 !MCSCF STATE 5.2 Doublet Dipole moment          0.00000000     0.00000000     0.00000000
 Dipole moment /Debye                            0.00000000     0.00000000     0.00000000
 
 Results for state 6.2 Doublet
 =============================
 !MCSCF STATE 6.2 Doublet Energy              -213.493560275783
 Nuclear energy                                  0.00000000
 Kinetic energy                                 69.08508289
 One electron energy                          -372.97575134
 Two electron energy                           159.48219107
 Virial ratio                                    4.09029897
 
 !MCSCF STATE 6.2 Doublet Dipole moment          0.00000000     0.00000000     0.00000000
 Dipole moment /Debye                            0.00000000     0.00000000     0.00000000
 
 Results for state 7.2 Doublet
 =============================
 !MCSCF STATE 7.2 Doublet Energy              -213.493560275716
 Nuclear energy                                  0.00000000
 Kinetic energy                                 69.08508289
 One electron energy                          -372.97575133
 Two electron energy                           159.48219105
 Virial ratio                                    4.09029897
 
 !MCSCF STATE 7.2 Doublet Dipole moment          0.00000000     0.00000000     0.00000000
 Dipole moment /Debye                            0.00000000     0.00000000     0.00000000
 
 Results for state 8.2 Doublet
 =============================
 !MCSCF STATE 8.2 Doublet Energy              -213.493560275623
 Nuclear energy                                  0.00000000
 Kinetic energy                                 69.08508288
 One electron energy                          -372.97575130
 Two electron energy                           159.48219102
 Virial ratio                                    4.09029897
 
 !MCSCF STATE 8.2 Doublet Dipole moment          0.00000000     0.00000000     0.00000000
 Dipole moment /Debye                            0.00000000     0.00000000     0.00000000
 
 State-averaged charge density matrix saved on record 2140.2 (density set 1)
 
 No non-zero expectation values
 
 Expectation values for two-electron operators:
 
 ? Warning
 ? Transition properties are only calculated between states of the same symmetry
 ? The problem occurs in mu_properties_expec2

 !MCSCF expec      <1.2 Quartet|LXLX|1.2 Quartet>     0.000000000000
 !MCSCF expec      <2.2 Quartet|LXLX|2.2 Quartet>     2.312770961384
 !MCSCF expec      <3.2 Quartet|LXLX|3.2 Quartet>     0.999999999999
 !MCSCF expec      <4.2 Quartet|LXLX|4.2 Quartet>     3.999999999968
 !MCSCF expec      <5.2 Quartet|LXLX|5.2 Quartet>     1.000000000006
 !MCSCF expec      <6.2 Quartet|LXLX|6.2 Quartet>     1.687230673871
 !MCSCF expec      <7.2 Quartet|LXLX|7.2 Quartet>     0.000000000006
 !MCSCF expec      <8.2 Quartet|LXLX|8.2 Quartet>     0.999999999995
 !MCSCF expec      <9.2 Quartet|LXLX|9.2 Quartet>     0.000000000009
 !MCSCF expec    <10.2 Quartet|LXLX|10.2 Quartet>     0.999999999995
 !MCSCF expec      <1.2 Doublet|LXLX|1.2 Doublet>     2.242065832043
 !MCSCF expec      <2.2 Doublet|LXLX|2.2 Doublet>     1.000000002134
 !MCSCF expec      <3.2 Doublet|LXLX|3.2 Doublet>     3.999999996275
 !MCSCF expec      <4.2 Doublet|LXLX|4.2 Doublet>     1.000000000050
 !MCSCF expec      <5.2 Doublet|LXLX|5.2 Doublet>     1.757932293104
 !MCSCF expec      <6.2 Doublet|LXLX|6.2 Doublet>     1.000000000000
 !MCSCF expec      <7.2 Doublet|LXLX|7.2 Doublet>     0.000000000001
 !MCSCF expec      <8.2 Doublet|LXLX|8.2 Doublet>     0.999999999983
 
 !MCSCF expec      <1.2 Quartet|LYLY|1.2 Quartet>     0.000000000000
 !MCSCF expec      <2.2 Quartet|LYLY|2.2 Quartet>     0.132874695636
 !MCSCF expec      <3.2 Quartet|LYLY|3.2 Quartet>     0.999999999996
 !MCSCF expec      <4.2 Quartet|LYLY|4.2 Quartet>     0.999999999995
 !MCSCF expec      <5.2 Quartet|LYLY|5.2 Quartet>     3.999999999969
 !MCSCF expec      <6.2 Quartet|LYLY|6.2 Quartet>     3.867124710929
 !MCSCF expec      <7.2 Quartet|LYLY|7.2 Quartet>     0.000000000006
 !MCSCF expec      <8.2 Quartet|LYLY|8.2 Quartet>     0.999999999995
 !MCSCF expec      <9.2 Quartet|LYLY|9.2 Quartet>     0.999999999995
 !MCSCF expec    <10.2 Quartet|LYLY|10.2 Quartet>     0.000000000010
 !MCSCF expec      <1.2 Doublet|LYLY|1.2 Doublet>     0.159649457791
 !MCSCF expec      <2.2 Doublet|LYLY|2.2 Doublet>     1.000000000000
 !MCSCF expec      <3.2 Doublet|LYLY|3.2 Doublet>     1.000000000003
 !MCSCF expec      <4.2 Doublet|LYLY|4.2 Doublet>     3.999999999948
 !MCSCF expec      <5.2 Doublet|LYLY|5.2 Doublet>     3.840351281659
 !MCSCF expec      <6.2 Doublet|LYLY|6.2 Doublet>     0.999999999999
 !MCSCF expec      <7.2 Doublet|LYLY|7.2 Doublet>     1.000000000000
 !MCSCF expec      <8.2 Doublet|LYLY|8.2 Doublet>     0.000000000018
 
 !MCSCF expec      <1.2 Quartet|LZLZ|1.2 Quartet>     0.000000000000
 !MCSCF expec      <2.2 Quartet|LZLZ|2.2 Quartet>     3.554354342942
 !MCSCF expec      <3.2 Quartet|LZLZ|3.2 Quartet>     3.999999999968
 !MCSCF expec      <4.2 Quartet|LZLZ|4.2 Quartet>     0.999999999999
 !MCSCF expec      <5.2 Quartet|LZLZ|5.2 Quartet>     0.999999999988
 !MCSCF expec      <6.2 Quartet|LZLZ|6.2 Quartet>     0.445644615163
 !MCSCF expec      <7.2 Quartet|LZLZ|7.2 Quartet>     0.000000000006
 !MCSCF expec      <8.2 Quartet|LZLZ|8.2 Quartet>     0.000000000010
 !MCSCF expec      <9.2 Quartet|LZLZ|9.2 Quartet>     0.999999999995
 !MCSCF expec    <10.2 Quartet|LZLZ|10.2 Quartet>     0.999999999994
 !MCSCF expec      <1.2 Doublet|LZLZ|1.2 Doublet>     3.598284710164
 !MCSCF expec      <2.2 Doublet|LZLZ|2.2 Doublet>     3.999999997864
 !MCSCF expec      <3.2 Doublet|LZLZ|3.2 Doublet>     1.000000003720
 !MCSCF expec      <4.2 Doublet|LZLZ|4.2 Doublet>     1.000000000000
 !MCSCF expec      <5.2 Doublet|LZLZ|5.2 Doublet>     0.401716425234
 !MCSCF expec      <6.2 Doublet|LZLZ|6.2 Doublet>     0.000000000002
 !MCSCF expec      <7.2 Doublet|LZLZ|7.2 Doublet>     1.000000000000
 !MCSCF expec      <8.2 Doublet|LZLZ|8.2 Doublet>     1.000000000000
 
 !MCSCF expec      <1.2 Quartet|L**2|1.2 Quartet>     0.000000000001
 !MCSCF expec      <2.2 Quartet|L**2|2.2 Quartet>     5.999999999962
 !MCSCF expec      <3.2 Quartet|L**2|3.2 Quartet>     5.999999999963
 !MCSCF expec      <4.2 Quartet|L**2|4.2 Quartet>     5.999999999963
 !MCSCF expec      <5.2 Quartet|L**2|5.2 Quartet>     5.999999999963
 !MCSCF expec      <6.2 Quartet|L**2|6.2 Quartet>     5.999999999963
 !MCSCF expec      <7.2 Quartet|L**2|7.2 Quartet>     0.000000000017
 !MCSCF expec      <8.2 Quartet|L**2|8.2 Quartet>     2.000000000000
 !MCSCF expec      <9.2 Quartet|L**2|9.2 Quartet>     2.000000000000
 !MCSCF expec    <10.2 Quartet|L**2|10.2 Quartet>     2.000000000000
 !MCSCF expec      <1.2 Doublet|L**2|1.2 Doublet>     5.999999999998
 !MCSCF expec      <2.2 Doublet|L**2|2.2 Doublet>     5.999999999998
 !MCSCF expec      <3.2 Doublet|L**2|3.2 Doublet>     5.999999999998
 !MCSCF expec      <4.2 Doublet|L**2|4.2 Doublet>     5.999999999998
 !MCSCF expec      <5.2 Doublet|L**2|5.2 Doublet>     5.999999999998
 !MCSCF expec      <6.2 Doublet|L**2|6.2 Doublet>     2.000000000001
 !MCSCF expec      <7.2 Doublet|L**2|7.2 Doublet>     2.000000000001
 !MCSCF expec      <8.2 Doublet|L**2|8.2 Doublet>     2.000000000001
 
 EXTRA SYMMETRY OF MOS IN SYMMETRY 1:   1 6 3 5 2 4 1 1 3 5   4 2 6 1 4 3 5 2 6 1   3 5 6 4 211 7 81214  15 91310 6 4 2 3 5 1
                                        6 2 4 5 311 712 814  15 91013 111 7 81215  141310 9 6 2 5 3 4 1  11 7 81214151310 9 6
                                        2 5 3 4272517212326  2419201822162811 713  10 8121415 9 1 6 2 5   3 41113101514 812 7
                                        9 1 2 5 3 6 4 1 2 5   3 6 4 1 1
 EXTRA SYMMETRY OF MOS IN SYMMETRY 2:   2 3 1 1 2 3 3 2 1 3   1 2 4 7 9 810 6 5 3   1 2 9 7 810 5 4 6 3   1 2 5 610 8 9 7 4 5
                                        6 810 9 7 4 3 2 112  19211314161517111820   510 8 6 9 7 4121921  1314161517182011 2 3
                                        1 5 810 6 7 9 41219  211316141517201811 5   810 6 9 7 4 2 3 1 5   810 6 9 7 412182015
                                       17161421131911 2 3 1   5 810 7 9 6 4 2 3 1   2 1 3 1 2 3
 
  NATURAL ORBITALS (STATE AVERAGED)
  =================================

  Orbital  Occupation    Energy    Cen Mu Typ  Coefficients
    1.1     2.00000    -6.77913     1  1  s    1.00017
    2.1     2.00000    -1.40710     1  1  d1-  1.00149
    3.1     2.00000    -1.40710     1  1  d2-  1.00149
    4.1     2.00000    -1.40710     1  1  d2+  1.00149
    5.1     2.00000    -1.40710     1  1  d0   1.00149
    6.1     2.00000    -1.40710     1  1  d1+  1.00149
    7.1     2.00000    -0.75906     1  1  s   -0.42478    1  5  s    0.63649    1  6  s    0.46018
    1.2     2.00000    -4.35533     1  1  py   0.99979
    2.2     2.00000    -4.35533     1  1  pz   0.99979
    3.2     2.00000    -4.35533     1  1  px   0.99979
    4.2     0.83089    -0.18412     1  1  px  -0.27999    1  5  px   0.48714    1  6  px   0.36495
    5.2     0.83089    -0.18412     1  1  py  -0.27999    1  5  py   0.48714    1  6  py   0.36495
    6.2     0.83089    -0.18412     1  1  pz  -0.27999    1  5  pz   0.48714    1  6  pz   0.36495
    7.2     0.16911     0.02984     1 12  pz   0.83406
    8.2     0.16911     0.02984     1 12  py   0.83406
    9.2     0.16911     0.02984     1 12  px   0.83406
 
 Natural orbital dump (state averaged) at molpro section 2140.2 (Orbital set 2)
 
 Transform the CI vectors
 
 CI Coefficients of symmetry 2 (Quartet)
 =======================================

 State:              1               2               3               4               5               6               7
 aaa000         0.99985893     -0.00000000      0.00000000     -0.00000000     -0.00000000      0.00000000      0.00492874
 a0a0a0         0.00411406      0.80078582     -0.00000034      0.00000004     -0.00000087      0.14843748     -0.57164675
 aa0a00        -0.00411406      0.27184213     -0.00000006     -0.00000000     -0.00000298      0.76771933      0.57164718
 a0aa00        -0.00000000      0.00000003      0.00000066     -0.70531453     -0.00000019     -0.00000001     -0.00000000
 aa00a0        -0.00000000     -0.00000003     -0.00000066      0.70531442      0.00000019      0.00000001      0.00000000
 a0a00a         0.00000000      0.00000031      0.70531451      0.00000066     -0.00000045     -0.00000005     -0.00000000
 0aa0a0         0.00000000     -0.00000031     -0.70531444     -0.00000066      0.00000045      0.00000005     -0.00000000
 0aaa00        -0.00000000      0.00000028      0.00000045     -0.00000019      0.70531450      0.00000264      0.00000000
 aa000a        -0.00000000      0.00000028      0.00000045     -0.00000019      0.70531445      0.00000264     -0.00000000
 0aa00a        -0.00411405      0.52894323     -0.00000028      0.00000004      0.00000211     -0.61928213      0.57164702
 0a0a0a        -0.00875011     -0.05712441      0.00000002     -0.00000000      0.00000006     -0.01058883     -0.08087851
 a00aa0         0.00875011     -0.03773246      0.00000002     -0.00000000     -0.00000015      0.04417676      0.08087849
 00a0aa         0.00875011     -0.01939202      0.00000000      0.00000000      0.00000021     -0.05476564      0.08087848
 0a0aa0         0.00000000      0.00000002      0.05031395      0.00000005     -0.00000003     -0.00000000      0.00000000
 a00a0a         0.00000000     -0.00000002     -0.05031395     -0.00000005      0.00000003      0.00000000      0.00000000
 0a00aa        -0.00000000      0.00000000      0.00000005     -0.05031394     -0.00000001     -0.00000000     -0.00000000
 00aa0a        -0.00000000     -0.00000000     -0.00000005      0.05031395      0.00000001      0.00000000      0.00000000
 a000aa        -0.00000000     -0.00000002     -0.00000003      0.00000001     -0.05031394     -0.00000019     -0.00000000
 00aaa0         0.00000000     -0.00000002     -0.00000003      0.00000001     -0.05031394     -0.00000019     -0.00000000
 
 Energy:     -213.58853384   -213.35866628   -213.35866628   -213.35866628   -213.35866628   -213.35866628   -213.35472356

 State:              8               9              10
 aaa000         0.00000000     -0.00000000      0.00000000
 a0a0a0        -0.00000000     -0.00000000     -0.00000000
 aa0a00         0.00000000      0.00000000     -0.00000000
 a0aa00        -0.00000037      0.70531442      0.00000003
 aa00a0        -0.00000037      0.70531453      0.00000003
 a0a00a         0.70531444      0.00000037      0.00000044
 0aa0a0         0.70531451      0.00000037      0.00000044
 0aaa00         0.00000044      0.00000003     -0.70531445
 aa000a        -0.00000044     -0.00000003      0.70531450
 0aa00a         0.00000000     -0.00000000      0.00000000
 0a0a0a        -0.00000000      0.00000000     -0.00000000
 a00aa0         0.00000000      0.00000000      0.00000000
 00a0aa         0.00000000     -0.00000000      0.00000000
 0a0aa0        -0.05031395     -0.00000003     -0.00000003
 a00a0a        -0.05031395     -0.00000003     -0.00000003
 0a00aa         0.00000003     -0.05031395     -0.00000000
 00aa0a         0.00000003     -0.05031394     -0.00000000
 a000aa         0.00000003      0.00000000     -0.05031394
 00aaa0        -0.00000003     -0.00000000      0.05031394
 
 Energy:     -213.35420037   -213.35420037   -213.35420037
 
 
 CI Coefficients of symmetry 2 (Doublet)
 =======================================

 State:              1               2               3               4               5               6               7
 aba000         0.79854377      0.00000004     -0.00000005     -0.00000007     -0.16281598      0.00000000      0.00000000
 aab000        -0.25826911     -0.00000017      0.00000024      0.00000032      0.77296718     -0.00000000     -0.00000000
 a20000         0.00000000      0.00001882      0.70578744      0.00000069     -0.00000022      0.00000039      0.70169793
 02a000         0.00000001     -0.70578744      0.00001882      0.00000008     -0.00000015      0.70169794     -0.00000039
 2a0000         0.00000000      0.00000008     -0.00000069      0.70578743     -0.00000029     -0.00000073      0.00000024
 0a2000        -0.00000000     -0.00000008      0.00000069     -0.70578743      0.00000029     -0.00000073      0.00000024
 20a000        -0.00000001      0.70578742     -0.00001882     -0.00000008      0.00000015      0.70169795     -0.00000039
 a02000        -0.00000000     -0.00001882     -0.70578742     -0.00000069      0.00000022      0.00000039      0.70169795
 baa000        -0.54027466      0.00000013     -0.00000019     -0.00000025     -0.61015120      0.00000000      0.00000000
 a0ab00        -0.00000000     -0.00000084     -0.03167078     -0.00000003      0.00000001      0.00000004      0.06531434
 a0a00b         0.00000000     -0.03167078      0.00000084      0.00000000     -0.00000001     -0.06531434      0.00000004
 0aab00        -0.00000000     -0.00000000      0.00000003     -0.03167078      0.00000001     -0.00000007      0.00000002
 aa000b        -0.00000000     -0.00000000      0.00000003     -0.03167078      0.00000001      0.00000007     -0.00000002
 0aa0b0        -0.00000000      0.03167078     -0.00000084     -0.00000000      0.00000001     -0.06531433      0.00000004
 aa00b0         0.00000000      0.00000084      0.03167078      0.00000003     -0.00000001      0.00000004      0.06531433
 
 Energy:     -213.53073553   -213.53073553   -213.53073552   -213.53073552   -213.53073552   -213.49356028   -213.49356028

 State:              8
 aba000         0.00000000
 aab000         0.00000000
 a20000        -0.00000024
 02a000         0.00000073
 2a0000         0.70169794
 0a2000         0.70169795
 20a000         0.00000073
 a02000        -0.00000024
 baa000        -0.00000000
 a0ab00        -0.00000002
 a0a00b        -0.00000007
 0aab00         0.06531434
 aa000b        -0.06531434
 0aa0b0        -0.00000007
 aa00b0        -0.00000002
 
 Energy:     -213.49356028
 


 **********************************************************************************************************************************
 DATASETS  * FILE   NREC   LENGTH (MB)   RECORD NAMES
              1      21       94.20       500      610      700      900      950      970     1000      129      960     1100   
                                          VAR    BASINP    GEOM    SYMINP    ZMAT    AOBASIS   BASIS     P2S    ABASIS      S 
                                         1400     1410     1420     1200     1210     1080     1700     1600     1650     1380   
                                           T        V       ECP      H0       H01     AOSYM    OPER      SMH    MOLCAS    JKOP   
                                         1700(1)
                                         OPER   

              2       4        1.49       700     1000      520     2140   
                                         GEOM     BASIS   MCVARS    MCSCF   

 PROGRAMS   *        TOTAL     MULTI       INT
 CPU TIMES  *        21.36     11.79      9.24
 REAL TIME  *        25.35 SEC
 DISK USED  *        95.81 MB (local),        3.99 GB (total)
 SF USED    *       162.12 MB
 GA USED    *         0.00 MB       (max)       0.00 MB       (current)
 **********************************************************************************************************************************

 Energies and &lt;L**2&gt; values

         ENERGY     LL
    -213.5885338   0.0
    -213.3586663   6.0
    -213.3586663   6.0
    -213.3586663   6.0
    -213.3586663   6.0
    -213.3586663   6.0
    -213.3547236   0.0
    -213.3542004   2.0
    -213.3542004   2.0
    -213.3542004   2.0
    -213.5307355   6.0
    -213.5307355   6.0
    -213.5307355   6.0
    -213.5307355   6.0
    -213.5307355   6.0
    -213.4935603   2.0
    -213.4935603   2.0
    -213.4935603   2.0
                                                  


 PROGRAM * CI (Multireference internally contracted CI)     Authors: H.-J. Werner, P.J. Knowles, 1987


 Convergence thresholds:  THRVAR = 1.00D-08  THRDEN = 1.00D-06

 Number of optimized states: 10  Roots:   1   2   3   4   5   6   7   8   9  10
 Number of reference states: 10  Roots:   1   2   3   4   5   6   7   8   9  10

 Reference symmetry:                   2   Quartet 
 Number of electrons:                 23
 Maximum number of shells:             4
 Maximum number of spin couplings:    48

 Reference space:       20 conf       20 CSFs
 N elec internal:     7100 conf    19340 CSFs
 N-1 el internal:     4640 conf    22565 CSFs
 N-2 el internal:     1256 conf    14006 CSFs

 Number of electrons in valence space:                     23
 Maximum number of open shell orbitals in reference space:  3
 Maximum number of open shell orbitals in internal spaces:  9


 Number of closed-shell orbitals:  10 (   7   3 )
 Number of active  orbitals:        6 (   0   6 )
 Number of external orbitals:     265 ( 128 137 )

 Molecular orbitals read from record     2140.2  Type=MCSCF/NATURAL (state averaged)

 Valence orbitals related to previous ones by unitary transformation. Operators transformed.


 Number of p-space configurations:  10

 Reference wavefunction optimized for reference space (refopt=1)

 State     Reference Energy 
     1      -213.58853384
     2      -213.35866628
     3      -213.35866628
     4      -213.35866628
     5      -213.35866628
     6      -213.35866628
     7      -213.35472356
     8      -213.35420037
     9      -213.35420037
    10      -213.35420037

 Number of blocks in overlap matrix:  1085   Smallest eigenvalue:  0.40D-04
 Number of N-2 electron functions:    1306
 Number of N-1 electron functions:   22565

 Number of internal configurations:                10436
 Number of singly external configurations:       2999425
 Number of doubly external configurations:      22941849
 Total number of contracted configurations:     25951710
 Total number of uncontracted configurations:  248483850

 Diagonal Coupling coefficients finished.               Storage:   6094488 words, CPU-Time:      1.37 seconds.
 Energy denominators for pairs finished in 1 passes.    Storage:   3494151 words, CPU-time:      6.48 seconds.

  ITER. STATE  ROOT     SQ.NORM     CORR.ENERGY   TOTAL ENERGY   ENERGY CHANGE       DEN1      VAR(S)    VAR(P)      TIME
    1     1     1     1.00000000     0.00000000  -213.58853384     0.00000000    -1.00763525  0.45D-01  0.12D+00    10.94
    1     2     2     1.00000000     0.00000000  -213.35866628     0.00000000    -0.97007609  0.43D-01  0.11D+00    10.94
    1     3     3     1.00000000     0.00000000  -213.35866628    -0.00000000    -0.97061508  0.43D-01  0.11D+00    10.94
    1     4     4     1.00000000     0.00000000  -213.35866628    -0.00000000    -0.97076229  0.43D-01  0.11D+00    10.94
    1     5     5     1.00000000     0.00000000  -213.35866628     0.00000000    -0.97065474  0.43D-01  0.11D+00    10.94
    1     6     6     1.00000000     0.00000000  -213.35866628    -0.00000000    -0.97012306  0.43D-01  0.11D+00    10.94
    1     7     7     1.00000000     0.00000000  -213.35472356    -0.00000000    -0.97544222  0.46D-01  0.11D+00    10.94
    1     8     8     1.00000000     0.00000000  -213.35420037    -0.00000000    -0.97131236  0.43D-01  0.11D+00    10.94
    1     9     9     1.00000000     0.00000000  -213.35420037     0.00000000    -0.97140955  0.43D-01  0.11D+00    10.94
    1    10    10     1.00000000     0.00000000  -213.35420037     0.00000000    -0.97133430  0.43D-01  0.11D+00    10.94
    2     1     1     1.10545614    -0.79734984  -214.38588368    -0.79734984    -0.02778430  0.40D-02  0.23D-02   329.57
    2     2     2     1.10074180    -0.79027066  -214.14893694    -0.79027066    -0.02336025  0.29D-02  0.19D-02   329.57
    2     3     3     1.10089342    -0.79010205  -214.14876834    -0.79010205    -0.02354353  0.30D-02  0.19D-02   329.57
    2     4     4     1.10083820    -0.79010012  -214.14876640    -0.79010012    -0.02356160  0.29D-02  0.19D-02   329.57
    2     5     5     1.10086311    -0.79006557  -214.14873185    -0.79006557    -0.02359769  0.29D-02  0.19D-02   329.57
    2     6     6     1.10092427    -0.78999192  -214.14865820    -0.78999192    -0.02368167  0.30D-02  0.19D-02   329.57
    2     7     7     1.10114858    -0.78977474  -214.14449830    -0.78977474    -0.02370742  0.29D-02  0.20D-02   329.57
    2     8     8     1.10117497    -0.79026370  -214.14446407    -0.79026370    -0.02374695  0.30D-02  0.19D-02   329.57
    2     9     9     1.10120473    -0.79021765  -214.14441801    -0.79021765    -0.02379741  0.30D-02  0.19D-02   329.57
    2    10    10     1.10241270    -0.79019503  -214.14439540    -0.79019503    -0.02517867  0.40D-02  0.19D-02   329.57
    3     1     1     1.08987359    -0.82365411  -214.41218796    -0.02630427    -0.00031475  0.49D-04  0.29D-04   648.99
    3     2     2     1.08792505    -0.81237316  -214.17103944    -0.02210249    -0.00025498  0.33D-04  0.24D-04   648.99
    3     3     3     1.08792960    -0.81237077  -214.17103705    -0.02226872    -0.00025747  0.33D-04  0.25D-04   648.99
    3     4     4     1.08791882    -0.81237041  -214.17103669    -0.02227029    -0.00025782  0.33D-04  0.24D-04   648.99
    3     5     5     1.08792897    -0.81237009  -214.17103637    -0.02230452    -0.00025815  0.33D-04  0.25D-04   648.99
    3     6     6     1.08792745    -0.81236883  -214.17103512    -0.02237691    -0.00025947  0.33D-04  0.25D-04   648.99
    3     7     7     1.08797743    -0.81343308  -214.16815665    -0.02365834    -0.00030428  0.43D-04  0.29D-04   648.99
    3     8     8     1.08808158    -0.81270331  -214.16690367    -0.02243961    -0.00025634  0.30D-04  0.26D-04   648.99
    3     9     9     1.08808061    -0.81270276  -214.16690313    -0.02248512    -0.00025688  0.30D-04  0.26D-04   648.99
    3    10    10     1.08807996    -0.81270189  -214.16690226    -0.02250686    -0.00025779  0.30D-04  0.26D-04   648.99
    4     1     1     1.08947436    -0.82398303  -214.41251688    -0.00032892    -0.00000686  0.10D-05  0.67D-06   969.38
    4     2     2     1.08771043    -0.81263538  -214.17130166    -0.00026222    -0.00000644  0.11D-05  0.51D-06   969.38
    4     3     3     1.08770907    -0.81263534  -214.17130162    -0.00026457    -0.00000648  0.11D-05  0.52D-06   969.38
    4     4     4     1.08771052    -0.81263533  -214.17130162    -0.00026492    -0.00000645  0.11D-05  0.51D-06   969.38
    4     5     5     1.08771038    -0.81263533  -214.17130161    -0.00026524    -0.00000645  0.11D-05  0.52D-06   969.38
    4     6     6     1.08770991    -0.81263530  -214.17130159    -0.00026647    -0.00000648  0.11D-05  0.52D-06   969.38
    4     7     7     1.08771768    -0.81374633  -214.16846989    -0.00031325    -0.00000856  0.18D-05  0.70D-06   969.38
    4     8     8     1.08787441    -0.81296637  -214.16716674    -0.00026306    -0.00000627  0.11D-05  0.51D-06   969.38
    4     9     9     1.08787432    -0.81296636  -214.16716673    -0.00026359    -0.00000628  0.11D-05  0.51D-06   969.38
    4    10    10     1.08787412    -0.81296634  -214.16716671    -0.00026445    -0.00000630  0.11D-05  0.51D-06   969.38
    5     1     1     1.08953683    -0.82399032  -214.41252416    -0.00000728    -0.00000016  0.16D-07  0.17D-07  1290.22
    5     2     2     1.08774039    -0.81264215  -214.17130843    -0.00000677    -0.00000020  0.28D-07  0.19D-07  1290.22
    5     3     3     1.08774018    -0.81264215  -214.17130843    -0.00000681    -0.00000021  0.28D-07  0.19D-07  1290.22
    5     4     4     1.08774030    -0.81264211  -214.17130839    -0.00000678    -0.00000021  0.28D-07  0.19D-07  1290.22
    5     5     5     1.08774026    -0.81264211  -214.17130839    -0.00000679    -0.00000021  0.28D-07  0.19D-07  1290.22
    5     6     6     1.08774019    -0.81264211  -214.17130839    -0.00000681    -0.00000021  0.28D-07  0.20D-07  1290.22
    5     7     7     1.08774158    -0.81375523  -214.16847879    -0.00000889    -0.00000029  0.45D-07  0.27D-07  1290.22
    5     8     8     1.08790633    -0.81297300  -214.16717336    -0.00000662    -0.00000020  0.28D-07  0.19D-07  1290.22
    5     9     9     1.08790632    -0.81297299  -214.16717336    -0.00000664    -0.00000020  0.28D-07  0.19D-07  1290.22
    5    10    10     1.08790630    -0.81297300  -214.16717336    -0.00000665    -0.00000020  0.28D-07  0.19D-07  1290.22
    6     1     1     1.08954061    -0.82399049  -214.41252433    -0.00000017    -0.00000000  0.45D-09  0.45D-09  1611.51
    6     2     2     1.08775242    -0.81264237  -214.17130865    -0.00000021    -0.00000001  0.66D-09  0.69D-09  1611.51
    6     3     3     1.08775241    -0.81264237  -214.17130865    -0.00000022    -0.00000001  0.66D-09  0.68D-09  1611.51
    6     4     4     1.08775235    -0.81264233  -214.17130861    -0.00000022    -0.00000001  0.66D-09  0.70D-09  1611.51
    6     5     5     1.08775232    -0.81264233  -214.17130861    -0.00000022    -0.00000001  0.66D-09  0.70D-09  1611.51
    6     6     6     1.08775234    -0.81264233  -214.17130861    -0.00000022    -0.00000001  0.66D-09  0.70D-09  1611.51
    6     7     7     1.08775071    -0.81375552  -214.16847909    -0.00000030    -0.00000001  0.94D-09  0.11D-08  1611.51
    6     8     8     1.08791911    -0.81297321  -214.16717357    -0.00000021    -0.00000001  0.70D-09  0.69D-09  1611.51
    6     9     9     1.08791910    -0.81297321  -214.16717357    -0.00000021    -0.00000001  0.70D-09  0.69D-09  1611.51
    6    10    10     1.08791911    -0.81297321  -214.16717357    -0.00000021    -0.00000001  0.70D-09  0.69D-09  1611.51


 =====================================
 Analysis of CPU times by interactions
 =====================================

       I      S      P

 I   0.3%
 S   0.4%   5.4%
 P   0.5%  17.2%  17.0%

 Initialization:   0.5%
 Other:           58.7%

 Total CPU:     1611.5 seconds
 =====================================



 Wavefunction saved on  5302.2

 Reference coefficients greater than 0.0500000
 =============================================
 2222222222///000           0.9573364  -0.0000000   0.0000000  -0.0000000   0.0000000   0.0000000  -0.0296531   0.0000000
                           -0.0000000   0.0000000
 2222222222/0/0/0           0.0180764   0.7634588   0.1599423  -0.0000000  -0.0000000   0.0000000   0.5469189   0.0000000
                            0.0000000  -0.0000000
 2222222222//0/00          -0.0180764   0.2432152   0.7411457   0.0000000   0.0000000  -0.0000000  -0.5469193   0.0000000
                           -0.0000000   0.0000000
 2222222222/0//00           0.0000000  -0.0000000   0.0000000  -0.0000000   0.6755281  -0.0000000   0.0000000   0.0000000
                            0.6754649   0.0000000
 2222222222/0/00/          -0.0000000  -0.0000000  -0.0000000   0.6755280   0.0000000   0.0000000   0.0000000   0.6754649
                           -0.0000000   0.0000000
 22222222220///00          -0.0000000  -0.0000000  -0.0000000  -0.0000000   0.0000000   0.6755280  -0.0000000  -0.0000000
                           -0.0000000   0.6754649
 2222222222//000/          -0.0000000  -0.0000000   0.0000000  -0.0000000   0.0000000   0.6755280  -0.0000000  -0.0000000
                           -0.0000000  -0.6754650
 22222222220//0/0          -0.0000000  -0.0000000   0.0000000  -0.6755280  -0.0000000  -0.0000000   0.0000000   0.6754650
                           -0.0000000  -0.0000000
 2222222222//00/0           0.0000000  -0.0000000  -0.0000000   0.0000000  -0.6755279   0.0000000  -0.0000000   0.0000000
                            0.6754650  -0.0000000
 22222222220//00/          -0.0180764   0.5202433  -0.5812036  -0.0000000   0.0000000  -0.0000000  -0.5469191   0.0000000
                           -0.0000000   0.0000000
 22222222220/0/0/          -0.0064424  -0.0564665  -0.0118295   0.0000000  -0.0000000   0.0000000   0.0807034  -0.0000000
                            0.0000000  -0.0000000
 2222222222/00//0           0.0064424  -0.0384780   0.0429866   0.0000000   0.0000000  -0.0000000  -0.0807034   0.0000000
                            0.0000000   0.0000000
 222222222200/0//           0.0064424  -0.0179886  -0.0548162  -0.0000000   0.0000000  -0.0000000  -0.0807034   0.0000000
                            0.0000000   0.0000000

 Coefficients of fixed reference functions:
 ==========================================

 State      Coefficients
 1           0.957595   -0.000000    0.000000   -0.000000   -0.000000    0.000000    0.024715   -0.000000    0.000000   -0.000000
 2          -0.000000    0.957688    0.000000   -0.000000   -0.000000   -0.022254   -0.000000   -0.000000   -0.000000   -0.000000
 3           0.000000    0.022254   -0.000000    0.000000   -0.000000    0.957688   -0.000000   -0.000000    0.000000   -0.000000
 4          -0.000000   -0.000000    0.957947   -0.000000   -0.000000    0.000000   -0.000000    0.000000    0.000000   -0.000000
 5           0.000000    0.000000    0.000000    0.957947    0.000000   -0.000000   -0.000000    0.000000    0.000000   -0.000000
 6           0.000000    0.000000    0.000000   -0.000000    0.957947    0.000000    0.000000    0.000000    0.000000    0.000000
 7          -0.025022    0.000000    0.000000    0.000000   -0.000000    0.000000    0.957674    0.000000   -0.000000    0.000000
 8           0.000000    0.000000    0.000000   -0.000000   -0.000000    0.000000   -0.000000    0.957858    0.000000   -0.000000
 9          -0.000000    0.000000   -0.000000   -0.000000   -0.000000   -0.000000    0.000000   -0.000000    0.957858    0.000000
 10          0.000000    0.000000    0.000000    0.000000   -0.000000    0.000000   -0.000000   -0.000000   -0.000000    0.957858

 Coefficients of rotated reference functions:
 ============================================

 State      Coefficients
 1           0.957914   -0.000000    0.000000   -0.000000    0.000000   -0.000000   -0.000153    0.000000   -0.000000   -0.000000
 2          -0.000000    0.957947    0.000000    0.000000   -0.000000   -0.000000    0.000000    0.000000   -0.000000    0.000000
 3           0.000000    0.000000    0.957947   -0.000000    0.000000    0.000000   -0.000000   -0.000000    0.000000   -0.000000
 4          -0.000000    0.000000   -0.000000    0.957947    0.000000    0.000000    0.000000    0.000000   -0.000000    0.000000
 5           0.000000   -0.000000    0.000000    0.000000    0.957947    0.000000    0.000000    0.000000   -0.000000   -0.000000
 6          -0.000000   -0.000000    0.000000    0.000000    0.000000    0.957947    0.000000   -0.000000    0.000000   -0.000000
 7          -0.000153    0.000000   -0.000000    0.000000    0.000000    0.000000    0.958001    0.000000    0.000000   -0.000000
 8           0.000000    0.000000   -0.000000    0.000000    0.000000   -0.000000    0.000000    0.957858   -0.000000   -0.000000
 9          -0.000000   -0.000000    0.000000   -0.000000   -0.000000    0.000000    0.000000   -0.000000    0.957858   -0.000000
 10         -0.000000    0.000000   -0.000000    0.000000   -0.000000   -0.000000   -0.000000   -0.000000   -0.000000    0.957858


 RESULTS FOR STATE 1.2
 =====================

 Coefficient of reference function:   C(0) = 0.95759497 (fixed)   0.95791385 (relaxed)   0.95791383 (rotated)

 Energy contributions of configuration classes

 CLASS          SQ.NORM        ECORR1        ECORR2
 +++++++++++++++++++++++++++++++++++++++++++++++++++
 Internals    0.00023878   -0.00066656   -0.70696848
 Singles      0.01387076   -0.05373245   -0.05979586
 Pairs        0.07569123    0.00000000   -0.05722615
 Total        1.08980077   -0.05439900   -0.82399049
 +++++++++++++++++++++++++++++++++++++++++++++++++++


 Reference energy                    -213.58837628
 Nuclear energy                         0.00000000
 Kinetic energy                        69.59562348
 One electron energy                 -372.77689714
 Two electron energy                  158.36437281
 Virial quotient                       -3.08083344
 Correlation energy                    -0.82414806
 !MRCI STATE 1.2 Energy              -214.412524334357

 Properties without orbital relaxation:

 !MRCI STATE 1.2 Dipole moment          0.00000000     0.00000000     0.00000000
 Dipole moment /Debye                   0.00000000     0.00000000     0.00000000

 Cluster corrected energies          -214.48653346 (Davidson, fixed reference)
 Cluster corrected energies          -214.48653343 (Davidson, relaxed reference)
 Cluster corrected energies          -214.48653346 (Davidson, rotated reference)

 Cluster corrected energies          -214.48422775 (Pople, fixed reference)
 Cluster corrected energies          -214.48422771 (Pople, relaxed reference)
 Cluster corrected energies          -214.48422775 (Pople, rotated reference)



 RESULTS FOR STATE 2.2
 =====================

 Coefficient of reference function:   C(0) = 0.95768849 (fixed)   0.95795027 (relaxed)   0.95794700 (rotated)

 Energy contributions of configuration classes

 CLASS          SQ.NORM        ECORR1        ECORR2
 +++++++++++++++++++++++++++++++++++++++++++++++++++
 Internals    0.00181372   -0.00422487   -0.68943982
 Singles      0.01706594   -0.06281626   -0.07037375
 Pairs        0.07084563    0.00000000   -0.05282880
 Total        1.08972530   -0.06704114   -0.81264237
 +++++++++++++++++++++++++++++++++++++++++++++++++++


 Reference energy                    -213.35866628
 Nuclear energy                         0.00000000
 Kinetic energy                        69.27486223
 One electron energy                 -368.07217416
 Two electron energy                  153.90086551
 Virial quotient                       -3.09161652
 Correlation energy                    -0.81264237
 !MRCI STATE 2.2 Energy              -214.171308648476

 Properties without orbital relaxation:

 !MRCI STATE 2.2 Dipole moment          0.00000000     0.00000000     0.00000000
 Dipole moment /Debye                   0.00000000     0.00000000     0.00000000

 Cluster corrected energies          -214.24422323 (Davidson, fixed reference)
 Cluster corrected energies          -214.24421718 (Davidson, relaxed reference)
 Cluster corrected energies          -214.24422323 (Davidson, rotated reference)

 Cluster corrected energies          -214.24194712 (Pople, fixed reference)
 Cluster corrected energies          -214.24194083 (Pople, relaxed reference)
 Cluster corrected energies          -214.24194712 (Pople, rotated reference)



 RESULTS FOR STATE 3.2
 =====================

 Maximum overlap with reference state  6

 Coefficient of reference function:   C(0) = 0.95768849 (fixed)   0.95795027 (relaxed)   0.95794701 (rotated)

 Energy contributions of configuration classes

 CLASS          SQ.NORM        ECORR1        ECORR2
 +++++++++++++++++++++++++++++++++++++++++++++++++++
 Internals    0.00181372   -0.00422487   -0.68943983
 Singles      0.01706593   -0.06281625   -0.07037373
 Pairs        0.07084564    0.00000000   -0.05282880
 Total        1.08972530   -0.06704112   -0.81264237
 +++++++++++++++++++++++++++++++++++++++++++++++++++


 Reference energy                    -213.35866628
 Nuclear energy                         0.00000000
 Kinetic energy                        69.27486326
 One electron energy                 -368.07217508
 Two electron energy                  153.90086643
 Virial quotient                       -3.09161648
 Correlation energy                    -0.81264237
 !MRCI STATE 3.2 Energy              -214.171308647922

 Properties without orbital relaxation:

 !MRCI STATE 3.2 Dipole moment          0.00000000     0.00000000     0.00000000
 Dipole moment /Debye                   0.00000000     0.00000000     0.00000000

 Cluster corrected energies          -214.24422322 (Davidson, fixed reference)
 Cluster corrected energies          -214.24421718 (Davidson, relaxed reference)
 Cluster corrected energies          -214.24422322 (Davidson, rotated reference)

 Cluster corrected energies          -214.24194712 (Pople, fixed reference)
 Cluster corrected energies          -214.24194082 (Pople, relaxed reference)
 Cluster corrected energies          -214.24194712 (Pople, rotated reference)



 RESULTS FOR STATE 4.2
 =====================

 Maximum overlap with reference state  3

 Coefficient of reference function:   C(0) = 0.95794703 (fixed)   0.95795030 (relaxed)   0.95794703 (rotated)

 Energy contributions of configuration classes

 CLASS          SQ.NORM        ECORR1        ECORR2
 +++++++++++++++++++++++++++++++++++++++++++++++++++
 Internals    0.00181373   -0.00422488   -0.68943975
 Singles      0.01706593   -0.06281635   -0.07037372
 Pairs        0.07084557   -0.00000000   -0.05282886
 Total        1.08972523   -0.06704123   -0.81264233
 +++++++++++++++++++++++++++++++++++++++++++++++++++


 Reference energy                    -213.35866628
 Nuclear energy                         0.00000000
 Kinetic energy                        69.27486095
 One electron energy                 -368.07217404
 Two electron energy                  153.90086543
 Virial quotient                       -3.09161658
 Correlation energy                    -0.81264233
 !MRCI STATE 4.2 Energy              -214.171308609135

 Properties without orbital relaxation:

 !MRCI STATE 4.2 Dipole moment          0.00000000     0.00000000     0.00000000
 Dipole moment /Debye                   0.00000000     0.00000000     0.00000000

 Cluster corrected energies          -214.24422313 (Davidson, fixed reference)
 Cluster corrected energies          -214.24421709 (Davidson, relaxed reference)
 Cluster corrected energies          -214.24422313 (Davidson, rotated reference)

 Cluster corrected energies          -214.24194703 (Pople, fixed reference)
 Cluster corrected energies          -214.24194073 (Pople, relaxed reference)
 Cluster corrected energies          -214.24194703 (Pople, rotated reference)



 RESULTS FOR STATE 5.2
 =====================

 Maximum overlap with reference state  4

 Coefficient of reference function:   C(0) = 0.95794704 (fixed)   0.95795031 (relaxed)   0.95794704 (rotated)

 Energy contributions of configuration classes

 CLASS          SQ.NORM        ECORR1        ECORR2
 +++++++++++++++++++++++++++++++++++++++++++++++++++
 Internals    0.00181373   -0.00422488   -0.68943981
 Singles      0.01706588   -0.06281630   -0.07037368
 Pairs        0.07084559    0.00000000   -0.05282883
 Total        1.08972521   -0.06704118   -0.81264233
 +++++++++++++++++++++++++++++++++++++++++++++++++++


 Reference energy                    -213.35866628
 Nuclear energy                         0.00000000
 Kinetic energy                        69.27486098
 One electron energy                 -368.07217356
 Two electron energy                  153.90086496
 Virial quotient                       -3.09161658
 Correlation energy                    -0.81264233
 !MRCI STATE 5.2 Energy              -214.171308608945

 Properties without orbital relaxation:

 !MRCI STATE 5.2 Dipole moment          0.00000000     0.00000000     0.00000000
 Dipole moment /Debye                   0.00000000     0.00000000     0.00000000

 Cluster corrected energies          -214.24422311 (Davidson, fixed reference)
 Cluster corrected energies          -214.24421707 (Davidson, relaxed reference)
 Cluster corrected energies          -214.24422311 (Davidson, rotated reference)

 Cluster corrected energies          -214.24194700 (Pople, fixed reference)
 Cluster corrected energies          -214.24194071 (Pople, relaxed reference)
 Cluster corrected energies          -214.24194700 (Pople, rotated reference)



 RESULTS FOR STATE 6.2
 =====================

 Maximum overlap with reference state  5

 Coefficient of reference function:   C(0) = 0.95794704 (fixed)   0.95795030 (relaxed)   0.95794704 (rotated)

 Energy contributions of configuration classes

 CLASS          SQ.NORM        ECORR1        ECORR2
 +++++++++++++++++++++++++++++++++++++++++++++++++++
 Internals    0.00181373   -0.00422488   -0.68943983
 Singles      0.01706591   -0.06281633   -0.07037370
 Pairs        0.07084558    0.00000006   -0.05282879
 Total        1.08972523   -0.06704115   -0.81264233
 +++++++++++++++++++++++++++++++++++++++++++++++++++


 Reference energy                    -213.35866628
 Nuclear energy                         0.00000000
 Kinetic energy                        69.27486136
 One electron energy                 -368.07217429
 Two electron energy                  153.90086568
 Virial quotient                       -3.09161656
 Correlation energy                    -0.81264233
 !MRCI STATE 6.2 Energy              -214.171308608657

 Properties without orbital relaxation:

 !MRCI STATE 6.2 Dipole moment          0.00000000     0.00000000     0.00000000
 Dipole moment /Debye                   0.00000000     0.00000000     0.00000000

 Cluster corrected energies          -214.24422312 (Davidson, fixed reference)
 Cluster corrected energies          -214.24421708 (Davidson, relaxed reference)
 Cluster corrected energies          -214.24422312 (Davidson, rotated reference)

 Cluster corrected energies          -214.24194702 (Pople, fixed reference)
 Cluster corrected energies          -214.24194072 (Pople, relaxed reference)
 Cluster corrected energies          -214.24194702 (Pople, rotated reference)



 RESULTS FOR STATE 7.2
 =====================

 Coefficient of reference function:   C(0) = 0.95767368 (fixed)   0.95801528 (relaxed)   0.95800050 (rotated)

 Energy contributions of configuration classes

 CLASS          SQ.NORM        ECORR1        ECORR2
 +++++++++++++++++++++++++++++++++++++++++++++++++++
 Internals    0.00170341   -0.00395312   -0.69090765
 Singles      0.01683892   -0.06232623   -0.06978026
 Pairs        0.07106127   -0.00000000   -0.05306761
 Total        1.08960360   -0.06627934   -0.81375552
 +++++++++++++++++++++++++++++++++++++++++++++++++++


 Reference energy                    -213.35488113
 Nuclear energy                         0.00000000
 Kinetic energy                        69.31014520
 One electron energy                 -368.25428380
 Two electron energy                  154.08580472
 Virial quotient                       -3.09000188
 Correlation energy                    -0.81359796
 !MRCI STATE 7.2 Energy              -214.168479085322

 Properties without orbital relaxation:

 !MRCI STATE 7.2 Dipole moment          0.00000000     0.00000000     0.00000000
 Dipole moment /Debye                   0.00000000     0.00000000     0.00000000

 Cluster corrected energies          -214.24138039 (Davidson, fixed reference)
 Cluster corrected energies          -214.24135304 (Davidson, relaxed reference)
 Cluster corrected energies          -214.24138039 (Davidson, rotated reference)

 Cluster corrected energies          -214.23909746 (Pople, fixed reference)
 Cluster corrected energies          -214.23906897 (Pople, relaxed reference)
 Cluster corrected energies          -214.23909746 (Pople, rotated reference)



 RESULTS FOR STATE 8.2
 =====================

 Coefficient of reference function:   C(0) = 0.95785760 (fixed)   0.95786087 (relaxed)   0.95785760 (rotated)

 Energy contributions of configuration classes

 CLASS          SQ.NORM        ECORR1        ECORR2
 +++++++++++++++++++++++++++++++++++++++++++++++++++
 Internals    0.00184721   -0.00426133   -0.68961232
 Singles      0.01707239   -0.06284666   -0.07039815
 Pairs        0.07100913   -0.00000000   -0.05296275
 Total        1.08992873   -0.06710799   -0.81297321
 +++++++++++++++++++++++++++++++++++++++++++++++++++


 Reference energy                    -213.35420037
 Nuclear energy                         0.00000000
 Kinetic energy                        69.27538731
 One electron energy                 -368.06979347
 Two electron energy                  153.90261990
 Virial quotient                       -3.09153340
 Correlation energy                    -0.81297321
 !MRCI STATE 8.2 Energy              -214.167173573924

 Properties without orbital relaxation:

 !MRCI STATE 8.2 Dipole moment          0.00000000     0.00000000     0.00000000
 Dipole moment /Debye                   0.00000000     0.00000000     0.00000000

 Cluster corrected energies          -214.24028322 (Davidson, fixed reference)
 Cluster corrected energies          -214.24027718 (Davidson, relaxed reference)
 Cluster corrected energies          -214.24028322 (Davidson, rotated reference)

 Cluster corrected energies          -214.23801316 (Pople, fixed reference)
 Cluster corrected energies          -214.23800686 (Pople, relaxed reference)
 Cluster corrected energies          -214.23801316 (Pople, rotated reference)



 RESULTS FOR STATE 9.2
 =====================

 Coefficient of reference function:   C(0) = 0.95785760 (fixed)   0.95786087 (relaxed)   0.95785760 (rotated)

 Energy contributions of configuration classes

 CLASS          SQ.NORM        ECORR1        ECORR2
 +++++++++++++++++++++++++++++++++++++++++++++++++++
 Internals    0.00184722   -0.00426133   -0.68961237
 Singles      0.01707236   -0.06284662   -0.07039811
 Pairs        0.07100915   -0.00000000   -0.05296273
 Total        1.08992872   -0.06710795   -0.81297321
 +++++++++++++++++++++++++++++++++++++++++++++++++++


 Reference energy                    -213.35420037
 Nuclear energy                         0.00000000
 Kinetic energy                        69.27538716
 One electron energy                 -368.06979275
 Two electron energy                  153.90261918
 Virial quotient                       -3.09153341
 Correlation energy                    -0.81297321
 !MRCI STATE 9.2 Energy              -214.167173573642

 Properties without orbital relaxation:

 !MRCI STATE 9.2 Dipole moment          0.00000000     0.00000000     0.00000000
 Dipole moment /Debye                   0.00000000     0.00000000     0.00000000

 Cluster corrected energies          -214.24028322 (Davidson, fixed reference)
 Cluster corrected energies          -214.24027717 (Davidson, relaxed reference)
 Cluster corrected energies          -214.24028322 (Davidson, rotated reference)

 Cluster corrected energies          -214.23801315 (Pople, fixed reference)
 Cluster corrected energies          -214.23800685 (Pople, relaxed reference)
 Cluster corrected energies          -214.23801315 (Pople, rotated reference)



 RESULTS FOR STATE 10.2
 ======================

 Coefficient of reference function:   C(0) = 0.95785760 (fixed)   0.95786087 (relaxed)   0.95785760 (rotated)

 Energy contributions of configuration classes

 CLASS          SQ.NORM        ECORR1        ECORR2
 +++++++++++++++++++++++++++++++++++++++++++++++++++
 Internals    0.00184722   -0.00426133   -0.00528758
 Singles      0.01707238   -0.06284664   -0.07039813
 Pairs        0.07100914   -0.74586522   -0.73728750
 Total        1.08992873   -0.81297319   -0.81297321
 +++++++++++++++++++++++++++++++++++++++++++++++++++


 Reference energy                    -213.35420037
 Nuclear energy                         0.00000000
 Kinetic energy                        69.27538754
 One electron energy                 -368.06979345
 Two electron energy                  153.90261988
 Virial quotient                       -3.09153339
 Correlation energy                    -0.81297321
 !MRCI STATE 10.2 Energy             -214.167173573201

 Properties without orbital relaxation:

 !MRCI STATE 10.2 Dipole moment         0.00000000     0.00000000     0.00000000
 Dipole moment /Debye                   0.00000000     0.00000000     0.00000000

 Cluster corrected energies          -214.24028322 (Davidson, fixed reference)
 Cluster corrected energies          -214.24027717 (Davidson, relaxed reference)
 Cluster corrected energies          -214.24028322 (Davidson, rotated reference)

 Cluster corrected energies          -214.23801316 (Pople, fixed reference)
 Cluster corrected energies          -214.23800685 (Pople, relaxed reference)
 Cluster corrected energies          -214.23801316 (Pople, rotated reference)



 **********************************************************************************************************************************
 DATASETS  * FILE   NREC   LENGTH (MB)   RECORD NAMES
              1      21       94.20       500      610      700      900      950      970     1000      129      960     1100   
                                          VAR    BASINP    GEOM    SYMINP    ZMAT    AOBASIS   BASIS     P2S    ABASIS      S 
                                         1400     1410     1420     1200     1210     1080     1700     1600     1650     1380   
                                           T        V       ECP      H0       H01     AOSYM    OPER      SMH    MOLCAS    JKOP   
                                         1700(1)
                                         OPER   

              2       5     1992.70       700     1000      520     2140     5302   
                                         GEOM     BASIS   MCVARS    MCSCF    MRCI   

 PROGRAMS   *        TOTAL        CI     MULTI       INT
 CPU TIMES  *      1769.53   1748.14     11.79      9.24
 REAL TIME  *      1906.76 SEC
 DISK USED  *         2.04 GB (local),       58.44 GB (total)
 SF USED    *        18.89 GB
 GA USED    *         0.00 MB       (max)       0.00 MB       (current)
 **********************************************************************************************************************************
 SETTING HLSDIAG(1)     =      -214.48653346  AU                              
 SETTING HLSDIAG(2)     =      -214.24422323  AU                              
 SETTING HLSDIAG(3)     =      -214.24422322  AU                              
 SETTING HLSDIAG(4)     =      -214.24422313  AU                              
 SETTING HLSDIAG(5)     =      -214.24422311  AU                              
 SETTING HLSDIAG(6)     =      -214.24422312  AU                              
 SETTING HLSDIAG(7)     =      -214.24138039  AU                              
 SETTING HLSDIAG(8)     =      -214.24028322  AU                              
 SETTING HLSDIAG(9)     =      -214.24028322  AU                              
 SETTING HLSDIAG(10)    =      -214.24028322  AU                              


 PROGRAM * CI (Multireference internally contracted CI)     Authors: H.-J. Werner, P.J. Knowles, 1987


 Convergence thresholds:  THRVAR = 1.00D-08  THRDEN = 1.00D-06

 Number of optimized states: 8  Roots:    1   2   3   4   5   6   7   8
 Number of reference states: 8  Roots:    1   2   3   4   5   6   7   8

 Reference symmetry:                   2   Doublet 
 Number of electrons:                 23
 Maximum number of shells:             5
 Maximum number of spin couplings:    42

 Reference space:       50 conf       70 CSFs
 N elec internal:     7880 conf    26950 CSFs
 N-1 el internal:     5471 conf    28036 CSFs
 N-2 el internal:     2966 conf    21832 CSFs

 Number of electrons in valence space:                     23
 Maximum number of open shell orbitals in reference space:  3
 Maximum number of open shell orbitals in internal spaces:  9


 Number of closed-shell orbitals:  10 (   7   3 )
 Number of active  orbitals:        6 (   0   6 )
 Number of external orbitals:     265 ( 128 137 )

 Molecular orbitals read from record     2140.2  Type=MCSCF/NATURAL (state averaged)

 Coulomb and exchange operators available. No transformation done.


 Number of p-space configurations:  35

 Reference wavefunction optimized for reference space (refopt=1)

 State     Reference Energy 
     1      -213.53073553
     2      -213.53073553
     3      -213.53073552
     4      -213.53073552
     5      -213.53073552
     6      -213.49356028
     7      -213.49356028
     8      -213.49356028

 Number of blocks in overlap matrix:   886   Smallest eigenvalue:  0.73D-03
 Number of N-2 electron functions:    1332
 Number of N-1 electron functions:   28036

 Number of internal configurations:                14896
 Number of singly external configurations:       3728792
 Number of doubly external configurations:      23394148
 Total number of contracted configurations:     27137836
 Total number of uncontracted configurations:  386701194

 Diagonal Coupling coefficients finished.               Storage:   7754009 words, CPU-Time:      2.00 seconds.
 Energy denominators for pairs finished in 1 passes.    Storage:   3509159 words, CPU-time:      6.59 seconds.

  ITER. STATE  ROOT     SQ.NORM     CORR.ENERGY   TOTAL ENERGY   ENERGY CHANGE       DEN1      VAR(S)    VAR(P)      TIME
    1     1     1     1.00000000     0.00000000  -213.53073553     0.00000000    -1.02568307  0.56D-01  0.13D+00    12.25
    1     2     2     1.00000000     0.00000000  -213.53073553     0.00000000    -1.02504953  0.55D-01  0.13D+00    12.25
    1     3     3     1.00000000     0.00000000  -213.53073552    -0.00000000    -1.02569676  0.56D-01  0.13D+00    12.25
    1     4     4     1.00000000     0.00000000  -213.53073552     0.00000000    -1.02551091  0.55D-01  0.13D+00    12.25
    1     5     5     1.00000000     0.00000000  -213.53073552     0.00000000    -1.02636714  0.56D-01  0.13D+00    12.25
    1     6     6     1.00000000     0.00000000  -213.49356028     0.00000000    -1.02306499  0.44D-01  0.14D+00    12.25
    1     7     7     1.00000000     0.00000000  -213.49356028    -0.00000000    -1.02465781  0.44D-01  0.14D+00    12.25
    1     8     8     1.00000000     0.00000000  -213.49356028     0.00000000    -1.02478237  0.44D-01  0.14D+00    12.25
    2     1     1     1.11231124    -0.80476850  -214.33550402    -0.80476850    -0.03006496  0.46D-02  0.24D-02   298.69
    2     2     2     1.11249732    -0.80457057  -214.33530610    -0.80457057    -0.03027494  0.47D-02  0.25D-02   298.69
    2     3     3     1.11260368    -0.80455850  -214.33529402    -0.80455850    -0.03029025  0.46D-02  0.25D-02   298.69
    2     4     4     1.11274230    -0.80440850  -214.33514403    -0.80440850    -0.03045508  0.47D-02  0.25D-02   298.69
    2     5     5     1.11314309    -0.80401910  -214.33475462    -0.80401910    -0.03087345  0.48D-02  0.26D-02   298.69
    2     6     6     1.11014474    -0.80809741  -214.30165769    -0.80809741    -0.03044967  0.47D-02  0.26D-02   298.69
    2     7     7     1.11119554    -0.80742742  -214.30098769    -0.80742742    -0.03113630  0.46D-02  0.30D-02   298.69
    2     8     8     1.11124059    -0.80739885  -214.30095913    -0.80739885    -0.03116502  0.46D-02  0.30D-02   298.69
    3     1     1     1.09491157    -0.83285781  -214.36359333    -0.02808931    -0.00043571  0.72D-04  0.44D-04   585.61
    3     2     2     1.09491359    -0.83285458  -214.36359010    -0.02828401    -0.00043911  0.72D-04  0.45D-04   585.61
    3     3     3     1.09492388    -0.83285380  -214.36358932    -0.02829530    -0.00043968  0.72D-04  0.46D-04   585.61
    3     4     4     1.09492290    -0.83284985  -214.36358538    -0.02844135    -0.00044359  0.73D-04  0.46D-04   585.61
    3     5     5     1.09493756    -0.83284343  -214.36357895    -0.02882433    -0.00045045  0.72D-04  0.48D-04   585.61
    3     6     6     1.09387563    -0.83644987  -214.33001015    -0.02835246    -0.00043800  0.57D-04  0.54D-04   585.61
    3     7     7     1.09395464    -0.83642812  -214.32998839    -0.02900070    -0.00045883  0.60D-04  0.60D-04   585.61
    3     8     8     1.09395673    -0.83642761  -214.32998789    -0.02902876    -0.00045921  0.59D-04  0.60D-04   585.61
    4     1     1     1.09392885    -0.83330751  -214.36404303    -0.00044970    -0.00001468  0.28D-05  0.15D-05   873.41
    4     2     2     1.09392895    -0.83330744  -214.36404296    -0.00045286    -0.00001474  0.28D-05  0.15D-05   873.41
    4     3     3     1.09393113    -0.83330738  -214.36404290    -0.00045358    -0.00001479  0.28D-05  0.15D-05   873.41
    4     4     4     1.09393161    -0.83330734  -214.36404287    -0.00045749    -0.00001480  0.28D-05  0.15D-05   873.41
    4     5     5     1.09393133    -0.83330722  -214.36404275    -0.00046380    -0.00001491  0.28D-05  0.15D-05   873.41
    4     6     6     1.09299419    -0.83689802  -214.33045829    -0.00044815    -0.00001390  0.27D-05  0.15D-05   873.41
    4     7     7     1.09300191    -0.83689720  -214.33045748    -0.00046908    -0.00001464  0.27D-05  0.17D-05   873.41
    4     8     8     1.09300213    -0.83689719  -214.33045747    -0.00046958    -0.00001464  0.27D-05  0.17D-05   873.41
[...]
   53    5.2  0.5 -0.5   0.000%   0.000%   0.002%   0.000%   0.002%   0.020%   0.000%   0.000%   0.000%   0.035%
   54    6.2  0.5 -0.5   0.000%   0.138%   0.000%   0.004%   0.055%   0.005%   0.000%   0.003%   0.013%   0.000%
   55    7.2  0.5 -0.5   0.138%   0.000%   0.032%   0.000%   0.003%   0.029%   0.003%   0.000%   0.000%   0.003%
   56    8.2  0.5 -0.5   0.138%   0.000%   0.060%   0.000%   0.000%   0.004%   0.003%   0.000%   0.000%   0.004%

   Nr   State  S   Sz      31       32       33       34       35       36       37       38       39       40

    1    1.2  1.5  1.5   0.000%   0.076%   0.000%   0.000%   0.000%   0.000%   0.000%   0.000%   0.064%   0.001%
    2    2.2  1.5  1.5   0.000%   0.986%   0.000%   0.026%   6.580%   0.004%   0.014%   2.945%   0.000%   0.000%
    3    3.2  1.5  1.5   0.001%   6.990%   0.008%   5.890%   0.051%   0.000%   0.144%  29.417%   0.800%   0.010%
    4    4.2  1.5  1.5   0.000%   0.014%   0.001%   0.830%   5.601%   0.003%   0.000%   0.004%   0.077%   0.001%
    5    5.2  1.5  1.5   0.014%   0.000%   4.329%   0.006%   0.015%  23.399%   2.827%   0.014%   0.001%   0.077%
    6    6.2  1.5  1.5   0.014%   0.000%  23.174%   0.031%   0.003%   5.121%   2.249%   0.011%   0.001%   0.077%
    7    7.2  1.5  1.5   0.008%  38.518%   0.000%   0.000%   0.000%   0.000%   0.000%   0.000%  44.730%   0.586%
    8    8.2  1.5  1.5   0.003%  12.753%   0.002%   1.302%   0.264%   0.000%   0.040%   8.285%  24.418%   0.320%
    9    9.2  1.5  1.5   0.008%   0.000%  11.701%   0.016%   0.000%   0.008%   1.870%   0.009%   0.011%   0.864%
   10   10.2  1.5  1.5   0.008%   0.000%   6.875%   0.009%   0.003%   4.689%   2.018%   0.010%   0.011%   0.864%
   11    1.2  1.5  0.5   0.000%   0.000%   0.000%   0.000%   0.000%   0.000%   0.000%   0.000%   0.000%   0.007%
   12    2.2  1.5  0.5   6.990%   0.001%   6.958%   0.009%   0.000%   0.001%  28.403%   0.139%   0.010%   0.800%
   13    3.2  1.5  0.5   0.986%   0.000%   0.009%   0.000%   0.004%   6.256%   3.286%   0.016%   0.000%   0.000%
   14    4.2  1.5  0.5   7.962%   0.002%  30.074%   0.040%   0.003%   4.678%   3.824%   0.019%   0.009%   0.722%
   15    5.2  1.5  0.5   0.002%   7.962%   0.004%   2.860%  10.543%   0.007%   0.005%   1.072%   0.722%   0.009%
   16    6.2  1.5  0.5   0.002%   7.962%   0.001%   0.882%  12.854%   0.008%   0.004%   0.741%   0.722%   0.009%
   17    7.2  1.5  0.5   0.068%   0.000%   0.000%   0.000%   0.000%   0.000%   0.000%   0.000%   0.062%   4.749%
   18    8.2  1.5  0.5   0.003%   0.000%   1.913%   0.003%   0.008%  12.908%   0.008%   0.000%   0.004%   0.288%
   19    9.2  1.5  0.5   0.001%   4.675%   0.004%   2.822%   1.827%   0.001%   0.031%   6.445%   3.167%   0.041%
   20   10.2  1.5  0.5   0.001%   3.847%   0.000%   0.088%   5.023%   0.003%   0.029%   5.987%  15.416%   0.202%
   21    1.2  1.5 -0.5   0.000%   0.000%   0.000%   0.000%   0.000%   0.000%   0.000%   0.000%   0.007%   0.000%
   22    2.2  1.5 -0.5   0.001%   6.990%   0.009%   6.958%   0.001%   0.000%   0.139%  28.403%   0.800%   0.010%
   23    3.2  1.5 -0.5   0.000%   0.986%   0.000%   0.009%   6.256%   0.004%   0.016%   3.286%   0.000%   0.000%
   24    4.2  1.5 -0.5   0.002%   7.962%   0.040%  30.074%   4.678%   0.003%   0.019%   3.824%   0.722%   0.009%
   25    5.2  1.5 -0.5   7.962%   0.002%   2.860%   0.004%   0.007%  10.543%   1.072%   0.005%   0.009%   0.722%
   26    6.2  1.5 -0.5   7.962%   0.002%   0.882%   0.001%   0.008%  12.854%   0.741%   0.004%   0.009%   0.722%
   27    7.2  1.5 -0.5   0.000%   0.068%   0.000%   0.000%   0.000%   0.000%   0.000%   0.000%   4.749%   0.062%
   28    8.2  1.5 -0.5   0.000%   0.003%   0.003%   1.913%  12.908%   0.008%   0.000%   0.008%   0.288%   0.004%
   29    9.2  1.5 -0.5   4.675%   0.001%   2.822%   0.004%   0.001%   1.827%   6.445%   0.031%   0.041%   3.167%
   30   10.2  1.5 -0.5   3.847%   0.001%   0.088%   0.000%   0.003%   5.023%   5.987%   0.029%   0.202%  15.416%
   31    1.2  1.5 -1.5   0.076%   0.000%   0.000%   0.000%   0.000%   0.000%   0.000%   0.000%   0.001%   0.064%
   32    2.2  1.5 -1.5   0.986%   0.000%   0.026%   0.000%   0.004%   6.580%   2.945%   0.014%   0.000%   0.000%
   33    3.2  1.5 -1.5   6.990%   0.001%   5.890%   0.008%   0.000%   0.051%  29.417%   0.144%   0.010%   0.800%
   34    4.2  1.5 -1.5   0.014%   0.000%   0.830%   0.001%   0.003%   5.601%   0.004%   0.000%   0.001%   0.077%
   35    5.2  1.5 -1.5   0.000%   0.014%   0.006%   4.329%  23.399%   0.015%   0.014%   2.827%   0.077%   0.001%
   36    6.2  1.5 -1.5   0.000%   0.014%   0.031%  23.174%   5.121%   0.003%   0.011%   2.249%   0.077%   0.001%
   37    7.2  1.5 -1.5  38.518%   0.008%   0.000%   0.000%   0.000%   0.000%   0.000%   0.000%   0.586%  44.730%
   38    8.2  1.5 -1.5  12.753%   0.003%   1.302%   0.002%   0.000%   0.264%   8.285%   0.040%   0.320%  24.418%
   39    9.2  1.5 -1.5   0.000%   0.008%   0.016%  11.701%   0.008%   0.000%   0.009%   1.870%   0.864%   0.011%
   40   10.2  1.5 -1.5   0.000%   0.008%   0.009%   6.875%   4.689%   0.003%   0.010%   2.018%   0.864%   0.011%
   41    1.2  0.5  0.5   0.049%   0.000%   0.032%   0.000%   0.000%   0.004%   0.043%   0.000%   0.000%   0.019%
   42    2.2  0.5  0.5   0.000%   0.011%   0.000%   0.020%   0.013%   0.000%   0.000%   0.046%   0.012%   0.000%
   43    3.2  0.5  0.5   0.002%   0.000%   0.004%   0.000%   0.000%   0.076%   0.000%   0.000%   0.000%   0.001%
   44    4.2  0.5  0.5   0.048%   0.000%   0.076%   0.000%   0.000%   0.004%   0.000%   0.000%   0.000%   0.020%
   45    5.2  0.5  0.5   0.000%   0.014%   0.000%   0.001%   0.036%   0.000%   0.000%   0.043%   0.001%   0.000%
   46    6.2  0.5  0.5   0.000%   0.000%   0.000%   0.000%   0.000%   0.000%   0.000%   0.000%   0.000%   0.006%
   47    7.2  0.5  0.5   0.000%   0.010%   0.000%   0.000%   0.000%   0.000%   0.000%   0.000%   0.027%   0.000%
   48    8.2  0.5  0.5   0.000%   0.009%   0.000%   0.000%   0.000%   0.000%   0.000%   0.000%   0.058%   0.001%
   49    1.2  0.5 -0.5   0.000%   0.049%   0.000%   0.032%   0.004%   0.000%   0.000%   0.043%   0.019%   0.000%
   50    2.2  0.5 -0.5   0.011%   0.000%   0.020%   0.000%   0.000%   0.013%   0.046%   0.000%   0.000%   0.012%
   51    3.2  0.5 -0.5   0.000%   0.002%   0.000%   0.004%   0.076%   0.000%   0.000%   0.000%   0.001%   0.000%
   52    4.2  0.5 -0.5   0.000%   0.048%   0.000%   0.076%   0.004%   0.000%   0.000%   0.000%   0.020%   0.000%
   53    5.2  0.5 -0.5   0.014%   0.000%   0.001%   0.000%   0.000%   0.036%   0.043%   0.000%   0.000%   0.001%
   54    6.2  0.5 -0.5   0.000%   0.000%   0.000%   0.000%   0.000%   0.000%   0.000%   0.000%   0.006%   0.000%
   55    7.2  0.5 -0.5   0.010%   0.000%   0.000%   0.000%   0.000%   0.000%   0.000%   0.000%   0.000%   0.027%
   56    8.2  0.5 -0.5   0.009%   0.000%   0.000%   0.000%   0.000%   0.000%   0.000%   0.000%   0.001%   0.058%

   Nr   State  S   Sz      41       42       43       44       45       46       47       48       49       50

    1    1.2  1.5  1.5   0.000%   0.007%   0.000%   0.000%   0.000%   0.000%   0.000%   0.000%   0.000%   0.000%
    2    2.2  1.5  1.5   0.002%   0.808%  30.346%   1.090%  16.884%   0.048%   0.000%   0.124%   0.000%   0.715%
    3    3.2  1.5  1.5   0.000%   0.000%   4.030%   0.145%   0.051%   0.000%   0.035%  19.879%   0.000%   6.654%
    4    4.2  1.5  1.5   0.002%   0.729%  18.082%   0.649%  29.762%   0.085%   0.005%   2.845%   0.000%   0.000%
    5    5.2  1.5  1.5   0.730%   0.002%   0.080%   2.240%   0.002%   0.552%  10.200%   0.018%  21.194%   0.000%
    6    6.2  1.5  1.5   0.730%   0.002%   0.106%   2.954%   0.018%   6.255%   3.732%   0.007%  21.213%   0.000%
    7    7.2  1.5  1.5   0.014%   4.797%   0.000%   0.000%   0.000%   0.000%   0.000%   0.000%   0.000%   0.000%
    8    8.2  1.5  1.5   0.008%   2.619%   0.000%   0.000%   0.000%   0.000%   0.000%   0.000%   0.000%   0.000%
    9    9.2  1.5  1.5   8.221%   0.024%   0.000%   0.000%   0.000%   0.000%   0.000%   0.000%   0.000%   0.000%
   10   10.2  1.5  1.5   8.221%   0.024%   0.000%   0.000%   0.000%   0.000%   0.000%   0.000%   0.000%   0.000%
   11    1.2  1.5  0.5   0.065%   0.000%   0.000%   0.000%   0.000%   0.000%   0.000%   0.000%   0.000%   0.000%
   12    2.2  1.5  0.5   0.000%   0.000%   0.063%   1.749%   0.000%   0.007%  22.693%   0.040%   6.243%   0.000%
   13    3.2  1.5  0.5   0.808%   0.002%   0.774%  21.551%   0.074%  25.945%   0.184%   0.000%   0.678%   0.000%
   14    4.2  1.5  0.5   0.077%   0.000%   0.000%   0.000%   0.000%   0.000%   0.002%   0.000%  28.568%   0.000%
   15    5.2  1.5  0.5   0.000%   0.078%   6.733%   0.242%   1.724%   0.005%   0.052%  29.580%   0.000%   7.378%
   16    6.2  1.5  0.5   0.000%   0.077%   8.848%   0.318%  18.534%   0.053%   0.019%  10.585%   0.000%   7.357%
   17    7.2  1.5  0.5  45.182%   0.134%   0.000%   0.000%   0.000%   0.000%   0.000%   0.000%   0.000%   0.000%
   18    8.2  1.5  0.5   2.740%   0.008%   0.000%   0.000%   0.000%   0.000%   0.000%   0.000%   0.000%   0.000%
   19    9.2  1.5  0.5   0.053%  18.022%   0.000%   0.000%   0.000%   0.000%   0.000%   0.000%   0.000%   0.000%
   20   10.2  1.5  0.5   0.017%   5.648%   0.000%   0.000%   0.000%   0.000%   0.000%   0.000%   0.000%   0.000%
   21    1.2  1.5 -0.5   0.000%   0.065%   0.000%   0.000%   0.000%   0.000%   0.000%   0.000%   0.000%   0.000%
   22    2.2  1.5 -0.5   0.000%   0.000%   1.749%   0.063%   0.007%   0.000%   0.040%  22.693%   0.000%   6.243%
   23    3.2  1.5 -0.5   0.002%   0.808%  21.551%   0.774%  25.945%   0.074%   0.000%   0.184%   0.000%   0.678%
   24    4.2  1.5 -0.5   0.000%   0.077%   0.000%   0.000%   0.000%   0.000%   0.000%   0.002%   0.000%  28.568%
   25    5.2  1.5 -0.5   0.078%   0.000%   0.242%   6.733%   0.005%   1.724%  29.580%   0.052%   7.378%   0.000%
   26    6.2  1.5 -0.5   0.077%   0.000%   0.318%   8.848%   0.053%  18.534%  10.585%   0.019%   7.357%   0.000%
   27    7.2  1.5 -0.5   0.134%  45.182%   0.000%   0.000%   0.000%   0.000%   0.000%   0.000%   0.000%   0.000%
   28    8.2  1.5 -0.5   0.008%   2.740%   0.000%   0.000%   0.000%   0.000%   0.000%   0.000%   0.000%   0.000%
   29    9.2  1.5 -0.5  18.022%   0.053%   0.000%   0.000%   0.000%   0.000%   0.000%   0.000%   0.000%   0.000%
   30   10.2  1.5 -0.5   5.648%   0.017%   0.000%   0.000%   0.000%   0.000%   0.000%   0.000%   0.000%   0.000%
   31    1.2  1.5 -1.5   0.007%   0.000%   0.000%   0.000%   0.000%   0.000%   0.000%   0.000%   0.000%   0.000%
   32    2.2  1.5 -1.5   0.808%   0.002%   1.090%  30.346%   0.048%  16.884%   0.124%   0.000%   0.715%   0.000%
   33    3.2  1.5 -1.5   0.000%   0.000%   0.145%   4.030%   0.000%   0.051%  19.879%   0.035%   6.654%   0.000%
   34    4.2  1.5 -1.5   0.729%   0.002%   0.649%  18.082%   0.085%  29.762%   2.845%   0.005%   0.000%   0.000%
   35    5.2  1.5 -1.5   0.002%   0.730%   2.240%   0.080%   0.552%   0.002%   0.018%  10.200%   0.000%  21.194%
   36    6.2  1.5 -1.5   0.002%   0.730%   2.954%   0.106%   6.255%   0.018%   0.007%   3.732%   0.000%  21.213%
   37    7.2  1.5 -1.5   4.797%   0.014%   0.000%   0.000%   0.000%   0.000%   0.000%   0.000%   0.000%   0.000%
   38    8.2  1.5 -1.5   2.619%   0.008%   0.000%   0.000%   0.000%   0.000%   0.000%   0.000%   0.000%   0.000%
   39    9.2  1.5 -1.5   0.024%   8.221%   0.000%   0.000%   0.000%   0.000%   0.000%   0.000%   0.000%   0.000%
   40   10.2  1.5 -1.5   0.024%   8.221%   0.000%   0.000%   0.000%   0.000%   0.000%   0.000%   0.000%   0.000%
   41    1.2  0.5  0.5   0.002%   0.000%   0.000%   0.000%   0.000%   0.000%   0.000%   0.000%   0.000%   0.000%
   42    2.2  0.5  0.5   0.000%   0.009%   0.000%   0.000%   0.000%   0.000%   0.000%   0.000%   0.000%   0.000%
   43    3.2  0.5  0.5   0.021%   0.000%   0.000%   0.000%   0.000%   0.000%   0.000%   0.000%   0.000%   0.000%
   44    4.2  0.5  0.5   0.001%   0.000%   0.000%   0.000%   0.000%   0.000%   0.000%   0.000%   0.000%   0.000%
   45    5.2  0.5  0.5   0.000%   0.020%   0.000%   0.000%   0.000%   0.000%   0.000%   0.000%   0.000%   0.000%
   46    6.2  0.5  0.5   0.056%   0.000%   0.000%   0.000%   0.000%   0.000%   0.000%   0.000%   0.000%   0.000%
   47    7.2  0.5  0.5   0.000%   0.034%   0.000%   0.000%   0.000%   0.000%   0.000%   0.000%   0.000%   0.000%
   48    8.2  0.5  0.5   0.000%   0.003%   0.000%   0.000%   0.000%   0.000%   0.000%   0.000%   0.000%   0.000%
   49    1.2  0.5 -0.5   0.000%   0.002%   0.000%   0.000%   0.000%   0.000%   0.000%   0.000%   0.000%   0.000%
   50    2.2  0.5 -0.5   0.009%   0.000%   0.000%   0.000%   0.000%   0.000%   0.000%   0.000%   0.000%   0.000%
   51    3.2  0.5 -0.5   0.000%   0.021%   0.000%   0.000%   0.000%   0.000%   0.000%   0.000%   0.000%   0.000%
   52    4.2  0.5 -0.5   0.000%   0.001%   0.000%   0.000%   0.000%   0.000%   0.000%   0.000%   0.000%   0.000%
   53    5.2  0.5 -0.5   0.020%   0.000%   0.000%   0.000%   0.000%   0.000%   0.000%   0.000%   0.000%   0.000%
   54    6.2  0.5 -0.5   0.000%   0.056%   0.000%   0.000%   0.000%   0.000%   0.000%   0.000%   0.000%   0.000%
   55    7.2  0.5 -0.5   0.034%   0.000%   0.000%   0.000%   0.000%   0.000%   0.000%   0.000%   0.000%   0.000%
   56    8.2  0.5 -0.5   0.003%   0.000%   0.000%   0.000%   0.000%   0.000%   0.000%   0.000%   0.000%   0.000%

   Nr   State  S   Sz      51       52       53       54       55       56

    1    1.2  1.5  1.5   0.000%   0.000%   0.000%   0.000%   0.000%   0.000%
    2    2.2  1.5  1.5   0.979%   0.000%   0.000%   0.047%   0.020%   2.079%
    3    3.2  1.5  1.5   9.286%   0.000%   0.000%   2.286%   0.000%   0.024%
    4    4.2  1.5  1.5   0.000%   0.000%   0.000%   0.071%   0.020%   2.013%
    5    5.2  1.5  1.5   0.000%   1.011%   2.672%   0.000%   6.247%   0.061%
    6    6.2  1.5  1.5   0.000%   0.952%   5.924%   0.000%   3.085%   0.030%
    7    7.2  1.5  1.5   0.000%   0.000%   0.000%   0.000%   0.000%   0.000%
    8    8.2  1.5  1.5  24.467%   0.000%   0.000%   5.391%   0.002%   0.217%
    9    9.2  1.5  1.5   0.000%   6.941%  33.592%   0.000%   0.816%   0.008%
   10   10.2  1.5  1.5   0.000%   7.082%  25.841%   0.000%   8.352%   0.082%
   11    1.2  1.5  0.5   0.000%   0.000%   0.000%   0.000%   0.000%   0.000%
   12    2.2  1.5  0.5   0.000%   9.689%   1.855%   0.000%   0.051%   0.000%
   13    3.2  1.5  0.5   0.000%   1.065%   0.028%   0.000%   2.013%   0.020%
   14    4.2  1.5  0.5   0.000%   0.986%  11.233%   0.000%   0.397%   0.004%
   15    5.2  1.5  0.5   0.301%   0.000%   0.000%   0.404%   0.039%   3.989%
   16    6.2  1.5  0.5   0.270%   0.000%   0.000%   0.018%   0.043%   4.402%
   17    7.2  1.5  0.5   0.000%   0.000%   0.000%   0.000%   0.000%   0.000%
   18    8.2  1.5  0.5   0.000%   0.002%   1.523%   0.000%  43.170%   0.422%
   19    9.2  1.5  0.5  18.549%   0.000%   0.000%   6.905%   0.081%   8.302%
   20   10.2  1.5  0.5  18.153%   0.000%   0.000%   1.943%   0.133%  13.609%
   21    1.2  1.5 -0.5   0.000%   0.000%   0.000%   0.000%   0.000%   0.000%
   22    2.2  1.5 -0.5   9.689%   0.000%   0.000%   1.855%   0.000%   0.051%
   23    3.2  1.5 -0.5   1.065%   0.000%   0.000%   0.028%   0.020%   2.013%
   24    4.2  1.5 -0.5   0.986%   0.000%   0.000%  11.233%   0.004%   0.397%
   25    5.2  1.5 -0.5   0.000%   0.301%   0.404%   0.000%   3.989%   0.039%
   26    6.2  1.5 -0.5   0.000%   0.270%   0.018%   0.000%   4.402%   0.043%
   27    7.2  1.5 -0.5   0.000%   0.000%   0.000%   0.000%   0.000%   0.000%
   28    8.2  1.5 -0.5   0.002%   0.000%   0.000%   1.523%   0.422%  43.170%
   29    9.2  1.5 -0.5   0.000%  18.549%   6.905%   0.000%   8.302%   0.081%
   30   10.2  1.5 -0.5   0.000%  18.153%   1.943%   0.000%  13.609%   0.133%
   31    1.2  1.5 -1.5   0.000%   0.000%   0.000%   0.000%   0.000%   0.000%
   32    2.2  1.5 -1.5   0.000%   0.979%   0.047%   0.000%   2.079%   0.020%
   33    3.2  1.5 -1.5   0.000%   9.286%   2.286%   0.000%   0.024%   0.000%
   34    4.2  1.5 -1.5   0.000%   0.000%   0.071%   0.000%   2.013%   0.020%
   35    5.2  1.5 -1.5   1.011%   0.000%   0.000%   2.672%   0.061%   6.247%
   36    6.2  1.5 -1.5   0.952%   0.000%   0.000%   5.924%   0.030%   3.085%
   37    7.2  1.5 -1.5   0.000%   0.000%   0.000%   0.000%   0.000%   0.000%
   38    8.2  1.5 -1.5   0.000%  24.467%   5.391%   0.000%   0.217%   0.002%
   39    9.2  1.5 -1.5   6.941%   0.000%   0.000%  33.592%   0.008%   0.816%
   40   10.2  1.5 -1.5   7.082%   0.000%   0.000%  25.841%   0.082%   8.352%
   41    1.2  0.5  0.5   0.000%   0.093%   0.065%   0.000%   0.002%   0.000%
   42    2.2  0.5  0.5   0.088%   0.000%   0.000%   0.033%   0.000%   0.039%
   43    3.2  0.5  0.5   0.000%   0.000%   0.000%   0.000%   0.159%   0.002%
   44    4.2  0.5  0.5   0.000%   0.000%   0.160%   0.000%   0.000%   0.000%
   45    5.2  0.5  0.5   0.086%   0.000%   0.000%   0.009%   0.001%   0.065%
   46    6.2  0.5  0.5   0.000%   0.000%   0.000%   0.000%   0.000%   0.000%
   47    7.2  0.5  0.5   0.000%   0.000%   0.000%   0.000%   0.000%   0.000%
   48    8.2  0.5  0.5   0.000%   0.000%   0.000%   0.000%   0.000%   0.000%
   49    1.2  0.5 -0.5   0.093%   0.000%   0.000%   0.065%   0.000%   0.002%
   50    2.2  0.5 -0.5   0.000%   0.088%   0.033%   0.000%   0.039%   0.000%
   51    3.2  0.5 -0.5   0.000%   0.000%   0.000%   0.000%   0.002%   0.159%
   52    4.2  0.5 -0.5   0.000%   0.000%   0.000%   0.160%   0.000%   0.000%
   53    5.2  0.5 -0.5   0.000%   0.086%   0.009%   0.000%   0.065%   0.001%
   54    6.2  0.5 -0.5   0.000%   0.000%   0.000%   0.000%   0.000%   0.000%
   55    7.2  0.5 -0.5   0.000%   0.000%   0.000%   0.000%   0.000%   0.000%
   56    8.2  0.5 -0.5   0.000%   0.000%   0.000%   0.000%   0.000%   0.000%


 Property matrices transformed in SO basis (not sym. adapted)
 ============================================================

 No matrix element <i|DMX|i> larger than 5E-7
 No matrix element <i|DMX|1> larger than 5E-7

 No matrix element <i|DMY|i> larger than 5E-7
 No matrix element <i|DMY|1> larger than 5E-7

 No matrix element <i|DMZ|i> larger than 5E-7
 No matrix element <i|DMZ|1> larger than 5E-7


 **********************************************************************************************************************************
 DATASETS  * FILE   NREC   LENGTH (MB)   RECORD NAMES
              1      21       94.20       500      610      700      900      950      970     1000      129      960     1100   
                                          VAR    BASINP    GEOM    SYMINP    ZMAT    AOBASIS   BASIS     P2S    ABASIS      S 
                                         1400     1410     1420     1200     1210     1080     1700     1600     1650     1380   
                                           T        V       ECP      H0       H01     AOSYM    OPER      SMH    MOLCAS    JKOP   
                                         1700(1)
                                         OPER   

              2       6     3655.78       700     1000      520     2140     5302     5102   
                                         GEOM     BASIS   MCVARS    MCSCF    MRCI     MRCI   

 PROGRAMS   *        TOTAL        CI        CI        CI     MULTI       INT
 CPU TIMES  *     31346.00  28015.13   1561.31   1748.14     11.79      9.24
 REAL TIME  *     32236.61 SEC
 DISK USED  *         3.66 GB (local),      103.92 GB (total)
 SF USED    *        18.89 GB
 GA USED    *         0.00 MB       (max)       0.00 MB       (current)
 **********************************************************************************************************************************

 CI/USERDEF energy=   -214.218017104770

              CI              CI           MULTI
   -214.33047368   -214.16717357   -213.49356028
 **********************************************************************************************************************************
 Molpro calculation terminated with 1 warning(s)
