
 Working directory              : /wrk/irikura/molpro.hlvQIOTglB/
 Global scratch directory       : /wrk/irikura/molpro.hlvQIOTglB/
 Wavefunction directory         : /home/irikura/wfu/
 Main file repository           : /wrk/irikura/molpro.hlvQIOTglB/

 id        : nistki

 Nodes            nprocs
 pn112695.nist.gov   16
 GA implementation: MPI file
 GA implementation (serial work in mppx): MPI file

 Using customized tuning parameters: mindgm=1; mindgv=20; mindgc=4; mindgr=1; noblas=0; minvec=7
 default implementation of scratch files=sf  


 Variables initialized (1040), CPU time= 0.02 sec
 ***,Bi SO-CI
                                                                                 ! valence s2 inactive
                                                                                 ! include 8p in active space
 memory,1500,M;
 
 gprint,orbitals,civector;
 
 symmetry,xyz
 geometry={Bi};
 
 basis={
 ecp,bi,ECP60MDF;
 spdfghi,bi,aug-cc-pwCV5Z-PP;C; spdf,1,even,nprim=1,ratio=3.0;
 }
 
 PAR=2                                                                           ! parity even (1) or odd (2)
 NQ=10
 ND=8
 
 {multi
     closed,7,3
     occ,7,12
     wf,charge=0,sym=PAR,spin=3;state,NQ; weight,25, 1,1,1, 1,1,1, 1,1,1
     wf,charge=0,sym=PAR,spin=1;state,ND;
     expec2,lxx,lyy,lzz;
 }
 table, energy, ll
 title, Energies and &lt;L**2&gt; values
 
 core,0,0
 
 {ci;wf,sym=PAR,spin=3;state,NQ; save,5302.2}
 if NQ.LT.2 then
 hlsdiag(1) = energd
 else
 hlsdiag = energd4
 endif
 
 {ci;wf,sym=PAR,spin=1;state,ND; save,5102.2}
 hlsdiag(NQ+1) = energd4
 
 table,hlsdiag
 
 {ci;hlsmat,ecp,5302.2,5102.2;print,vls=0,hls=0}                                 !compute and diagonalize SO matrix
 Commands initialized (846), CPU time= 0.01 sec, 717 directives.
 Default parameters read. Elapsed time= 0.19 sec

 Checking input...
 Passed
1


                                         ***  PROGRAM SYSTEM MOLPRO  ***
                                       Copyright, TTI GmbH Stuttgart, 2015
                                    Version 2023.2 linked Fri Sep 22 03:27:09 2023


 **********************************************************************************************************************************
 LABEL *   Bi SO-CI                                                                                                                                                      
  (32 PROC) 64 bit mpp version                                                           DATE: 27-Feb-25          TIME: 09:41:58  
 **********************************************************************************************************************************

 SHA1:             3c61bfe44d37c8635c785372c339f5cbdd4e4b59
 **********************************************************************************************************************************

 Memory per process:      1500 MW
 Total memory per node:  24000 MW

 GA preallocation disabled
 GA check disabled

 Variable memory set to 1500.0 MW


 ZSYMEL=XYZ

 SETTING BASIS          =    USERDEF
 SETTING PAR            =         2.00000000                                  
 SETTING NQ             =        10.00000000                                  
 SETTING ND             =         8.00000000                                  


 Recomputing integrals since basis changed


 Using spherical harmonics

 Library entry Bi   ECP ECP60MDF                 selected for group  1
 Library entry BI     S AUG-CC-PWCV5Z-PP     selected for orbital group  1
 Even tempered Bi S diffuse               selected for group 1    nprim= 1    centre=  0.008    ratio= 3.000    dratio= 1.000
 Library entry BI     P AUG-CC-PWCV5Z-PP     selected for orbital group  1
 Even tempered Bi P diffuse               selected for group 1    nprim= 1    centre=  0.005    ratio= 3.000    dratio= 1.000
 Library entry BI     D AUG-CC-PWCV5Z-PP     selected for orbital group  1
 Even tempered Bi D diffuse               selected for group 1    nprim= 1    centre=  0.012    ratio= 3.000    dratio= 1.000
 Library entry BI     F AUG-CC-PWCV5Z-PP     selected for orbital group  1
 Even tempered Bi F diffuse               selected for group 1    nprim= 1    centre=  0.021    ratio= 3.000    dratio= 1.000
 Library entry BI     G AUG-CC-PWCV5Z-PP     selected for orbital group  1
 Library entry BI     H AUG-CC-PWCV5Z-PP     selected for orbital group  1
 Library entry BI     I AUG-CC-PWCV5Z-PP     selected for orbital group  1


 PROGRAM * SEWARD (Integral evaluation for generally contracted gaussian basis sets)     Author: Roland Lindh, 1990

 Geometry written to block  1 of record 700

 Orientation using atomic masses  
 Molecule type: Atom
 User-specified symmetry elements: XYZ
 Symmetry elements: XYZ
 Rotational constants:       0.0000000      0.0000000      0.0000000 GHz  (calculated with average atomic masses)

 Point group  Ci  



 ATOMIC COORDINATES

 NR  ATOM    CHARGE       X              Y              Z

   1  BI     23.00    0.000000000    0.000000000    0.000000000

 NUCLEAR CHARGE:                   23
 NUMBER OF PRIMITIVE AOS:         479
 NUMBER OF SYMMETRY AOS:          343
 NUMBER OF CONTRACTIONS:          281   (  135Ag  +  146Au  )
 NUMBER OF INNER CORE ORBITALS:     0   (    0Ag  +    0Au  )
 NUMBER OF OUTER CORE ORBITALS:     9   (    6Ag  +    3Au  )
 NUMBER OF VALENCE ORBITALS:        4   (    1Ag  +    3Au  )


 LX: Ag           LY: Ag           LZ: Ag 


 NUCLEAR REPULSION ENERGY    0.00000000

 EXTRA SYMMETRY OF AOS IN SYMMETRY 1:   1 1 1 1 1 1 1 1 1 1   1 1 1 2 3 4 5 6 2 3   4 5 6 2 3 4 5 6 2 3   4 5 6 2 3 4 5 6 2 3
                                        4 5 6 2 3 4 5 6 2 3   4 5 6 2 3 4 5 6 2 3   4 5 6 2 3 4 5 6 7 8   9101112131415 7 8 9
                                       101112131415 7 8 910  1112131415 7 8 91011  12131415 7 8 9101112  131415 7 8 910111213
                                       14151617181920212223  2425262728
 EXTRA SYMMETRY OF AOS IN SYMMETRY 2:   1 2 3 1 2 3 1 2 3 1   2 3 1 2 3 1 2 3 1 2   3 1 2 3 1 2 3 1 2 3   1 2 3 1 2 3 1 2 3 4
                                        5 6 7 8 910 4 5 6 7   8 910 4 5 6 7 8 910   4 5 6 7 8 910 4 5 6   7 8 910 4 5 6 7 8 9
                                       10 4 5 6 7 8 910 4 5   6 7 8 910 4 5 6 7 8   9101112131415161718  19202111121314151617
                                       18192021111213141516  17181920211112131415  161718192021


 Eigenvalues of metric

         1 0.100E-04 0.244E-04 0.244E-04 0.244E-04 0.244E-04 0.244E-04 0.357E-04 0.220E-03
         2 0.186E-05 0.186E-05 0.186E-05 0.295E-03 0.295E-03 0.295E-03 0.205E-02 0.205E-02


 Contracted 2-electron integrals neglected if value below      1.0D-12
 AO integral compression algorithm  1   Integral accuracy      1.0D-12

     695.992 MB (compressed) written to integral file ( 13.5%)

     Node minimum: 31.195 MB, node maximum: 57.147 MB


 NUMBER OF SORTED TWO-ELECTRON INTEGRALS:   24679576.     BUFFER LENGTH:  32768
 NUMBER OF SEGMENTS:   2  SEGMENT LENGTH:   15976936      RECORD LENGTH: 524288

 Memory used in sort:      16.53 MW

 SORT1 READ   646821870. AND WROTE     4259373. INTEGRALS IN     14 RECORDS. CPU TIME:     3.07 SEC, REAL TIME:     3.13 SEC
 SORT2 READ    68065344. AND WROTE   395255076. INTEGRALS IN   3024 RECORDS. CPU TIME:     0.49 SEC, REAL TIME:     0.55 SEC

 Node minimum:    24675847.  Node maximum:    24720811. integrals

 OPERATOR DM      FOR CENTER  0  COORDINATES:    0.000000    0.000000    0.000000


 **********************************************************************************************************************************
 DATASETS  * FILE   NREC   LENGTH (MB)   RECORD NAMES
              1      19       30.69       500      610      700      900      950      970     1000      129      960     1100   
                                          VAR    BASINP    GEOM    SYMINP    ZMAT    AOBASIS   BASIS     P2S    ABASIS      S 
                                         1400     1410     1420     1200     1210     1080     1700     1600     1650   
                                           T        V       ECP      H0       H01     AOSYM    OPER      SMH    MOLCAS    

 PROGRAMS   *        TOTAL       INT
 CPU TIMES  *         9.84      9.54
 REAL TIME  *        11.13 SEC
 DISK USED  *        31.11 MB (local),        1.88 GB (total)
 GA USED    *         0.00 MB       (max)       0.00 MB       (current)
 **********************************************************************************************************************************

 PROGRAM * MULTI (Direct Multiconfiguration SCF)       Authors: P.J. Knowles, H.-J. Werner (1984)
                                                                D.A. Kreplin, P.J. Knowles, H.-J. Werner (2019)

 Number of closed-shell orbitals:  10 (    7    3)
 Number of active  orbitals:        9 (    0    9)
 Number of external orbitals:     262 (  128  134)

 State symmetry 1

 Number of active electrons:   3    Spin symmetry=Quartet   Space symmetry=2
 Number of states:            10
 Number of CSFs:              84   (84 determinants, 84 intermediate states)

 State symmetry 2

 Number of active electrons:   3    Spin symmetry=Doublet   Space symmetry=2
 Number of states:             8
 Number of CSFs:             240   (324 determinants, 324 intermediate states)

 Orbital guess generated from atomic densities.
 *** IN SYMMETRY 1 ORBITAL  2 SYMMETRY CONTAMINATION OF 0.135D-02 HAS BEEN REMOVED
 *** IN SYMMETRY 1 ORBITAL  3 SYMMETRY CONTAMINATION OF 0.525D-01 HAS BEEN REMOVED
 *** IN SYMMETRY 1 ORBITAL  4 SYMMETRY CONTAMINATION OF 0.540D-01 HAS BEEN REMOVED
 *** IN SYMMETRY 1 ORBITAL  5 SYMMETRY CONTAMINATION OF 0.800D-03 HAS BEEN REMOVED
 *** IN SYMMETRY 1 ORBITAL  6 SYMMETRY CONTAMINATION OF 0.610D-03 HAS BEEN REMOVED

 EXTRA SYMMETRY OF MOS IN SYMMETRY 1:   1 4 2 5 3 6 1 1 5 6   2 3 4 1 3 6 2 4 5 1   3 4 6 2 5 812131011  14 715 9 4 3 5 6 2 1
                                        5 4 6 2 3 9 8121110  131415 7 1 9 8121110  1314 715 4 5 6 2 3 1  111014 81213 915 7 4
                                        5 3 6 2241728252120  16192623271822141011  13 915 7 812 1 4 5 2   6 3111410 71513 9 8
                                       12 1 2 4 6 5 3 1 2 4   6 5 3 1 1
 *** IN SYMMETRY 2 ORBITAL  1 SYMMETRY CONTAMINATION OF 0.101D-03 HAS BEEN REMOVED
 *** IN SYMMETRY 2 ORBITAL  2 SYMMETRY CONTAMINATION OF 0.101D-03 HAS BEEN REMOVED
 *** IN SYMMETRY 2 ORBITAL  4 SYMMETRY CONTAMINATION OF 0.269D-03 HAS BEEN REMOVED
 *** IN SYMMETRY 2 ORBITAL  5 SYMMETRY CONTAMINATION OF 0.269D-03 HAS BEEN REMOVED
 *** IN SYMMETRY 2 ORBITAL 10 SYMMETRY CONTAMINATION OF 0.136D-04 HAS BEEN REMOVED
 *** IN SYMMETRY 2 ORBITAL 11 SYMMETRY CONTAMINATION OF 0.136D-04 HAS BEEN REMOVED
 EXTRA SYMMETRY OF MOS IN SYMMETRY 2:   3 2 1 3 2 1 3 2 1 2   3 1 7 4 8 610 5 9 2   1 310 6 7 4 8 5 9 1   3 2 610 5 9 4 7 8 5
                                        610 9 4 8 7 3 2 119  11151814162012172113   5 8 4 6 910 7191116  2012151814172113 3 2
                                        1 8 410 5 9 6 71814  17211319112016121510   5 9 8 6 4 7 1 2 3 5   910 8 7 4 617212016
                                       12181413191115 1 3 2   8 5 9 7 410 6 3 1 2   3 1 2 3 1 2

 Wavefunction dump at record             2140.2

 Convergence thresholds  0.10E-04 (gradient)  0.10E-05 (energy)

 Weight factors for state symmetry  1:    0.59524   0.02381   0.02381   0.02381   0.02381   0.02381   0.02381   0.02381
                                          0.02381   0.02381
 Weight factors for state symmetry  2:    0.02381   0.02381   0.02381   0.02381   0.02381   0.02381   0.02381   0.02381
 
 Number of orbital rotations:  2531  ( 27 closed/active, 1298 closed/virtual, 0 active/active, 1206 active/virtual )
 Total number of variables:    5963
 
 Second-order MCSCF: L-BFGS accelerated
 
 ITER  MIC  NCI  NEG     ENERGY(VAR)    ENERGY(PROJ) ENERGY CHANGE       GRAD(0)  GRAD(ORB)   GRAD(CI)      STEP      TIME
   1    9   16    0   -213.51431649    -213.52922312   -0.01490663    0.08927973 0.00042493 0.00000000  0.17E+01      4.13
   2   10   18    0   -213.52919420    -213.52920818   -0.00001398    0.00266430 0.00000472 0.00000000  0.99E-01      8.55
   3    7   14    0   -213.52920818    -213.52920818   -0.00000000    0.00000212 0.00000001 0.00000000  0.19E-03     12.38

 CONVERGENCE REACHED!  Final gradient:    0.00000000 ( 0.31E-08)
                       Final energy:   -213.52920818
 
 Results for state 1.2 Quartet
 =============================
 !MCSCF STATE 1.2 Quartet Energy              -213.592379670001
 Nuclear energy                                  0.00000000
 Kinetic energy                                 69.00715997
 One electron energy                          -372.97923999
 Two electron energy                           159.38686032
 Virial ratio                                    4.09522055
 
 !MCSCF STATE 1.2 Quartet Dipole moment          0.00000000     0.00000000     0.00000000
 Dipole moment /Debye                            0.00000000     0.00000000     0.00000000
 
 Results for state 2.2 Quartet
 =============================
 !MCSCF STATE 2.2 Quartet Energy              -213.360525552527
 Nuclear energy                                  0.00000000
 Kinetic energy                                 68.64333903
 One electron energy                          -368.35941733
 Two electron energy                           154.99889178
 Virial ratio                                    4.10824806
 
 !MCSCF STATE 2.2 Quartet Dipole moment          0.00000000     0.00000000     0.00000000
 Dipole moment /Debye                            0.00000000     0.00000000     0.00000000
 
 Results for state 3.2 Quartet
 =============================
 !MCSCF STATE 3.2 Quartet Energy              -213.360525552525
 Nuclear energy                                  0.00000000
 Kinetic energy                                 68.64333903
 One electron energy                          -368.35941733
 Two electron energy                           154.99889178
 Virial ratio                                    4.10824806
 
 !MCSCF STATE 3.2 Quartet Dipole moment          0.00000000     0.00000000     0.00000000
 Dipole moment /Debye                            0.00000000     0.00000000     0.00000000
 
 Results for state 4.2 Quartet
 =============================
 !MCSCF STATE 4.2 Quartet Energy              -213.360525552504
 Nuclear energy                                  0.00000000
 Kinetic energy                                 68.64333903
 One electron energy                          -368.35941733
 Two electron energy                           154.99889178
 Virial ratio                                    4.10824806
 
 !MCSCF STATE 4.2 Quartet Dipole moment          0.00000000     0.00000000     0.00000000
 Dipole moment /Debye                            0.00000000     0.00000000     0.00000000
 
 Results for state 5.2 Quartet
 =============================
 !MCSCF STATE 5.2 Quartet Energy              -213.360525552498
 Nuclear energy                                  0.00000000
 Kinetic energy                                 68.64333903
 One electron energy                          -368.35941733
 Two electron energy                           154.99889177
 Virial ratio                                    4.10824806
 
 !MCSCF STATE 5.2 Quartet Dipole moment          0.00000000     0.00000000     0.00000000
 Dipole moment /Debye                            0.00000000     0.00000000     0.00000000
 
 Results for state 6.2 Quartet
 =============================
 !MCSCF STATE 6.2 Quartet Energy              -213.360525552490
 Nuclear energy                                  0.00000000
 Kinetic energy                                 68.64333903
 One electron energy                          -368.35941733
 Two electron energy                           154.99889178
 Virial ratio                                    4.10824806
 
 !MCSCF STATE 6.2 Quartet Dipole moment          0.00000000     0.00000000     0.00000000
 Dipole moment /Debye                            0.00000000     0.00000000     0.00000000
 
 Results for state 7.2 Quartet
 =============================
 !MCSCF STATE 7.2 Quartet Energy              -213.358098961732
 Nuclear energy                                  0.00000000
 Kinetic energy                                 68.65105389
 One electron energy                          -368.37701468
 Two electron energy                           155.01891572
 Virial ratio                                    4.10786342
 
 !MCSCF STATE 7.2 Quartet Dipole moment          0.00000000     0.00000000     0.00000000
 Dipole moment /Debye                            0.00000000     0.00000000     0.00000000
 
 Results for state 8.2 Quartet
 =============================
 !MCSCF STATE 8.2 Quartet Energy              -213.356716371200
 Nuclear energy                                  0.00000000
 Kinetic energy                                 68.64463472
 One electron energy                          -368.34706171
 Two electron energy                           154.99034534
 Virial ratio                                    4.10813390
 
 !MCSCF STATE 8.2 Quartet Dipole moment          0.00000000     0.00000000     0.00000000
 Dipole moment /Debye                            0.00000000     0.00000000     0.00000000
 
 Results for state 9.2 Quartet
 =============================
 !MCSCF STATE 9.2 Quartet Energy              -213.356716371176
 Nuclear energy                                  0.00000000
 Kinetic energy                                 68.64463472
 One electron energy                          -368.34706170
 Two electron energy                           154.99034533
 Virial ratio                                    4.10813390
 
 !MCSCF STATE 9.2 Quartet Dipole moment          0.00000000     0.00000000     0.00000000
 Dipole moment /Debye                            0.00000000     0.00000000     0.00000000
 
 Results for state 10.2 Quartet
 ==============================
 !MCSCF STATE 10.2 Quartet Energy             -213.356716371169
 Nuclear energy                                  0.00000000
 Kinetic energy                                 68.64463472
 One electron energy                          -368.34706171
 Two electron energy                           154.99034534
 Virial ratio                                    4.10813390
 
 !MCSCF STATE 10.2 Quartet Dipole moment         0.00000000     0.00000000     0.00000000
 Dipole moment /Debye                            0.00000000     0.00000000     0.00000000
 
 Results for state 1.2 Doublet
 =============================
 !MCSCF STATE 1.2 Doublet Energy              -213.536624809534
 Nuclear energy                                  0.00000000
 Kinetic energy                                 68.94072253
 One electron energy                          -372.70445541
 Two electron energy                           159.16783060
 Virial ratio                                    4.09739465
 
 !MCSCF STATE 1.2 Doublet Dipole moment          0.00000000     0.00000000     0.00000000
 Dipole moment /Debye                            0.00000000     0.00000000     0.00000000
 
 Results for state 2.2 Doublet
 =============================
 !MCSCF STATE 2.2 Doublet Energy              -213.536624809533
 Nuclear energy                                  0.00000000
 Kinetic energy                                 68.94072253
 One electron energy                          -372.70445541
 Two electron energy                           159.16783060
 Virial ratio                                    4.09739465
 
 !MCSCF STATE 2.2 Doublet Dipole moment          0.00000000     0.00000000     0.00000000
 Dipole moment /Debye                            0.00000000     0.00000000     0.00000000
 
 Results for state 3.2 Doublet
 =============================
 !MCSCF STATE 3.2 Doublet Energy              -213.536624809525
 Nuclear energy                                  0.00000000
 Kinetic energy                                 68.94072253
 One electron energy                          -372.70445541
 Two electron energy                           159.16783061
 Virial ratio                                    4.09739465
 
 !MCSCF STATE 3.2 Doublet Dipole moment          0.00000000     0.00000000     0.00000000
 Dipole moment /Debye                            0.00000000     0.00000000     0.00000000
 
 Results for state 4.2 Doublet
 =============================
 !MCSCF STATE 4.2 Doublet Energy              -213.536624809515
 Nuclear energy                                  0.00000000
 Kinetic energy                                 68.94072253
 One electron energy                          -372.70445541
 Two electron energy                           159.16783060
 Virial ratio                                    4.09739465
 
 !MCSCF STATE 4.2 Doublet Dipole moment          0.00000000     0.00000000     0.00000000
 Dipole moment /Debye                            0.00000000     0.00000000     0.00000000
 
 Results for state 5.2 Doublet
 =============================
 !MCSCF STATE 5.2 Doublet Energy              -213.536624809513
 Nuclear energy                                  0.00000000
 Kinetic energy                                 68.94072253
 One electron energy                          -372.70445541
 Two electron energy                           159.16783060
 Virial ratio                                    4.09739465
 
 !MCSCF STATE 5.2 Doublet Dipole moment          0.00000000     0.00000000     0.00000000
 Dipole moment /Debye                            0.00000000     0.00000000     0.00000000
 
 Results for state 6.2 Doublet
 =============================
 !MCSCF STATE 6.2 Doublet Energy              -213.501083933769
 Nuclear energy                                  0.00000000
 Kinetic energy                                 68.89734174
 One electron energy                          -372.49457373
 Two electron energy                           158.99348979
 Virial ratio                                    4.09882905
 
 !MCSCF STATE 6.2 Doublet Dipole moment          0.00000000     0.00000000     0.00000000
 Dipole moment /Debye                            0.00000000     0.00000000     0.00000000
 
 Results for state 7.2 Doublet
 =============================
 !MCSCF STATE 7.2 Doublet Energy              -213.501083933745
 Nuclear energy                                  0.00000000
 Kinetic energy                                 68.89734174
 One electron energy                          -372.49457373
 Two electron energy                           158.99348980
 Virial ratio                                    4.09882905
 
 !MCSCF STATE 7.2 Doublet Dipole moment          0.00000000     0.00000000     0.00000000
 Dipole moment /Debye                            0.00000000     0.00000000     0.00000000
 
 Results for state 8.2 Doublet
 =============================
 !MCSCF STATE 8.2 Doublet Energy              -213.501083933725
 Nuclear energy                                  0.00000000
 Kinetic energy                                 68.89734174
 One electron energy                          -372.49457373
 Two electron energy                           158.99348979
 Virial ratio                                    4.09882905
 
 !MCSCF STATE 8.2 Doublet Dipole moment          0.00000000     0.00000000     0.00000000
 Dipole moment /Debye                            0.00000000     0.00000000     0.00000000
 
 State-averaged charge density matrix saved on record 2140.2 (density set 1)
 
 No non-zero expectation values
 
 Expectation values for two-electron operators:
 
 ? Warning
 ? Transition properties are only calculated between states of the same symmetry
 ? The problem occurs in mu_properties_expec2

 !MCSCF expec      <1.2 Quartet|LXLX|1.2 Quartet>    -0.000000000000
 !MCSCF expec      <2.2 Quartet|LXLX|2.2 Quartet>     1.000000001651
 !MCSCF expec      <3.2 Quartet|LXLX|3.2 Quartet>     0.649823370195
 !MCSCF expec      <4.2 Quartet|LXLX|4.2 Quartet>     1.000000012518
 !MCSCF expec      <5.2 Quartet|LXLX|5.2 Quartet>     3.999999970669
 !MCSCF expec      <6.2 Quartet|LXLX|6.2 Quartet>     3.350178448826
 !MCSCF expec      <7.2 Quartet|LXLX|7.2 Quartet>     0.000000000007
 !MCSCF expec      <8.2 Quartet|LXLX|8.2 Quartet>     0.999999999880
 !MCSCF expec      <9.2 Quartet|LXLX|9.2 Quartet>     0.000000012643
 !MCSCF expec    <10.2 Quartet|LXLX|10.2 Quartet>     0.999999995045
 !MCSCF expec      <1.2 Doublet|LXLX|1.2 Doublet>     0.219464339201
 !MCSCF expec      <2.2 Doublet|LXLX|2.2 Doublet>     1.000000060458
 !MCSCF expec      <3.2 Doublet|LXLX|3.2 Doublet>     1.000000000032
 !MCSCF expec      <4.2 Doublet|LXLX|4.2 Doublet>     3.999999934041
 !MCSCF expec      <5.2 Doublet|LXLX|5.2 Doublet>     3.780522123306
 !MCSCF expec      <6.2 Doublet|LXLX|6.2 Doublet>     0.999999999842
 !MCSCF expec      <7.2 Doublet|LXLX|7.2 Doublet>     0.999999995968
 !MCSCF expec      <8.2 Doublet|LXLX|8.2 Doublet>     0.000000003332
 
 !MCSCF expec      <1.2 Quartet|LYLY|1.2 Quartet>    -0.000000000000
 !MCSCF expec      <2.2 Quartet|LYLY|2.2 Quartet>     1.000000001842
 !MCSCF expec      <3.2 Quartet|LYLY|3.2 Quartet>     1.397290482261
 !MCSCF expec      <4.2 Quartet|LYLY|4.2 Quartet>     3.999999986816
 !MCSCF expec      <5.2 Quartet|LYLY|5.2 Quartet>     1.000000023716
 !MCSCF expec      <6.2 Quartet|LYLY|6.2 Quartet>     2.602707166675
 !MCSCF expec      <7.2 Quartet|LYLY|7.2 Quartet>     0.000000000007
 !MCSCF expec      <8.2 Quartet|LYLY|8.2 Quartet>     0.999999999614
 !MCSCF expec      <9.2 Quartet|LYLY|9.2 Quartet>     0.999999987399
 !MCSCF expec    <10.2 Quartet|LYLY|10.2 Quartet>     0.000000005869
 !MCSCF expec      <1.2 Doublet|LYLY|1.2 Doublet>     3.679108480003
 !MCSCF expec      <2.2 Doublet|LYLY|2.2 Doublet>     3.999999935967
 !MCSCF expec      <3.2 Doublet|LYLY|3.2 Doublet>     1.000000003850
 !MCSCF expec      <4.2 Doublet|LYLY|4.2 Doublet>     1.000000065952
 !MCSCF expec      <5.2 Doublet|LYLY|5.2 Doublet>     0.320875371998
 !MCSCF expec      <6.2 Doublet|LYLY|6.2 Doublet>     0.000000040259
 !MCSCF expec      <7.2 Doublet|LYLY|7.2 Doublet>     0.999999970156
 !MCSCF expec      <8.2 Doublet|LYLY|8.2 Doublet>     0.999999999933
 
 !MCSCF expec      <1.2 Quartet|LZLZ|1.2 Quartet>    -0.000000000000
 !MCSCF expec      <2.2 Quartet|LZLZ|2.2 Quartet>     3.999999996463
 !MCSCF expec      <3.2 Quartet|LZLZ|3.2 Quartet>     3.952886147500
 !MCSCF expec      <4.2 Quartet|LZLZ|4.2 Quartet>     1.000000000623
 !MCSCF expec      <5.2 Quartet|LZLZ|5.2 Quartet>     1.000000005571
 !MCSCF expec      <6.2 Quartet|LZLZ|6.2 Quartet>     0.047114384456
 !MCSCF expec      <7.2 Quartet|LZLZ|7.2 Quartet>     0.000000000007
 !MCSCF expec      <8.2 Quartet|LZLZ|8.2 Quartet>     0.000000000506
 !MCSCF expec      <9.2 Quartet|LZLZ|9.2 Quartet>     0.999999999957
 !MCSCF expec    <10.2 Quartet|LZLZ|10.2 Quartet>     0.999999999086
 !MCSCF expec      <1.2 Doublet|LZLZ|1.2 Doublet>     2.101427180795
 !MCSCF expec      <2.2 Doublet|LZLZ|2.2 Doublet>     1.000000003574
 !MCSCF expec      <3.2 Doublet|LZLZ|3.2 Doublet>     3.999999996117
 !MCSCF expec      <4.2 Doublet|LZLZ|4.2 Doublet>     1.000000000007
 !MCSCF expec      <5.2 Doublet|LZLZ|5.2 Doublet>     1.898602504695
 !MCSCF expec      <6.2 Doublet|LZLZ|6.2 Doublet>     0.999999959899
 !MCSCF expec      <7.2 Doublet|LZLZ|7.2 Doublet>     0.000000033877
 !MCSCF expec      <8.2 Doublet|LZLZ|8.2 Doublet>     0.999999996736
 
 !MCSCF expec      <1.2 Quartet|L**2|1.2 Quartet>    -0.000000000000
 !MCSCF expec      <2.2 Quartet|L**2|2.2 Quartet>     5.999999999957
 !MCSCF expec      <3.2 Quartet|L**2|3.2 Quartet>     5.999999999957
 !MCSCF expec      <4.2 Quartet|L**2|4.2 Quartet>     5.999999999957
 !MCSCF expec      <5.2 Quartet|L**2|5.2 Quartet>     5.999999999957
 !MCSCF expec      <6.2 Quartet|L**2|6.2 Quartet>     5.999999999957
 !MCSCF expec      <7.2 Quartet|L**2|7.2 Quartet>     0.000000000020
 !MCSCF expec      <8.2 Quartet|L**2|8.2 Quartet>     2.000000000000
 !MCSCF expec      <9.2 Quartet|L**2|9.2 Quartet>     2.000000000000
 !MCSCF expec    <10.2 Quartet|L**2|10.2 Quartet>     2.000000000000
 !MCSCF expec      <1.2 Doublet|L**2|1.2 Doublet>     5.999999999999
 !MCSCF expec      <2.2 Doublet|L**2|2.2 Doublet>     5.999999999999
 !MCSCF expec      <3.2 Doublet|L**2|3.2 Doublet>     5.999999999999
 !MCSCF expec      <4.2 Doublet|L**2|4.2 Doublet>     5.999999999999
 !MCSCF expec      <5.2 Doublet|L**2|5.2 Doublet>     5.999999999999
 !MCSCF expec      <6.2 Doublet|L**2|6.2 Doublet>     2.000000000000
 !MCSCF expec      <7.2 Doublet|L**2|7.2 Doublet>     2.000000000000
 !MCSCF expec      <8.2 Doublet|L**2|8.2 Doublet>     2.000000000000
 
 EXTRA SYMMETRY OF MOS IN SYMMETRY 1:   1 3 5 6 2 4 1 1 4 2   6 3 5 1 4 3 5 2 6 1   4 6 3 5 211 7 81214  151310 9 6 4 5 3 2 1
                                        6 5 3 2 41013111415  12 8 7 9 11310111514   812 7 9 6 5 3 2 4 1  1310111415 812 7 9 5
                                        3 6 2 4221618202724  19232617212528131014  1511 812 7 9 1 5 3 6   2 41310151411 812 7
                                        9 1 5 2 3 6 4 1 5 3   2 6 4 1 1
 EXTRA SYMMETRY OF MOS IN SYMMETRY 2:   2 1 3 1 3 2 2 3 1 1   2 3 2 1 3 4 6 810 5   7 9 4 6 5 810 9 7 2   1 3 5 9 710 8 6 4 9
                                        7 510 8 6 4 2 1 312  18201517141621131911  10 8 9 7 5 6 4201815  1712141621131911 2 1
                                        3 810 7 9 5 6 41820  151712161421131911 7   9 810 5 6 4 2 1 3 7   9 8 510 6 418201517
                                       12161421131911 2 1 3   7 9 5 810 6 4 2 3 1   2 1 3 2 1 3
 
  NATURAL ORBITALS (STATE AVERAGED)
  =================================

  Orbital  Occupation    Energy    Cen Mu Typ  Coefficients
    1.1     2.00000    -6.72385     1  1  s    1.00015
    2.1     2.00000    -1.35211     1  1  d2-  1.00064
    3.1     2.00000    -1.35211     1  1  d2+  1.00064
    4.1     2.00000    -1.35211     1  1  d1-  1.00064
    5.1     2.00000    -1.35211     1  1  d0   1.00064
    6.1     2.00000    -1.35211     1  1  d1+  1.00064
    7.1     2.00000    -0.71402     1  1  s   -0.42013    1  5  s    0.61137    1  6  s    0.46626
    1.2     2.00000    -4.30008     1  1  py   0.99988
    2.2     2.00000    -4.30008     1  1  px   0.99988
    3.2     2.00000    -4.30008     1  1  pz   0.99988
    4.2     0.92555    -0.15658     1  1  px  -0.27574    1  5  px   0.47547    1  6  px   0.37392
    5.2     0.92555    -0.15658     1  1  pz  -0.27574    1  5  pz   0.47547    1  6  pz   0.37392
    6.2     0.92555    -0.15658     1  1  py  -0.27574    1  5  py   0.47547    1  6  py   0.37392
    7.2     0.07244     0.03847     1 12  py   0.83717    1 13  py   0.25668
    8.2     0.07244     0.03847     1 12  pz   0.83717    1 13  pz   0.25668
    9.2     0.07244     0.03847     1 12  px   0.83717    1 13  px   0.25668
   10.2     0.00202     0.38672     1  1  px  -0.29155    1  4  px   0.78630    1  5  px   0.76057    1  6  px  -1.10105
                                    1  7  px  -0.56667    1 12  px   0.55337
   11.2     0.00202     0.38672     1  1  py  -0.29155    1  4  py   0.78630    1  5  py   0.76057    1  6  py  -1.10105
                                    1  7  py  -0.56667    1 12  py   0.55337
   12.2     0.00202     0.38672     1  1  pz  -0.29155    1  4  pz   0.78630    1  5  pz   0.76057    1  6  pz  -1.10105
                                    1  7  pz  -0.56667    1 12  pz   0.55337
 
 Natural orbital dump (state averaged) at molpro section 2140.2 (Orbital set 2)
 
 Transform the CI vectors
 
 CI Coefficients of symmetry 2 (Quartet)
 =======================================

 State:              1               2               3               4               5               6               7
 aaa000000      0.99874220      0.00000000     -0.00000000     -0.00000000     -0.00000000      0.00000001     -0.00175348
 a0a0a0000     -0.00017150      0.00000203      0.08800136     -0.00000909     -0.00000425      0.80606906     -0.56931039
 0aa00a000      0.00017149      0.00000312      0.74207697     -0.00000556     -0.00000417      0.32682312      0.56931037
 0aa0a0000     -0.00000000      0.00001724     -0.00000186     -0.70222410      0.00004413     -0.00000772     -0.00000000
 aa00a0000      0.00000000      0.00001657      0.00000243      0.00004413      0.70222410      0.00000344      0.00000000
 0aaa00000     -0.00000000      0.70222410     -0.00000229      0.00001724     -0.00001657     -0.00000152     -0.00000000
 aa000a000     -0.00000000      0.70222409     -0.00000229      0.00001724     -0.00001657     -0.00000152     -0.00000000
 a0aa00000     -0.00000000     -0.00001657     -0.00000243     -0.00004413     -0.70222409     -0.00000344     -0.00000000
 a0a00a000      0.00000000     -0.00001724      0.00000186      0.70222409     -0.00004413      0.00000772      0.00000000
 aa0a00000      0.00017148     -0.00000109     -0.65407560     -0.00000353     -0.00000008      0.47924596      0.56931037
 0a0a0a000     -0.00740859     -0.00000012     -0.00540524      0.00000056      0.00000026     -0.04951059     -0.07075277
 a00aa0000      0.00740859     -0.00000019     -0.04558004      0.00000034      0.00000026     -0.02007422      0.07075277
 00a0aa000      0.00740859      0.00000007      0.04017480      0.00000022      0.00000000     -0.02943637      0.07075276
 a000a00a0      0.01137017     -0.00000012     -0.00024702      0.00000063      0.00000028     -0.05695194      0.03143027
 00a0a0a00     -0.01137017      0.00000016      0.01204762     -0.00000064     -0.00000031      0.05566363     -0.03143027
 a00a000a0      0.00000000      0.00000123      0.00000018      0.00000327      0.05202140      0.00000025      0.00000000
 0a0a000a0      0.00000000     -0.05202140      0.00000017     -0.00000128      0.00000123      0.00000011      0.00000000
 00a00aa00      0.00000000     -0.00000128      0.00000014      0.05202140     -0.00000327      0.00000057      0.00000000
 0a000aa00     -0.00000000      0.05202140     -0.00000017      0.00000128     -0.00000123     -0.00000011     -0.00000000
 a000a000a     -0.00000000     -0.00000123     -0.00000018     -0.00000327     -0.05202140     -0.00000025     -0.00000000
 00a0a000a     -0.00000000      0.00000128     -0.00000014     -0.05202140      0.00000327     -0.00000057     -0.00000000
 0a000a0a0     -0.01137017     -0.00000021     -0.05422993      0.00000033      0.00000027     -0.01739827     -0.03143027
 
 Energy:     -213.59237967   -213.36052555   -213.36052555   -213.36052555   -213.36052555   -213.36052555   -213.35809896

 State:              8               9              10
 aaa000000     -0.00000000     -0.00000000     -0.00000000
 a0a0a0000      0.00000000     -0.00000000     -0.00000000
 0aa00a000      0.00000000     -0.00000000      0.00000000
 0aa0a0000     -0.00001368     -0.00007877      0.70187782
 aa00a0000      0.00000752      0.70187782      0.00007877
 0aaa00000     -0.70187783      0.00000752     -0.00001368
 aa000a000      0.70187783     -0.00000752      0.00001368
 a0aa00000      0.00000752      0.70187783      0.00007877
 a0a00a000     -0.00001368     -0.00007877      0.70187783
 aa0a00000     -0.00000000      0.00000000      0.00000000
 0a0a0a000      0.00000000     -0.00000000     -0.00000000
 a00aa0000     -0.00000000      0.00000000      0.00000000
 00a0aa000      0.00000000      0.00000000      0.00000000
 a000a00a0     -0.00000000      0.00000000      0.00000000
 00a0a0a00      0.00000000     -0.00000000     -0.00000000
 a00a000a0     -0.00000059     -0.05533451     -0.00000621
 0a0a000a0      0.05533451     -0.00000059      0.00000108
 00a00aa00     -0.00000108     -0.00000621      0.05533451
 0a000aa00      0.05533451     -0.00000059      0.00000108
 a000a000a     -0.00000059     -0.05533451     -0.00000621
 00a0a000a     -0.00000108     -0.00000621      0.05533451
 0a000a0a0     -0.00000000      0.00000000     -0.00000000
 
 Energy:     -213.35671637   -213.35671637   -213.35671637
 
 
 CI Coefficients of symmetry 2 (Doublet)
 =======================================

 State:              1               2               3               4               5               6               7
 baa000000      0.79070756     -0.00000001     -0.00000016      0.00000002     -0.19051150      0.00000000      0.00000000
 aab000000     -0.23036598      0.00000004      0.00000065     -0.00000007      0.78002858      0.00000000     -0.00000000
 2a0000000     -0.00000000     -0.00002431      0.70436837     -0.00000230     -0.00000059     -0.00014034      0.70081690
 0a2000000      0.00000000      0.00002431     -0.70436837      0.00000230      0.00000059     -0.00014034      0.70081690
 a20000000      0.00000000     -0.00009999      0.00000229      0.70436836      0.00000006      0.00000880     -0.00004450
 20a000000      0.00000000      0.70436836      0.00002431      0.00009999     -0.00000003      0.70081690      0.00014034
 a02000000     -0.00000000      0.00009999     -0.00000229     -0.70436836     -0.00000006      0.00000880     -0.00004450
 02a000000     -0.00000000     -0.70436836     -0.00002431     -0.00009999      0.00000003      0.70081690      0.00014034
 aba000000     -0.56034158     -0.00000003     -0.00000049      0.00000005     -0.58951708     -0.00000000     -0.00000000
 aa00b0000      0.00000000     -0.00000401      0.00000009      0.02822128      0.00000000      0.00000068     -0.00000344
 0aa0b0000      0.00000000      0.02822128      0.00000097      0.00000401     -0.00000000     -0.05414119     -0.00001084
 aa000b000      0.00000000      0.00000097     -0.02822128      0.00000009      0.00000002      0.00001084     -0.05414118
 a0a00b000     -0.00000000     -0.02822128     -0.00000097     -0.00000401      0.00000000     -0.05414118     -0.00001084
 a0ab00000     -0.00000000      0.00000401     -0.00000009     -0.02822128     -0.00000000      0.00000068     -0.00000344
 0aab00000      0.00000000      0.00000097     -0.02822128      0.00000009      0.00000002     -0.00001084      0.05414118
 
 Energy:     -213.53662481   -213.53662481   -213.53662481   -213.53662481   -213.53662481   -213.50108393   -213.50108393

 State:              8
 baa000000     -0.00000000
 aab000000      0.00000000
 2a0000000      0.00004450
 0a2000000      0.00004450
 a20000000      0.70081691
 20a000000     -0.00000879
 a02000000      0.70081692
 02a000000     -0.00000879
 aba000000      0.00000000
 aa00b0000      0.05414119
 0aa0b0000      0.00000068
 aa000b000     -0.00000344
 a0a00b000      0.00000068
 a0ab00000      0.05414118
 0aab00000      0.00000344
 
 Energy:     -213.50108393
 


 **********************************************************************************************************************************
 DATASETS  * FILE   NREC   LENGTH (MB)   RECORD NAMES
              1      21      118.64       500      610      700      900      950      970     1000      129      960     1100   
                                          VAR    BASINP    GEOM    SYMINP    ZMAT    AOBASIS   BASIS     P2S    ABASIS      S 
                                         1400     1410     1420     1200     1210     1080     1700     1600     1650     1380   
                                           T        V       ECP      H0       H01     AOSYM    OPER      SMH    MOLCAS    JKOP   
                                         1700(1)
                                         OPER   

              2       4        1.49       700     1000      520     2140   
                                         GEOM     BASIS   MCVARS    MCSCF   

 PROGRAMS   *        TOTAL     MULTI       INT
 CPU TIMES  *        23.84     14.00      9.54
 REAL TIME  *        26.74 SEC
 DISK USED  *       120.25 MB (local),        3.27 GB (total)
 SF USED    *       236.75 MB
 GA USED    *         0.00 MB       (max)       0.00 MB       (current)
 **********************************************************************************************************************************

 Energies and &lt;L**2&gt; values

         ENERGY     LL
    -213.5923797  -0.0
    -213.3605256   6.0
    -213.3605256   6.0
    -213.3605256   6.0
    -213.3605256   6.0
    -213.3605256   6.0
    -213.3580990   0.0
    -213.3567164   2.0
    -213.3567164   2.0
    -213.3567164   2.0
    -213.5366248   6.0
    -213.5366248   6.0
    -213.5366248   6.0
    -213.5366248   6.0
    -213.5366248   6.0
    -213.5010839   2.0
    -213.5010839   2.0
    -213.5010839   2.0
                                                  


 PROGRAM * CI (Multireference internally contracted CI)     Authors: H.-J. Werner, P.J. Knowles, 1987


 Convergence thresholds:  THRVAR = 1.00D-08  THRDEN = 1.00D-06

 Number of optimized states: 10  Roots:   1   2   3   4   5   6   7   8   9  10
 Number of reference states: 10  Roots:   1   2   3   4   5   6   7   8   9  10

 Reference symmetry:                   2   Quartet 
 Number of electrons:                 23
 Maximum number of shells:             4
 Maximum number of spin couplings:    48

 Reference space:       84 conf       84 CSFs
 N elec internal:    49854 conf   199164 CSFs
 N-1 el internal:    22386 conf   136416 CSFs
 N-2 el internal:     4989 conf    57729 CSFs

 Number of electrons in valence space:                     23
 Maximum number of open shell orbitals in reference space:  3
 Maximum number of open shell orbitals in internal spaces:  9


 Number of closed-shell orbitals:  10 (   7   3 )
 Number of active  orbitals:        9 (   0   9 )
 Number of external orbitals:     262 ( 128 134 )

 Molecular orbitals read from record     2140.2  Type=MCSCF/NATURAL (state averaged)

 Valence orbitals related to previous ones by unitary transformation. Operators transformed.


 Number of p-space configurations:  19

 Reference wavefunction optimized for reference space (refopt=1)

 State     Reference Energy 
     1      -213.59237967
     2      -213.36052555
     3      -213.36052555
     4      -213.36052555
     5      -213.36052555
     6      -213.36052555
     7      -213.35809896
     8      -213.35671637
     9      -213.35671637
    10      -213.35671637

 ?WARNING: SMALL EIGENVALUE OF PAIR OVERLAP MATRIX:  0.2401D-06

 ?WARNING: SMALL EIGENVALUE OF PAIR OVERLAP MATRIX:  0.2401D-06

 ?WARNING: SMALL EIGENVALUE OF PAIR OVERLAP MATRIX:  0.2401D-06

 ?WARNING: SMALL EIGENVALUE OF PAIR OVERLAP MATRIX:  0.2401D-06

 ?WARNING: SMALL EIGENVALUE OF PAIR OVERLAP MATRIX:  0.2401D-06

 ?WARNING: SMALL EIGENVALUE OF PAIR OVERLAP MATRIX:  0.2401D-06

 ?WARNING: SMALL EIGENVALUE OF PAIR OVERLAP MATRIX:  0.2401D-06

 ?WARNING: SMALL EIGENVALUE OF PAIR OVERLAP MATRIX:  0.2401D-06

 ?WARNING: SMALL EIGENVALUE OF PAIR OVERLAP MATRIX:  0.2401D-06

 ?WARNING: SMALL EIGENVALUE OF PAIR OVERLAP MATRIX:  0.2401D-06

 ?WARNING: SMALL EIGENVALUE OF PAIR OVERLAP MATRIX:  0.2401D-06

 ?WARNING: SMALL EIGENVALUE OF PAIR OVERLAP MATRIX:  0.2401D-06

 ?WARNING: SMALL EIGENVALUE OF PAIR OVERLAP MATRIX:  0.2401D-06

 ?WARNING: SMALL EIGENVALUE OF PAIR OVERLAP MATRIX:  0.2401D-06

 ?WARNING: SMALL EIGENVALUE OF PAIR OVERLAP MATRIX:  0.2401D-06

 ?WARNING: SMALL EIGENVALUE OF PAIR OVERLAP MATRIX:  0.2401D-06

 ?WARNING: SMALL EIGENVALUE OF PAIR OVERLAP MATRIX:  0.2401D-06

 ?WARNING: SMALL EIGENVALUE OF PAIR OVERLAP MATRIX:  0.2401D-06

 ?WARNING: SMALL EIGENVALUE OF PAIR OVERLAP MATRIX:  0.2401D-06

 ?WARNING: SMALL EIGENVALUE OF PAIR OVERLAP MATRIX:  0.2401D-06

 Number of blocks in overlap matrix:  1041   Smallest eigenvalue:  0.24D-06
 Number of N-2 electron functions:    1729
 Number of N-1 electron functions:  136416

 Number of internal configurations:               109200
 Number of singly external configurations:      17913336
 Number of doubly external configurations:      29682219
 Total number of contracted configurations:     47704755
 Total number of uncontracted configurations: 1006932663

 Diagonal Coupling coefficients finished.               Storage:  54833412 words, CPU-Time:     79.14 seconds.
 Energy denominators for pairs finished in 1 passes.    Storage:   5506953 words, CPU-time:      8.11 seconds.

  ITER. STATE  ROOT     SQ.NORM     CORR.ENERGY   TOTAL ENERGY   ENERGY CHANGE       DEN1      VAR(S)    VAR(P)      TIME
    1     1     1     1.00000000     0.00000000  -213.59237967    -0.00000000    -0.99775934  0.57D-01  0.11D+00   143.23
    1     2     2     1.00000000     0.00000000  -213.36052555    -0.00000000    -0.96432251  0.50D-01  0.98D-01   143.23
    1     3     3     1.00000000     0.00000000  -213.36052555    -0.00000000    -0.96440744  0.50D-01  0.98D-01   143.23
    1     4     4     1.00000000     0.00000000  -213.36052555     0.00000000    -0.96412106  0.50D-01  0.98D-01   143.23
    1     5     5     1.00000000     0.00000000  -213.36052555     0.00000000    -0.96439853  0.51D-01  0.98D-01   143.23
    1     6     6     1.00000000     0.00000000  -213.36052555     0.00000000    -0.96432943  0.51D-01  0.98D-01   143.23
    1     7     7     1.00000000     0.00000000  -213.35809896    -0.00000000    -0.96534667  0.51D-01  0.97D-01   143.23
    1     8     8     1.00000000     0.00000000  -213.35671637    -0.00000000    -0.96456646  0.50D-01  0.98D-01   143.23
    1     9     9     1.00000000     0.00000000  -213.35671637    -0.00000000    -0.96491698  0.50D-01  0.98D-01   143.23
    1    10    10     1.00000000     0.00000000  -213.35671637    -0.00000000    -0.96495148  0.50D-01  0.98D-01   143.23
    2     1     1     1.10275441    -0.79461365  -214.38699332    -0.79461365    -0.02814655  0.41D-02  0.19D-02  3853.42
    2     2     2     1.09696958    -0.79062527  -214.15115082    -0.79062527    -0.02281959  0.29D-02  0.14D-02  3853.42
    2     3     3     1.09699824    -0.79060035  -214.15112590    -0.79060035    -0.02284666  0.29D-02  0.14D-02  3853.42
    2     4     4     1.09704280    -0.79053339  -214.15105894    -0.79053339    -0.02292961  0.29D-02  0.14D-02  3853.42
    2     5     5     1.09709645    -0.79047146  -214.15099701    -0.79047146    -0.02299555  0.30D-02  0.14D-02  3853.42
    2     6     6     1.09711279    -0.79044365  -214.15096921    -0.79044365    -0.02302084  0.30D-02  0.14D-02  3853.42
    2     7     7     1.09710262    -0.79037992  -214.14847888    -0.79037992    -0.02318891  0.30D-02  0.14D-02  3853.42
    2     8     8     1.09689675    -0.79071843  -214.14743481    -0.79071843    -0.02289360  0.29D-02  0.14D-02  3853.42
    2     9     9     1.09691402    -0.79068124  -214.14739761    -0.79068124    -0.02294206  0.28D-02  0.14D-02  3853.42
    2    10    10     1.09695958    -0.79062480  -214.14734117    -0.79062480    -0.02300412  0.29D-02  0.14D-02  3853.42
    3     1     1     1.08821564    -0.82080699  -214.41318666    -0.02619334    -0.00032004  0.45D-04  0.26D-04  7559.29
    3     2     2     1.08556487    -0.81215297  -214.17267852    -0.02152770    -0.00023746  0.32D-04  0.18D-04  7559.29
    3     3     3     1.08556074    -0.81215271  -214.17267826    -0.02155236    -0.00023769  0.33D-04  0.18D-04  7559.29
    3     4     4     1.08556170    -0.81215170  -214.17267725    -0.02161831    -0.00023894  0.32D-04  0.19D-04  7559.29
    3     5     5     1.08555934    -0.81215080  -214.17267636    -0.02167935    -0.00023980  0.33D-04  0.19D-04  7559.29
    3     6     6     1.08556099    -0.81215059  -214.17267614    -0.02170693    -0.00024022  0.33D-04  0.19D-04  7559.29
    3     7     7     1.08552836    -0.81218585  -214.17028481    -0.02180593    -0.00023912  0.30D-04  0.19D-04  7559.29
    3     8     8     1.08557340    -0.81228312  -214.16899949    -0.02156468    -0.00023110  0.28D-04  0.19D-04  7559.29
    3     9     9     1.08557384    -0.81228111  -214.16899748    -0.02159986    -0.00023304  0.28D-04  0.19D-04  7559.29
    3    10    10     1.08557276    -0.81228105  -214.16899742    -0.02165625    -0.00023323  0.28D-04  0.19D-04  7559.29
    4     1     1     1.08771489    -0.82112996  -214.41350963    -0.00032297    -0.00000776  0.14D-05  0.66D-06 11264.71
    4     2     2     1.08527202    -0.81239790  -214.17292345    -0.00024493    -0.00000624  0.13D-05  0.44D-06 11264.71
    4     3     3     1.08527184    -0.81239787  -214.17292342    -0.00024516    -0.00000625  0.12D-05  0.44D-06 11264.71
    4     4     4     1.08527130    -0.81239784  -214.17292339    -0.00024614    -0.00000626  0.12D-05  0.44D-06 11264.71
    4     5     5     1.08527174    -0.81239784  -214.17292339    -0.00024703    -0.00000625  0.13D-05  0.44D-06 11264.71
    4     6     6     1.08527104    -0.81239783  -214.17292338    -0.00024724    -0.00000626  0.12D-05  0.44D-06 11264.71
    4     7     7     1.08526004    -0.81243115  -214.17053011    -0.00024530    -0.00000629  0.13D-05  0.41D-06 11264.71
    4     8     8     1.08530538    -0.81252006  -214.16923643    -0.00023694    -0.00000568  0.11D-05  0.40D-06 11264.71
    4     9     9     1.08530485    -0.81252002  -214.16923639    -0.00023891    -0.00000572  0.11D-05  0.41D-06 11264.71
    4    10    10     1.08530413    -0.81251996  -214.16923633    -0.00023891    -0.00000577  0.11D-05  0.42D-06 11264.71
    5     1     1     1.08776175    -0.82113817  -214.41351784    -0.00000821    -0.00000021  0.22D-07  0.22D-07 14962.35
    5     2     2     1.08530251    -0.81240460  -214.17293016    -0.00000670    -0.00000019  0.27D-07  0.15D-07 14962.35
    5     3     3     1.08530289    -0.81240460  -214.17293015    -0.00000673    -0.00000019  0.27D-07  0.15D-07 14962.35
    5     4     4     1.08530250    -0.81240456  -214.17293011    -0.00000672    -0.00000019  0.27D-07  0.15D-07 14962.35
    5     5     5     1.08530260    -0.81240456  -214.17293011    -0.00000672    -0.00000019  0.27D-07  0.15D-07 14962.35
    5     6     6     1.08530277    -0.81240456  -214.17293011    -0.00000673    -0.00000019  0.27D-07  0.15D-07 14962.35
    5     7     7     1.08528846    -0.81243787  -214.17053683    -0.00000672    -0.00000020  0.29D-07  0.15D-07 14962.35
    5     8     8     1.08533748    -0.81252614  -214.16924251    -0.00000608    -0.00000017  0.23D-07  0.13D-07 14962.35
    5     9     9     1.08533762    -0.81252614  -214.16924251    -0.00000612    -0.00000017  0.22D-07  0.14D-07 14962.35
    5    10    10     1.08533756    -0.81252614  -214.16924251    -0.00000618    -0.00000017  0.23D-07  0.14D-07 14962.35
    6     1     1     1.08776345    -0.82113840  -214.41351807    -0.00000023    -0.00000001  0.68D-09  0.65D-09 18661.60
    6     2     2     1.08530737    -0.81240481  -214.17293036    -0.00000020    -0.00000001  0.68D-09  0.54D-09 18661.60
    6     3     3     1.08530746    -0.81240481  -214.17293036    -0.00000021    -0.00000001  0.68D-09  0.57D-09 18661.60
    6     4     4     1.08530734    -0.81240476  -214.17293032    -0.00000020    -0.00000001  0.68D-09  0.55D-09 18661.60
    6     5     5     1.08530732    -0.81240476  -214.17293032    -0.00000020    -0.00000001  0.68D-09  0.55D-09 18661.60
    6     6     6     1.08530738    -0.81240476  -214.17293032    -0.00000020    -0.00000001  0.67D-09  0.57D-09 18661.60
    6     7     7     1.08529430    -0.81243808  -214.17053704    -0.00000021    -0.00000001  0.81D-09  0.55D-09 18661.60
    6     8     8     1.08534314    -0.81252632  -214.16924269    -0.00000018    -0.00000000  0.58D-09  0.44D-09 18661.60
    6     9     9     1.08534315    -0.81252632  -214.16924269    -0.00000018    -0.00000000  0.59D-09  0.42D-09 18661.60
    6    10    10     1.08534315    -0.81252632  -214.16924269    -0.00000018    -0.00000000  0.59D-09  0.42D-09 18661.60


 =====================================
 Analysis of CPU times by interactions
 =====================================

       I      S      P

 I   0.9%
 S   0.4%  68.5%
 P   0.2%  16.2%   6.8%

 Initialization:   0.5%
 Other:            6.5%

 Total CPU:    18661.6 seconds
 =====================================



 Wavefunction saved on  5302.2

 Reference coefficients greater than 0.0500000
 =============================================
 2222222222///000000           0.9570110   0.0000000  -0.0000000   0.0000000   0.0000000  -0.0000000   0.0138771   0.0000000
                               0.0000000  -0.0000000
 2222222222//0/00000          -0.0093723   0.7752743  -0.0378219   0.0000558   0.0000656  -0.0000840   0.5449646   0.0000000
                               0.0000000  -0.0000000
 22222222220//00/000          -0.0093723  -0.3548823   0.6903182   0.0000558  -0.0000981   0.0000399   0.5449645   0.0000000
                               0.0000000   0.0000000
 2222222222//000/000           0.0000000  -0.0000494  -0.0000812   0.6716387   0.0012646   0.0275755  -0.0000000   0.0560980
                              -0.4577185   0.4886276
 22222222220///00000           0.0000000  -0.0000495  -0.0000811   0.6716387   0.0012646   0.0275755  -0.0000000  -0.0560980
                               0.4577185  -0.4886276
 2222222222//00/0000           0.0000000  -0.0000489   0.0000681  -0.0029111   0.6710005   0.0401309  -0.0000000  -0.0583231
                               0.4851350   0.4611427
 2222222222/0//00000           0.0000000   0.0000489  -0.0000681   0.0029111  -0.6710004  -0.0401309   0.0000000  -0.0583231
                               0.4851350   0.4611428
 22222222220//0/0000           0.0000000   0.0000780  -0.0000021  -0.0274505  -0.0402165   0.6704399  -0.0000000   0.6669795
                               0.0809196  -0.0007733
 2222222222/0/00/000          -0.0000000  -0.0000780   0.0000021   0.0274505   0.0402165  -0.6704399  -0.0000000   0.6669795
                               0.0809196  -0.0007733
 2222222222/0/0/0000           0.0093723   0.4203919   0.6524962   0.0001117  -0.0000325  -0.0000442  -0.5449645  -0.0000000
                              -0.0000000  -0.0000000
 222222222200/0//000           0.0059966  -0.0494704   0.0024134  -0.0000036  -0.0000042   0.0000054   0.0704264   0.0000000
                               0.0000000   0.0000000
 22222222220/0/0/000          -0.0059970  -0.0268253  -0.0416359  -0.0000071   0.0000021   0.0000028  -0.0704261  -0.0000000
                               0.0000000   0.0000000
 2222222222/00//0000           0.0059970   0.0226451  -0.0440493  -0.0000036   0.0000063  -0.0000025   0.0704261   0.0000000
                               0.0000000  -0.0000000
 2222222222/00/0000/          -0.0100118  -0.0598940  -0.0024740  -0.0000050  -0.0000045   0.0000065  -0.0342661  -0.0000000
                               0.0000000   0.0000000
 22222222220/0/00/00           0.0100118   0.0593687  -0.0082922   0.0000036   0.0000056  -0.0000064   0.0342661   0.0000000
                               0.0000000   0.0000000
 222222222200/0/000/           0.0000000   0.0000063  -0.0000002  -0.0022214  -0.0032545   0.0542556  -0.0000000   0.0571194
                               0.0069299  -0.0000662
 222222222200/00//00          -0.0000000  -0.0000063   0.0000002   0.0022214   0.0032545  -0.0542555  -0.0000000   0.0571193
                               0.0069299  -0.0000662
 222222222200/00/00/           0.0100119  -0.0225031   0.0555610   0.0000050  -0.0000074   0.0000026   0.0342660  -0.0000000
                               0.0000000  -0.0000000
 22222222220/000//00           0.0000000  -0.0000040  -0.0000066   0.0543526   0.0001023   0.0022316  -0.0000000   0.0048042
                              -0.0391985   0.0418455
 22222222220/0/000/0          -0.0000000   0.0000040   0.0000066  -0.0543525  -0.0001023  -0.0022316   0.0000000   0.0048042
                              -0.0391984   0.0418454
 2222222222/000/000/          -0.0000000   0.0000040  -0.0000055   0.0002356  -0.0543010  -0.0032476   0.0000000   0.0049947
                              -0.0415464  -0.0394918
 2222222222/00/000/0          -0.0000000  -0.0000040   0.0000055  -0.0002356   0.0543008   0.0032476  -0.0000000   0.0049947
                              -0.0415463  -0.0394917
 222222222200/0/0/00          -0.0100119   0.0278045   0.0531067   0.0000086  -0.0000032  -0.0000029  -0.0342660   0.0000000
                              -0.0000000   0.0000000
 22222222220/000/0/0          -0.0100119   0.0320894  -0.0506327  -0.0000036   0.0000077  -0.0000036  -0.0342661  -0.0000000
                              -0.0000000  -0.0000000

 Coefficients of fixed reference functions:
 ==========================================

 State      Coefficients
 1           0.957842    0.000000   -0.000000   -0.000000    0.000000    0.000000   -0.015729   -0.000000    0.000000   -0.000000
 2           0.000000   -0.000070   -0.744768    0.000111   -0.000070    0.602967    0.000000    0.000000    0.000000    0.000000
 3          -0.000000   -0.000116    0.602967   -0.000003    0.000097    0.744768   -0.000000   -0.000000    0.000000    0.000000
 4           0.000000    0.957445    0.000015   -0.039132   -0.004150    0.000137    0.000000    0.000000   -0.000000    0.000000
 5           0.000000    0.001803   -0.000120   -0.057330    0.956535   -0.000027    0.000000    0.000000    0.000000   -0.000000
 6           0.000000    0.039310    0.000082    0.955736    0.057208   -0.000064    0.000000   -0.000000   -0.000000    0.000000
 7           0.015972   -0.000000   -0.000000   -0.000000   -0.000000    0.000000    0.958155    0.000000   -0.000000   -0.000000
 8           0.000000   -0.000000    0.000000   -0.000000    0.000000   -0.000000    0.000000    0.080007   -0.083181    0.951252
 9           0.000000    0.000000    0.000000   -0.000000   -0.000000   -0.000000    0.000000   -0.652802    0.691904    0.115408
 10         -0.000000   -0.000000    0.000000    0.000000   -0.000000   -0.000000    0.000000    0.696885    0.657686   -0.001103

 Coefficients of rotated reference functions:
 ============================================

 State      Coefficients
 1           0.957971    0.000000   -0.000000    0.000000    0.000000   -0.000000    0.000119   -0.000000   -0.000000   -0.000000
 2           0.000000    0.958253    0.000000   -0.000000    0.000000    0.000000    0.000000   -0.000000   -0.000000   -0.000000
 3          -0.000000    0.000000    0.958253    0.000000   -0.000000    0.000000   -0.000000   -0.000000   -0.000000   -0.000000
 4           0.000000   -0.000000    0.000000    0.958253   -0.000000    0.000000   -0.000000    0.000000   -0.000000    0.000000
 5           0.000000    0.000000   -0.000000   -0.000000    0.958253    0.000000   -0.000000   -0.000000    0.000000    0.000000
 6          -0.000000    0.000000    0.000000    0.000000    0.000000    0.958253   -0.000000   -0.000000    0.000000    0.000000
 7           0.000119    0.000000   -0.000000   -0.000000   -0.000000   -0.000000    0.958288    0.000000   -0.000000    0.000000
 8          -0.000000   -0.000000   -0.000000    0.000000   -0.000000   -0.000000    0.000000    0.958228    0.000000   -0.000000
 9          -0.000000   -0.000000   -0.000000   -0.000000    0.000000    0.000000   -0.000000    0.000000    0.958228    0.000000
 10         -0.000000   -0.000000   -0.000000    0.000000    0.000000    0.000000    0.000000   -0.000000    0.000000    0.958228


 RESULTS FOR STATE 1.2
 =====================

 Coefficient of reference function:   C(0) = 0.95784215 (fixed)   0.95806853 (relaxed)   0.95797128 (rotated)

 Energy contributions of configuration classes

 CLASS          SQ.NORM        ECORR1        ECORR2
 +++++++++++++++++++++++++++++++++++++++++++++++++++
 Internals    0.00175278   -0.00573385   -0.66908257
 Singles      0.01993027   -0.09349843   -0.10082726
 Pairs        0.06798701    0.00000000   -0.05122857
 Total        1.08967006   -0.09923227   -0.82113840
 +++++++++++++++++++++++++++++++++++++++++++++++++++


 Reference energy                    -213.59231555
 Nuclear energy                         0.00000000
 Kinetic energy                        69.52811023
 One electron energy                 -372.52842230
 Two electron energy                  158.11490422
 Virial quotient                       -3.08383929
 Correlation energy                    -0.82120252
 !MRCI STATE 1.2 Energy              -214.413518071837

 Properties without orbital relaxation:

 !MRCI STATE 1.2 Dipole moment          0.00000000     0.00000000     0.00000000
 Dipole moment /Debye                   0.00000000     0.00000000     0.00000000

 Cluster corrected energies          -214.48715535 (Davidson, fixed reference)
 Cluster corrected energies          -214.48697370 (Davidson, relaxed reference)
 Cluster corrected energies          -214.48715535 (Davidson, rotated reference)

 Cluster corrected energies          -214.48485337 (Pople, fixed reference)
 Cluster corrected energies          -214.48466415 (Pople, relaxed reference)
 Cluster corrected energies          -214.48485337 (Pople, rotated reference)



 RESULTS FOR STATE 2.2
 =====================

 Maximum overlap with reference state  3

 Coefficient of reference function:   C(0) = 0.74476821 (fixed)   0.95832190 (relaxed)   0.95825294 (rotated)

 Energy contributions of configuration classes

 CLASS          SQ.NORM        ECORR1        ECORR2
 +++++++++++++++++++++++++++++++++++++++++++++++++++
 Internals    0.00342965   -0.00960376   -0.65915465
 Singles      0.02123960   -0.09735215   -0.10524137
 Pairs        0.06436035   -0.00000000   -0.04800879
 Total        1.08902960   -0.10695591   -0.81240481
 +++++++++++++++++++++++++++++++++++++++++++++++++++


 Reference energy                    -213.36052555
 Nuclear energy                         0.00000000
 Kinetic energy                        69.30091276
 One electron energy                 -368.13331737
 Two electron energy                  153.96038702
 Virial quotient                       -3.09047777
 Correlation energy                    -0.81240481
 !MRCI STATE 2.2 Energy              -214.172930358714

 Properties without orbital relaxation:

 !MRCI STATE 2.2 Dipole moment          0.00000000     0.00000000     0.00000000
 Dipole moment /Debye                   0.00000000     0.00000000     0.00000000

 Cluster corrected energies          -214.24525843 (Davidson, fixed reference)
 Cluster corrected energies          -214.24513110 (Davidson, relaxed reference)
 Cluster corrected energies          -214.24525843 (Davidson, rotated reference)

 Cluster corrected energies          -214.24295962 (Pople, fixed reference)
 Cluster corrected energies          -214.24282712 (Pople, relaxed reference)
 Cluster corrected energies          -214.24295962 (Pople, rotated reference)



 RESULTS FOR STATE 3.2
 =====================

 Maximum overlap with reference state  6

 Coefficient of reference function:   C(0) = 0.74476818 (fixed)   0.95832186 (relaxed)   0.95825290 (rotated)

 Energy contributions of configuration classes

 CLASS          SQ.NORM        ECORR1        ECORR2
 +++++++++++++++++++++++++++++++++++++++++++++++++++
 Internals    0.00342965   -0.00960376   -0.65915455
 Singles      0.02123973   -0.09735220   -0.10524144
 Pairs        0.06436030   -0.00000000   -0.04800881
 Total        1.08902968   -0.10695596   -0.81240481
 +++++++++++++++++++++++++++++++++++++++++++++++++++


 Reference energy                    -213.36052555
 Nuclear energy                         0.00000000
 Kinetic energy                        69.30091388
 One electron energy                 -368.13332144
 Two electron energy                  153.96039109
 Virial quotient                       -3.09047772
 Correlation energy                    -0.81240481
 !MRCI STATE 3.2 Energy              -214.172930358593

 Properties without orbital relaxation:

 !MRCI STATE 3.2 Dipole moment          0.00000000     0.00000000     0.00000000
 Dipole moment /Debye                   0.00000000     0.00000000     0.00000000

 Cluster corrected energies          -214.24525850 (Davidson, fixed reference)
 Cluster corrected energies          -214.24513117 (Davidson, relaxed reference)
 Cluster corrected energies          -214.24525850 (Davidson, rotated reference)

 Cluster corrected energies          -214.24295969 (Pople, fixed reference)
 Cluster corrected energies          -214.24282719 (Pople, relaxed reference)
 Cluster corrected energies          -214.24295969 (Pople, rotated reference)



 RESULTS FOR STATE 4.2
 =====================

 Maximum overlap with reference state  2

 Coefficient of reference function:   C(0) = 0.95744461 (fixed)   0.95832192 (relaxed)   0.95825295 (rotated)

 Energy contributions of configuration classes

 CLASS          SQ.NORM        ECORR1        ECORR2
 +++++++++++++++++++++++++++++++++++++++++++++++++++
 Internals    0.00342965   -0.00960376   -0.65915465
 Singles      0.02123959   -0.09735213   -0.10524132
 Pairs        0.06436032   -0.00000000   -0.04800879
 Total        1.08902956   -0.10695589   -0.81240476
 +++++++++++++++++++++++++++++++++++++++++++++++++++


 Reference energy                    -213.36052555
 Nuclear energy                         0.00000000
 Kinetic energy                        69.30091066
 One electron energy                 -368.13331634
 Two electron energy                  153.96038603
 Virial quotient                       -3.09047786
 Correlation energy                    -0.81240476
 !MRCI STATE 4.2 Energy              -214.172930316634

 Properties without orbital relaxation:

 !MRCI STATE 4.2 Dipole moment          0.00000000     0.00000000     0.00000000
 Dipole moment /Debye                   0.00000000     0.00000000     0.00000000

 Cluster corrected energies          -214.24525836 (Davidson, fixed reference)
 Cluster corrected energies          -214.24513102 (Davidson, relaxed reference)
 Cluster corrected energies          -214.24525836 (Davidson, rotated reference)

 Cluster corrected energies          -214.24295955 (Pople, fixed reference)
 Cluster corrected energies          -214.24282704 (Pople, relaxed reference)
 Cluster corrected energies          -214.24295955 (Pople, rotated reference)



 RESULTS FOR STATE 5.2
 =====================

 Coefficient of reference function:   C(0) = 0.95653476 (fixed)   0.95832192 (relaxed)   0.95825296 (rotated)

 Energy contributions of configuration classes

 CLASS          SQ.NORM        ECORR1        ECORR2
 +++++++++++++++++++++++++++++++++++++++++++++++++++
 Internals    0.00342965   -0.00960376   -0.65915466
 Singles      0.02123958   -0.09735213   -0.10524131
 Pairs        0.06436032    0.00000000   -0.04800879
 Total        1.08902954   -0.10695589   -0.81240476
 +++++++++++++++++++++++++++++++++++++++++++++++++++


 Reference energy                    -213.36052555
 Nuclear energy                         0.00000000
 Kinetic energy                        69.30091190
 One electron energy                 -368.13331744
 Two electron energy                  153.96038712
 Virial quotient                       -3.09047781
 Correlation energy                    -0.81240476
 !MRCI STATE 5.2 Energy              -214.172930316620

 Properties without orbital relaxation:

 !MRCI STATE 5.2 Dipole moment          0.00000000     0.00000000     0.00000000
 Dipole moment /Debye                   0.00000000     0.00000000     0.00000000

 Cluster corrected energies          -214.24525834 (Davidson, fixed reference)
 Cluster corrected energies          -214.24513101 (Davidson, relaxed reference)
 Cluster corrected energies          -214.24525834 (Davidson, rotated reference)

 Cluster corrected energies          -214.24295953 (Pople, fixed reference)
 Cluster corrected energies          -214.24282703 (Pople, relaxed reference)
 Cluster corrected energies          -214.24295953 (Pople, rotated reference)



 RESULTS FOR STATE 6.2
 =====================

 Maximum overlap with reference state  4

 Coefficient of reference function:   C(0) = 0.95573566 (fixed)   0.95832190 (relaxed)   0.95825293 (rotated)

 Energy contributions of configuration classes

 CLASS          SQ.NORM        ECORR1        ECORR2
 +++++++++++++++++++++++++++++++++++++++++++++++++++
 Internals    0.00342965   -0.00960376   -0.65915460
 Singles      0.02123965   -0.09735216   -0.10524136
 Pairs        0.06436030    0.00000001   -0.04800880
 Total        1.08902960   -0.10695591   -0.81240476
 +++++++++++++++++++++++++++++++++++++++++++++++++++


 Reference energy                    -213.36052555
 Nuclear energy                         0.00000000
 Kinetic energy                        69.30091227
 One electron energy                 -368.13331909
 Two electron energy                  153.96038878
 Virial quotient                       -3.09047779
 Correlation energy                    -0.81240476
 !MRCI STATE 6.2 Energy              -214.172930316530

 Properties without orbital relaxation:

 !MRCI STATE 6.2 Dipole moment          0.00000000     0.00000000     0.00000000
 Dipole moment /Debye                   0.00000000     0.00000000     0.00000000

 Cluster corrected energies          -214.24525839 (Davidson, fixed reference)
 Cluster corrected energies          -214.24513106 (Davidson, relaxed reference)
 Cluster corrected energies          -214.24525839 (Davidson, rotated reference)

 Cluster corrected energies          -214.24295958 (Pople, fixed reference)
 Cluster corrected energies          -214.24282708 (Pople, relaxed reference)
 Cluster corrected energies          -214.24295958 (Pople, rotated reference)



 RESULTS FOR STATE 7.2
 =====================

 Coefficient of reference function:   C(0) = 0.95815500 (fixed)   0.95836444 (relaxed)   0.95828811 (rotated)

 Energy contributions of configuration classes

 CLASS          SQ.NORM        ECORR1        ECORR2
 +++++++++++++++++++++++++++++++++++++++++++++++++++
 Internals    0.00336808   -0.00948799   -0.65896995
 Singles      0.02135898   -0.09758934   -0.10555669
 Pairs        0.06422259    0.00000001   -0.04791144
 Total        1.08894966   -0.10707733   -0.81243808
 +++++++++++++++++++++++++++++++++++++++++++++++++++


 Reference energy                    -213.35816308
 Nuclear energy                         0.00000000
 Kinetic energy                        69.30418581
 One electron energy                 -368.11758397
 Two electron energy                  153.94704693
 Virial quotient                       -3.09029728
 Correlation energy                    -0.81237396
 !MRCI STATE 7.2 Energy              -214.170537040847

 Properties without orbital relaxation:

 !MRCI STATE 7.2 Dipole moment          0.00000000     0.00000000     0.00000000
 Dipole moment /Debye                   0.00000000     0.00000000     0.00000000

 Cluster corrected energies          -214.24279743 (Davidson, fixed reference)
 Cluster corrected energies          -214.24265651 (Davidson, relaxed reference)
 Cluster corrected energies          -214.24279743 (Davidson, rotated reference)

 Cluster corrected energies          -214.24049606 (Pople, fixed reference)
 Cluster corrected energies          -214.24034944 (Pople, relaxed reference)
 Cluster corrected energies          -214.24049606 (Pople, rotated reference)



 RESULTS FOR STATE 8.2
 =====================

 Maximum overlap with reference state 10

 Coefficient of reference function:   C(0) = 0.95125168 (fixed)   0.95829156 (relaxed)   0.95822754 (rotated)

 Energy contributions of configuration classes

 CLASS          SQ.NORM        ECORR1        ECORR2
 +++++++++++++++++++++++++++++++++++++++++++++++++++
 Internals    0.00344976   -0.00963241   -0.01613532
 Singles      0.02114544   -0.09721857   -0.10504511
 Pairs        0.06449211   -0.70053800   -0.69134589
 Total        1.08908731   -0.80738898   -0.81252632
 +++++++++++++++++++++++++++++++++++++++++++++++++++


 Reference energy                    -213.35671637
 Nuclear energy                         0.00000000
 Kinetic energy                        69.30140262
 One electron energy                 -368.11638930
 Two electron energy                  153.94714660
 Virial quotient                       -3.09040271
 Correlation energy                    -0.81252632
 !MRCI STATE 8.2 Energy              -214.169242692883

 Properties without orbital relaxation:

 !MRCI STATE 8.2 Dipole moment          0.00000000     0.00000000     0.00000000
 Dipole moment /Debye                   0.00000000     0.00000000     0.00000000

 Cluster corrected energies          -214.24162848 (Davidson, fixed reference)
 Cluster corrected energies          -214.24151026 (Davidson, relaxed reference)
 Cluster corrected energies          -214.24162848 (Davidson, rotated reference)

 Cluster corrected energies          -214.23933124 (Pople, fixed reference)
 Cluster corrected energies          -214.23920821 (Pople, relaxed reference)
 Cluster corrected energies          -214.23933124 (Pople, rotated reference)



 RESULTS FOR STATE 9.2
 =====================

 Coefficient of reference function:   C(0) = 0.69190359 (fixed)   0.95829155 (relaxed)   0.95822754 (rotated)

 Energy contributions of configuration classes

 CLASS          SQ.NORM        ECORR1        ECORR2
 +++++++++++++++++++++++++++++++++++++++++++++++++++
 Internals    0.00344976   -0.00963242   -0.58133063
 Singles      0.02114546   -0.09721856   -0.10504512
 Pairs        0.06449210   -0.08499097   -0.12615057
 Total        1.08908733   -0.19184194   -0.81252632
 +++++++++++++++++++++++++++++++++++++++++++++++++++


 Reference energy                    -213.35671637
 Nuclear energy                         0.00000000
 Kinetic energy                        69.30140134
 One electron energy                 -368.11638738
 Two electron energy                  153.94714468
 Virial quotient                       -3.09040277
 Correlation energy                    -0.81252632
 !MRCI STATE 9.2 Energy              -214.169242692846

 Properties without orbital relaxation:

 !MRCI STATE 9.2 Dipole moment          0.00000000     0.00000000     0.00000000
 Dipole moment /Debye                   0.00000000     0.00000000     0.00000000

 Cluster corrected energies          -214.24162849 (Davidson, fixed reference)
 Cluster corrected energies          -214.24151027 (Davidson, relaxed reference)
 Cluster corrected energies          -214.24162849 (Davidson, rotated reference)

 Cluster corrected energies          -214.23933125 (Pople, fixed reference)
 Cluster corrected energies          -214.23920822 (Pople, relaxed reference)
 Cluster corrected energies          -214.23933125 (Pople, rotated reference)



 RESULTS FOR STATE 10.2
 ======================

 Maximum overlap with reference state  8

 Coefficient of reference function:   C(0) = 0.69688479 (fixed)   0.95829155 (relaxed)   0.95822754 (rotated)

 Energy contributions of configuration classes

 CLASS          SQ.NORM        ECORR1        ECORR2
 +++++++++++++++++++++++++++++++++++++++++++++++++++
 Internals    0.00344976   -0.00963242   -0.66011507
 Singles      0.02114546   -0.09721856   -0.10504513
 Pairs        0.06449210    0.00081217   -0.04736613
 Total        1.08908733   -0.10603881   -0.81252632
 +++++++++++++++++++++++++++++++++++++++++++++++++++


 Reference energy                    -213.35671637
 Nuclear energy                         0.00000000
 Kinetic energy                        69.30140125
 One electron energy                 -368.11638733
 Two electron energy                  153.94714463
 Virial quotient                       -3.09040277
 Correlation energy                    -0.81252632
 !MRCI STATE 10.2 Energy             -214.169242692841

 Properties without orbital relaxation:

 !MRCI STATE 10.2 Dipole moment         0.00000000     0.00000000     0.00000000
 Dipole moment /Debye                   0.00000000     0.00000000     0.00000000

 Cluster corrected energies          -214.24162849 (Davidson, fixed reference)
 Cluster corrected energies          -214.24151027 (Davidson, relaxed reference)
 Cluster corrected energies          -214.24162849 (Davidson, rotated reference)

 Cluster corrected energies          -214.23933125 (Pople, fixed reference)
 Cluster corrected energies          -214.23920822 (Pople, relaxed reference)
 Cluster corrected energies          -214.23933125 (Pople, rotated reference)



 **********************************************************************************************************************************
 DATASETS  * FILE   NREC   LENGTH (MB)   RECORD NAMES
              1      21      118.64       500      610      700      900      950      970     1000      129      960     1100   
                                          VAR    BASINP    GEOM    SYMINP    ZMAT    AOBASIS   BASIS     P2S    ABASIS      S 
                                         1400     1410     1420     1200     1210     1080     1700     1600     1650     1380   
                                           T        V       ECP      H0       H01     AOSYM    OPER      SMH    MOLCAS    JKOP   
                                         1700(1)
                                         OPER   

              2       5     3677.82       700     1000      520     2140     5302   
                                         GEOM     BASIS   MCVARS    MCSCF    MRCI   

 PROGRAMS   *        TOTAL        CI     MULTI       INT
 CPU TIMES  *     20643.62  20619.75     14.00      9.54
 REAL TIME  *     20959.80 SEC
 DISK USED  *         3.71 GB (local),       60.71 GB (total)
 SF USED    *        36.43 GB
 GA USED    *         0.00 MB       (max)       0.00 MB       (current)
 **********************************************************************************************************************************
 SETTING HLSDIAG(1)     =      -214.48715535  AU                              
 SETTING HLSDIAG(2)     =      -214.24525843  AU                              
 SETTING HLSDIAG(3)     =      -214.24525850  AU                              
 SETTING HLSDIAG(4)     =      -214.24525836  AU                              
 SETTING HLSDIAG(5)     =      -214.24525834  AU                              
 SETTING HLSDIAG(6)     =      -214.24525839  AU                              
 SETTING HLSDIAG(7)     =      -214.24279743  AU                              
 SETTING HLSDIAG(8)     =      -214.24162848  AU                              
 SETTING HLSDIAG(9)     =      -214.24162849  AU                              
 SETTING HLSDIAG(10)    =      -214.24162849  AU                              


 PROGRAM * CI (Multireference internally contracted CI)     Authors: H.-J. Werner, P.J. Knowles, 1987


 Convergence thresholds:  THRVAR = 1.00D-08  THRDEN = 1.00D-06

 Number of optimized states: 8  Roots:    1   2   3   4   5   6   7   8
 Number of reference states: 8  Roots:    1   2   3   4   5   6   7   8

 Reference symmetry:                   2   Doublet 
 Number of electrons:                 23
 Maximum number of shells:             5
 Maximum number of spin couplings:    42

 Reference space:      156 conf      240 CSFs
 N elec internal:    52806 conf   246300 CSFs
 N-1 el internal:    24375 conf   156741 CSFs
 N-2 el internal:     9039 conf    76758 CSFs

 Number of electrons in valence space:                     23
 Maximum number of open shell orbitals in reference space:  3
 Maximum number of open shell orbitals in internal spaces:  9


 Number of closed-shell orbitals:  10 (   7   3 )
 Number of active  orbitals:        9 (   0   9 )
 Number of external orbitals:     262 ( 128 134 )

 Molecular orbitals read from record     2140.2  Type=MCSCF/NATURAL (state averaged)

 Coulomb and exchange operators available. No transformation done.


 Number of p-space configurations:  59

 Reference wavefunction optimized for reference space (refopt=1)

 State     Reference Energy 
     1      -213.53662481
     2      -213.53662481
     3      -213.53662481
     4      -213.53662481
     5      -213.53662481
     6      -213.50108393
     7      -213.50108393
     8      -213.50108393

 ?WARNING: SMALL EIGENVALUE OF PAIR OVERLAP MATRIX:  0.3627D-06

 ?WARNING: SMALL EIGENVALUE OF PAIR OVERLAP MATRIX:  0.4409D-06

[...]
   53    5.2  0.5 -0.5   0.000%   0.000%   0.000%   0.000%   0.000%   0.000%   0.000%   0.000%   0.000%   0.000%
   54    6.2  0.5 -0.5   0.000%   0.000%   0.000%   0.000%   0.000%   0.000%   0.000%   0.000%   0.000%   0.000%
   55    7.2  0.5 -0.5   0.000%   0.000%   0.000%   0.000%   0.000%   0.000%   0.000%   0.000%   0.000%   0.000%
   56    8.2  0.5 -0.5   0.000%   0.000%   0.000%   0.000%   0.000%   0.000%   0.000%   0.000%   0.000%   0.000%

   Nr   State  S   Sz      31       32       33       34       35       36       37       38       39       40

    1    1.2  1.5  1.5   0.070%   0.000%   0.000%   0.010%   0.000%   0.000%   0.000%   0.000%   0.000%   0.000%
    2    2.2  1.5  1.5   0.529%   0.000%   0.001%   0.283%   0.558%   0.046%   0.441%   7.921%  20.926%  12.089%
    3    3.2  1.5  1.5   0.283%   0.000%   0.000%   0.529%  12.674%   0.864%   0.879%  19.774%   0.418%   0.238%
    4    4.2  1.5  1.5   0.104%   0.001%   0.002%   0.706%   0.563%   0.057%   1.534%  32.461%  10.326%   5.991%
    5    5.2  1.5  1.5   0.000%   0.102%   0.710%   0.001%   0.008%   0.063%   0.317%   0.008%   0.293%   0.179%
    6    6.2  1.5  1.5   0.001%   0.101%   0.709%   0.002%   1.158%  10.751%   6.411%   0.139%   1.153%   1.128%
    7    7.2  1.5  1.5  43.745%   0.007%   0.008%   6.460%   0.000%   0.000%   0.000%   0.000%   0.000%   0.000%
    8    8.2  1.5  1.5   0.145%   1.129%   7.946%   0.034%   0.000%   0.000%   0.000%   0.000%   0.000%   0.000%
    9    9.2  1.5  1.5  10.897%   0.559%   4.329%   1.815%   0.000%   0.000%   0.000%   0.000%   0.000%   0.000%
   10   10.2  1.5  1.5  12.814%   0.602%   3.676%   1.691%   0.000%   0.000%   0.000%   0.000%   0.000%   0.000%
   11    1.2  1.5  0.5   0.000%   0.010%   0.070%   0.000%   0.000%   0.000%   0.000%   0.000%   0.000%   0.000%
   12    2.2  1.5  0.5   0.000%   0.289%   0.523%   0.000%   0.016%   0.320%   2.076%   0.228%   0.647%   2.888%
   13    3.2  1.5  0.5   0.000%   0.523%   0.289%   0.001%   2.998%  34.128%   6.390%   0.499%   0.168%   0.467%
   14    4.2  1.5  0.5   0.001%   0.709%   0.102%   0.000%   0.025%   0.006%   6.140%   0.179%   3.507%   4.191%
   15    5.2  1.5  0.5   0.708%   0.000%   0.000%   0.104%   0.263%   0.063%   0.779%  14.446%  12.155%   7.097%
   16    6.2  1.5  0.5   0.706%   0.001%   0.000%   0.105%  32.165%   2.514%   0.010%   0.396%   6.318%   3.809%
   17    7.2  1.5  0.5   0.012%   6.289%  43.870%   0.049%   0.000%   0.000%   0.000%   0.000%   0.000%   0.000%
   18    8.2  1.5  0.5   2.511%   0.008%   0.046%  18.605%   0.000%   0.000%   0.000%   0.000%   0.000%   0.000%
   19    9.2  1.5  0.5   8.622%   0.195%   1.426%   2.581%   0.000%   0.000%   0.000%   0.000%   0.000%   0.000%
   20   10.2  1.5  0.5   7.898%   0.192%   1.211%   2.341%   0.000%   0.000%   0.000%   0.000%   0.000%   0.000%
   21    1.2  1.5 -0.5   0.010%   0.000%   0.000%   0.070%   0.000%   0.000%   0.000%   0.000%   0.000%   0.000%
   22    2.2  1.5 -0.5   0.283%   0.000%   0.000%   0.529%   0.527%   0.045%   0.147%   1.715%   0.656%   0.622%
   23    3.2  1.5 -0.5   0.529%   0.000%   0.001%   0.283%  34.699%   3.047%   0.479%   5.913%   0.308%   0.156%
   24    4.2  1.5 -0.5   0.707%   0.001%   0.000%   0.105%   0.011%   0.033%   0.257%   5.940%   7.223%   4.318%
   25    5.2  1.5 -0.5   0.000%   0.710%   0.102%   0.000%   0.036%   0.118%  15.924%   0.811%   7.541%  15.628%
   26    6.2  1.5 -0.5   0.001%   0.709%   0.102%   0.000%   2.553%  32.626%   0.418%   0.008%   3.572%   4.834%
   27    7.2  1.5 -0.5   6.457%   0.024%   0.048%  43.692%   0.000%   0.000%   0.000%   0.000%   0.000%   0.000%
   28    8.2  1.5 -0.5   0.006%   2.799%  18.311%   0.054%   0.000%   0.000%   0.000%   0.000%   0.000%   0.000%
   29    9.2  1.5 -0.5   0.196%   8.374%   2.839%   1.415%   0.000%   0.000%   0.000%   0.000%   0.000%   0.000%
   30   10.2  1.5 -0.5   0.197%   7.833%   2.403%   1.209%   0.000%   0.000%   0.000%   0.000%   0.000%   0.000%
   31    1.2  1.5 -1.5   0.000%   0.070%   0.010%   0.000%   0.000%   0.000%   0.000%   0.000%   0.000%   0.000%
   32    2.2  1.5 -1.5   0.000%   0.523%   0.289%   0.001%   0.025%   0.428%   6.812%   0.458%  13.422%  23.049%
   33    3.2  1.5 -1.5   0.000%   0.289%   0.523%   0.000%   0.905%  13.227%  19.688%   0.872%   0.138%   0.351%
   34    4.2  1.5 -1.5   0.001%   0.101%   0.709%   0.002%   0.050%   0.564%  31.098%   1.630%   7.031%  10.290%
   35    5.2  1.5 -1.5   0.105%   0.000%   0.001%   0.707%   0.103%   0.007%   0.004%   0.389%   1.400%   0.854%
   36    6.2  1.5 -1.5   0.104%   0.001%   0.002%   0.706%  10.663%   1.094%   0.195%   6.214%   2.798%   1.822%
   37    7.2  1.5 -1.5   0.006%  43.901%   6.294%   0.020%   0.000%   0.000%   0.000%   0.000%   0.000%   0.000%
   38    8.2  1.5 -1.5   1.161%   0.125%   0.035%   7.933%   0.000%   0.000%   0.000%   0.000%   0.000%   0.000%
   39    9.2  1.5 -1.5   0.579%  10.972%   1.768%   4.280%   0.000%   0.000%   0.000%   0.000%   0.000%   0.000%
   40   10.2  1.5 -1.5   0.610%  12.848%   1.647%   3.679%   0.000%   0.000%   0.000%   0.000%   0.000%   0.000%
   41    1.2  0.5  0.5   0.000%   0.000%   0.000%   0.000%   0.000%   0.000%   0.000%   0.000%   0.000%   0.000%
   42    2.2  0.5  0.5   0.000%   0.000%   0.000%   0.000%   0.000%   0.000%   0.000%   0.000%   0.000%   0.000%
   43    3.2  0.5  0.5   0.000%   0.000%   0.000%   0.000%   0.000%   0.000%   0.000%   0.000%   0.000%   0.000%
   44    4.2  0.5  0.5   0.000%   0.000%   0.000%   0.000%   0.000%   0.000%   0.000%   0.000%   0.000%   0.000%
   45    5.2  0.5  0.5   0.000%   0.000%   0.000%   0.000%   0.000%   0.000%   0.000%   0.000%   0.000%   0.000%
   46    6.2  0.5  0.5   0.000%   0.000%   0.000%   0.000%   0.000%   0.000%   0.000%   0.000%   0.000%   0.000%
   47    7.2  0.5  0.5   0.000%   0.000%   0.000%   0.000%   0.000%   0.000%   0.000%   0.000%   0.000%   0.000%
   48    8.2  0.5  0.5   0.000%   0.000%   0.000%   0.000%   0.000%   0.000%   0.000%   0.000%   0.000%   0.000%
   49    1.2  0.5 -0.5   0.000%   0.000%   0.000%   0.000%   0.000%   0.000%   0.000%   0.000%   0.000%   0.000%
   50    2.2  0.5 -0.5   0.000%   0.000%   0.000%   0.000%   0.000%   0.000%   0.000%   0.000%   0.000%   0.000%
   51    3.2  0.5 -0.5   0.000%   0.000%   0.000%   0.000%   0.000%   0.000%   0.000%   0.000%   0.000%   0.000%
   52    4.2  0.5 -0.5   0.000%   0.000%   0.000%   0.000%   0.000%   0.000%   0.000%   0.000%   0.000%   0.000%
   53    5.2  0.5 -0.5   0.000%   0.000%   0.000%   0.000%   0.000%   0.000%   0.000%   0.000%   0.000%   0.000%
   54    6.2  0.5 -0.5   0.000%   0.000%   0.000%   0.000%   0.000%   0.000%   0.000%   0.000%   0.000%   0.000%
   55    7.2  0.5 -0.5   0.000%   0.000%   0.000%   0.000%   0.000%   0.000%   0.000%   0.000%   0.000%   0.000%
   56    8.2  0.5 -0.5   0.000%   0.000%   0.000%   0.000%   0.000%   0.000%   0.000%   0.000%   0.000%   0.000%

   Nr   State  S   Sz      41       42       43       44       45       46       47       48       49       50

    1    1.2  1.5  1.5   0.000%   0.000%   0.000%   0.000%   0.000%   0.000%   0.000%   0.000%   0.000%   0.000%
    2    2.2  1.5  1.5   2.350%   0.392%   2.325%   0.002%   0.148%   0.493%   0.000%   2.242%   0.000%   0.000%
    3    3.2  1.5  1.5   0.406%   0.024%   8.296%   0.014%   0.130%   0.598%   0.002%   0.534%   0.000%   0.000%
    4    4.2  1.5  1.5   0.198%   0.270%   0.078%   0.000%   0.273%   1.028%   0.001%   0.746%   0.000%   0.000%
    5    5.2  1.5  1.5   0.388%  33.030%   0.005%   1.175%   0.113%   0.015%   8.702%   0.024%   0.000%   0.000%
    6    6.2  1.5  1.5   0.130%  13.445%   0.002%   0.132%   7.668%   2.063%   0.154%   0.001%   0.000%   0.000%
    7    7.2  1.5  1.5   0.000%   0.000%   0.000%   0.000%   0.000%   0.000%   0.000%   0.000%   0.000%   0.000%
    8    8.2  1.5  1.5   0.000%   0.000%   0.217%   4.912%   3.805%   1.559%  30.789%   0.087%   0.000%   0.000%
    9    9.2  1.5  1.5   0.000%   0.000%  10.934%   1.610%  10.628%   4.538%   5.883%   2.607%   0.000%   0.000%
   10   10.2  1.5  1.5   0.000%   0.000%  13.974%   1.178%  10.905%   2.092%   5.077%   2.242%   0.000%   0.000%
   11    1.2  1.5  0.5   0.000%   0.000%   0.000%   0.000%   0.000%   0.000%   0.000%   0.000%   0.000%   0.000%
   12    2.2  1.5  0.5   0.381%  28.720%   0.009%   5.924%   2.627%   0.800%   0.214%   0.002%   0.000%   0.000%
   13    3.2  1.5  0.5   0.004%   0.070%   0.006%   3.413%   0.033%   0.000%   1.750%   0.007%   0.000%   0.000%
   14    4.2  1.5  0.5   0.128%  14.424%   0.008%   1.931%   2.469%   0.786%   7.444%   0.024%   0.000%   0.000%
   15    5.2  1.5  0.5  10.570%   0.341%   0.884%   0.004%   0.581%   2.258%   0.001%   1.026%   0.000%   0.000%
   16    6.2  1.5  0.5   0.398%   0.075%   0.025%   0.001%   0.544%   2.001%   0.011%   2.185%   0.000%   0.000%
   17    7.2  1.5  0.5   0.000%   0.000%   0.000%   0.000%   0.000%   0.000%   0.000%   0.000%   0.000%   0.000%
   18    8.2  1.5  0.5   0.000%   0.000%  13.533%   0.031%   1.471%   3.766%   0.088%  15.100%   0.000%   0.000%
   19    9.2  1.5  0.5   0.000%   0.000%  13.065%   0.577%  17.598%   0.315%   7.470%   0.132%   0.000%   0.000%
   20   10.2  1.5  0.5   0.000%   0.000%  11.858%   0.694%   6.518%  12.237%   8.533%   0.049%   0.000%   0.000%
   21    1.2  1.5 -0.5   0.000%   0.000%   0.000%   0.000%   0.000%   0.000%   0.000%   0.000%   0.000%   0.000%
   22    2.2  1.5 -0.5  31.191%   0.373%   6.108%   0.006%   0.741%   2.621%   0.017%   0.082%   0.000%   0.000%
   23    3.2  1.5 -0.5   0.117%   0.005%   3.699%   0.005%   0.005%   0.026%   0.007%   1.467%   0.000%   0.000%
   24    4.2  1.5 -0.5  10.749%   0.068%   1.463%   0.014%   0.663%   2.671%   0.053%   7.797%   0.000%   0.000%
   25    5.2  1.5 -0.5   0.113%   5.543%   0.002%   0.785%   2.324%   0.526%   1.110%   0.005%   0.000%   0.000%
   26    6.2  1.5 -0.5   0.006%   1.669%   0.002%   0.067%   2.092%   0.488%   2.090%   0.026%   0.000%   0.000%
   27    7.2  1.5 -0.5   0.000%   0.000%   0.000%   0.000%   0.000%   0.000%   0.000%   0.000%   0.000%   0.000%
   28    8.2  1.5 -0.5   0.000%   0.000%   0.053%  14.879%   4.194%   1.489%  13.292%   0.083%   0.000%   0.000%
   29    9.2  1.5 -0.5   0.000%   0.000%   0.836%  13.510%   0.218%  16.651%   0.124%   7.818%   0.000%   0.000%
   30   10.2  1.5 -0.5   0.000%   0.000%   0.827%  11.650%  12.876%   6.315%   0.122%   8.099%   0.000%   0.000%
   31    1.2  1.5 -1.5   0.000%   0.000%   0.000%   0.000%   0.000%   0.000%   0.000%   0.000%   0.000%   0.000%
   32    2.2  1.5 -1.5   0.087%   0.443%   0.003%   2.576%   0.550%   0.130%   1.949%   0.003%   0.000%   0.000%
   33    3.2  1.5 -1.5   0.001%   0.096%   0.011%   8.524%   0.563%   0.134%   0.342%   0.000%   0.000%   0.000%
   34    4.2  1.5 -1.5   0.079%   0.658%   0.000%   0.057%   1.071%   0.241%   0.756%   0.001%   0.000%   0.000%
   35    5.2  1.5 -1.5  31.240%   0.289%   1.549%   0.004%   0.017%   0.076%   0.022%   8.366%   0.000%   0.000%
   36    6.2  1.5 -1.5  11.463%   0.066%   0.168%   0.009%   2.031%   7.689%   0.018%   0.105%   0.000%   0.000%
   37    7.2  1.5 -1.5   0.000%   0.000%   0.000%   0.000%   0.000%   0.000%   0.000%   0.000%   0.000%   0.000%
   38    8.2  1.5 -1.5   0.000%   0.000%   6.495%   0.183%   1.185%   4.305%   0.173%  29.026%   0.000%   0.000%
   39    9.2  1.5 -1.5   0.000%   0.000%   2.066%  11.472%   3.950%  10.726%   2.529%   5.457%   0.000%   0.000%
   40   10.2  1.5 -1.5   0.000%   0.000%   1.500%  14.661%   2.009%  11.363%   1.278%   4.657%   0.000%   0.000%
   41    1.2  0.5  0.5   0.000%   0.000%   0.000%   0.000%   0.000%   0.000%   0.000%   0.000%   0.633%   2.270%
   42    2.2  0.5  0.5   0.000%   0.000%   0.000%   0.000%   0.000%   0.000%   0.000%   0.000%   8.056%   0.240%
   43    3.2  0.5  0.5   0.000%   0.000%   0.000%   0.000%   0.000%   0.000%   0.000%   0.000%   1.034%   9.024%
   44    4.2  0.5  0.5   0.000%   0.000%   0.000%   0.000%   0.000%   0.000%   0.000%   0.000%   2.408%   1.811%
   45    5.2  0.5  0.5   0.000%   0.000%   0.000%   0.000%   0.000%   0.000%   0.000%   0.000%   1.518%   4.152%
   46    6.2  0.5  0.5   0.000%   0.000%   0.000%   0.000%   0.000%   0.000%   0.000%   0.000%  12.899%  42.956%
   47    7.2  0.5  0.5   0.000%   0.000%   0.000%   0.000%   0.000%   0.000%   0.000%   0.000%   0.451%   1.482%
   48    8.2  0.5  0.5   0.000%   0.000%   0.000%   0.000%   0.000%   0.000%   0.000%   0.000%   0.051%   5.305%
   49    1.2  0.5 -0.5   0.000%   0.000%   0.000%   0.000%   0.000%   0.000%   0.000%   0.000%   2.803%   2.167%
   50    2.2  0.5 -0.5   0.000%   0.000%   0.000%   0.000%   0.000%   0.000%   0.000%   0.000%  14.680%   2.892%
   51    3.2  0.5 -0.5   0.000%   0.000%   0.000%   0.000%   0.000%   0.000%   0.000%   0.000%   1.980%   0.710%
   52    4.2  0.5 -0.5   0.000%   0.000%   0.000%   0.000%   0.000%   0.000%   0.000%   0.000%   3.558%   0.140%
   53    5.2  0.5 -0.5   0.000%   0.000%   0.000%   0.000%   0.000%   0.000%   0.000%   0.000%  18.536%   5.393%
   54    6.2  0.5 -0.5   0.000%   0.000%   0.000%   0.000%   0.000%   0.000%   0.000%   0.000%   9.568%  18.064%
   55    7.2  0.5 -0.5   0.000%   0.000%   0.000%   0.000%   0.000%   0.000%   0.000%   0.000%  21.028%   0.581%
   56    8.2  0.5 -0.5   0.000%   0.000%   0.000%   0.000%   0.000%   0.000%   0.000%   0.000%   0.798%   2.812%

   Nr   State  S   Sz      51       52       53       54       55       56

    1    1.2  1.5  1.5   0.000%   0.000%   0.000%   0.000%   0.000%   0.000%
    2    2.2  1.5  1.5   0.000%   0.000%   0.000%   0.000%   0.000%   0.000%
    3    3.2  1.5  1.5   0.000%   0.000%   0.000%   0.000%   0.000%   0.000%
    4    4.2  1.5  1.5   0.000%   0.000%   0.000%   0.000%   0.000%   0.000%
    5    5.2  1.5  1.5   0.000%   0.000%   0.000%   0.000%   0.000%   0.000%
    6    6.2  1.5  1.5   0.000%   0.000%   0.000%   0.000%   0.000%   0.000%
    7    7.2  1.5  1.5   0.000%   0.000%   0.000%   0.000%   0.000%   0.000%
    8    8.2  1.5  1.5   0.000%   0.000%   0.000%   0.000%   0.000%   0.000%
    9    9.2  1.5  1.5   0.000%   0.000%   0.000%   0.000%   0.000%   0.000%
   10   10.2  1.5  1.5   0.000%   0.000%   0.000%   0.000%   0.000%   0.000%
   11    1.2  1.5  0.5   0.000%   0.000%   0.000%   0.000%   0.000%   0.000%
   12    2.2  1.5  0.5   0.000%   0.000%   0.000%   0.000%   0.000%   0.000%
   13    3.2  1.5  0.5   0.000%   0.000%   0.000%   0.000%   0.000%   0.000%
   14    4.2  1.5  0.5   0.000%   0.000%   0.000%   0.000%   0.000%   0.000%
   15    5.2  1.5  0.5   0.000%   0.000%   0.000%   0.000%   0.000%   0.000%
   16    6.2  1.5  0.5   0.000%   0.000%   0.000%   0.000%   0.000%   0.000%
   17    7.2  1.5  0.5   0.000%   0.000%   0.000%   0.000%   0.000%   0.000%
   18    8.2  1.5  0.5   0.000%   0.000%   0.000%   0.000%   0.000%   0.000%
   19    9.2  1.5  0.5   0.000%   0.000%   0.000%   0.000%   0.000%   0.000%
   20   10.2  1.5  0.5   0.000%   0.000%   0.000%   0.000%   0.000%   0.000%
   21    1.2  1.5 -0.5   0.000%   0.000%   0.000%   0.000%   0.000%   0.000%
   22    2.2  1.5 -0.5   0.000%   0.000%   0.000%   0.000%   0.000%   0.000%
   23    3.2  1.5 -0.5   0.000%   0.000%   0.000%   0.000%   0.000%   0.000%
   24    4.2  1.5 -0.5   0.000%   0.000%   0.000%   0.000%   0.000%   0.000%
   25    5.2  1.5 -0.5   0.000%   0.000%   0.000%   0.000%   0.000%   0.000%
   26    6.2  1.5 -0.5   0.000%   0.000%   0.000%   0.000%   0.000%   0.000%
   27    7.2  1.5 -0.5   0.000%   0.000%   0.000%   0.000%   0.000%   0.000%
   28    8.2  1.5 -0.5   0.000%   0.000%   0.000%   0.000%   0.000%   0.000%
   29    9.2  1.5 -0.5   0.000%   0.000%   0.000%   0.000%   0.000%   0.000%
   30   10.2  1.5 -0.5   0.000%   0.000%   0.000%   0.000%   0.000%   0.000%
   31    1.2  1.5 -1.5   0.000%   0.000%   0.000%   0.000%   0.000%   0.000%
   32    2.2  1.5 -1.5   0.000%   0.000%   0.000%   0.000%   0.000%   0.000%
   33    3.2  1.5 -1.5   0.000%   0.000%   0.000%   0.000%   0.000%   0.000%
   34    4.2  1.5 -1.5   0.000%   0.000%   0.000%   0.000%   0.000%   0.000%
   35    5.2  1.5 -1.5   0.000%   0.000%   0.000%   0.000%   0.000%   0.000%
   36    6.2  1.5 -1.5   0.000%   0.000%   0.000%   0.000%   0.000%   0.000%
   37    7.2  1.5 -1.5   0.000%   0.000%   0.000%   0.000%   0.000%   0.000%
   38    8.2  1.5 -1.5   0.000%   0.000%   0.000%   0.000%   0.000%   0.000%
   39    9.2  1.5 -1.5   0.000%   0.000%   0.000%   0.000%   0.000%   0.000%
   40   10.2  1.5 -1.5   0.000%   0.000%   0.000%   0.000%   0.000%   0.000%
   41    1.2  0.5  0.5  16.071%   2.906%   1.154%   3.699%   2.442%  17.335%
   42    2.2  0.5  0.5  28.149%   2.322%   7.391%   2.441%   5.651%   2.246%
   43    3.2  0.5  0.5   0.558%   5.908%  32.257%   0.333%   0.495%   0.440%
   44    4.2  0.5  0.5   7.834%   9.902%  17.706%   1.550%   8.476%   2.017%
   45    5.2  0.5  0.5   5.713%   6.871%   8.874%   0.226%  18.963%   1.742%
   46    6.2  0.5  0.5   0.395%   0.292%   0.921%   0.643%   0.505%   3.099%
   47    7.2  0.5  0.5   8.706%   3.365%   4.256%   9.053%   5.064%  12.328%
   48    8.2  0.5  0.5   0.726%   1.979%   7.285%   6.858%  24.041%   1.680%
   49    1.2  0.5 -0.5   0.378%   1.582%   9.424%   1.125%   8.945%  22.481%
   50    2.2  0.5 -0.5   0.036%   3.584%   0.096%  11.130%   0.522%   2.726%
   51    3.2  0.5 -0.5   6.463%   8.696%   5.047%  25.550%   0.618%   5.772%
   52    4.2  0.5 -0.5   6.859%  19.923%   3.343%   4.327%   2.644%   8.068%
   53    5.2  0.5 -0.5   4.258%   5.855%   0.227%   8.787%   5.213%   4.102%
   54    6.2  0.5 -0.5   2.776%   5.180%   0.769%   0.582%   0.321%   0.176%
   55    7.2  0.5 -0.5  10.776%  17.782%   1.244%  10.499%   0.649%   0.804%
   56    8.2  0.5 -0.5   0.303%   3.853%   0.006%  13.197%  15.450%  14.984%


 Property matrices transformed in SO basis (not sym. adapted)
 ============================================================

 No matrix element <i|DMX|i> larger than 5E-7
 No matrix element <i|DMX|1> larger than 5E-7

 No matrix element <i|DMY|i> larger than 5E-7
 No matrix element <i|DMY|1> larger than 5E-7

 No matrix element <i|DMZ|i> larger than 5E-7
 No matrix element <i|DMZ|1> larger than 5E-7


 **********************************************************************************************************************************
 DATASETS  * FILE   NREC   LENGTH (MB)   RECORD NAMES
              1      21      118.64       500      610      700      900      950      970     1000      129      960     1100   
                                          VAR    BASINP    GEOM    SYMINP    ZMAT    AOBASIS   BASIS     P2S    ABASIS      S 
                                         1400     1410     1420     1200     1210     1080     1700     1600     1650     1380   
                                           T        V       ECP      H0       H01     AOSYM    OPER      SMH    MOLCAS    JKOP   
                                         1700(1)
                                         OPER   

              2       6     6899.77       700     1000      520     2140     5302     5102   
                                         GEOM     BASIS   MCVARS    MCSCF    MRCI     MRCI   

 PROGRAMS   *        TOTAL        CI        CI        CI     MULTI       INT
 CPU TIMES  *    199156.12 160062.51  18449.97  20619.75     14.00      9.54
 REAL TIME  *    201690.18 SEC
 DISK USED  *         6.85 GB (local),      111.06 GB (total)
 SF USED    *        36.43 GB
 GA USED    *         0.00 MB       (max)       0.00 MB       (current)
 **********************************************************************************************************************************

 CI/USERDEF energy=********************

              CI              CI           MULTI
   -214.33365960   -214.16924269   -213.50108393
 **********************************************************************************************************************************
 Molpro calculation terminated with 1 warning(s)
