
 Working directory              : /wrk/irikura/molpro.Oa7cVyrbmX/
 Global scratch directory       : /wrk/irikura/molpro.Oa7cVyrbmX/
 Wavefunction directory         : /home/irikura/wfu/
 Main file repository           : /wrk/irikura/molpro.Oa7cVyrbmX/

 id        : nistki

 Nodes            nprocs
 pn112695.nist.gov   16
 GA implementation: MPI file
 GA implementation (serial work in mppx): MPI file

 Using customized tuning parameters: mindgm=1; mindgv=20; mindgc=4; mindgr=1; noblas=0; minvec=7
 default implementation of scratch files=sf  


 Variables initialized (1040), CPU time= 0.01 sec
 ***,Bi SO-CI
                                                                                 ! valence s2 inactive
 memory,1500,M;
 
 gprint,orbitals,civector;
 
 symmetry,xyz
 geometry={Bi};
 
 basis={
 ecp,bi,ECP60MDF;
 spdfghi,bi,aug-cc-pwCV5Z-PP;C; spdf,1,even,nprim=1,ratio=3.0;
 }
 
 PAR=2                                                                           ! parity even (1) or odd (2)
 NQ=10
 ND=8
 
 {multi
     closed,7,3
     occ,7,9
     wf,charge=0,sym=PAR,spin=3;state,NQ; weight,25, 1,1,1, 1,1,1, 1,1,1
     wf,charge=0,sym=PAR,spin=1;state,ND;
     expec2,lxx,lyy,lzz;
 }
 table, energy, ll
 title, Energies and &lt;L**2&gt; values
 
 core,0,0
 
 {ci;wf,sym=PAR,spin=3;state,NQ; save,5302.2}
 if NQ.LT.2 then
 hlsdiag(1) = energd
 else
 hlsdiag = energd4
 endif
 
 {ci;wf,sym=PAR,spin=1;state,ND; save,5102.2}
 hlsdiag(NQ+1) = energd4
 
 table,hlsdiag
 
 {ci;hlsmat,ecp,5302.2,5102.2;print,vls=0,hls=0}                                 !compute and diagonalize SO matrix
 Commands initialized (846), CPU time= 0.02 sec, 717 directives.
 Default parameters read. Elapsed time= 0.21 sec

 Checking input...
 Passed
1


                                         ***  PROGRAM SYSTEM MOLPRO  ***
                                       Copyright, TTI GmbH Stuttgart, 2015
                                    Version 2023.2 linked Fri Sep 22 03:27:09 2023


 **********************************************************************************************************************************
 LABEL *   Bi SO-CI                                                                                                                                                      
  (32 PROC) 64 bit mpp version                                                           DATE: 03-Mar-25          TIME: 15:41:06  
 **********************************************************************************************************************************

 SHA1:             3c61bfe44d37c8635c785372c339f5cbdd4e4b59
 **********************************************************************************************************************************

 Memory per process:      1500 MW
 Total memory per node:  24000 MW

 GA preallocation disabled
 GA check disabled

 Variable memory set to 1500.0 MW


 ZSYMEL=XYZ

 SETTING BASIS          =    USERDEF
 SETTING PAR            =         2.00000000                                  
 SETTING NQ             =        10.00000000                                  
 SETTING ND             =         8.00000000                                  


 Recomputing integrals since basis changed


 Using spherical harmonics

 Library entry Bi   ECP ECP60MDF                 selected for group  1
 Library entry BI     S AUG-CC-PWCV5Z-PP     selected for orbital group  1
 Even tempered Bi S diffuse               selected for group 1    nprim= 1    centre=  0.008    ratio= 3.000    dratio= 1.000
 Library entry BI     P AUG-CC-PWCV5Z-PP     selected for orbital group  1
 Even tempered Bi P diffuse               selected for group 1    nprim= 1    centre=  0.005    ratio= 3.000    dratio= 1.000
 Library entry BI     D AUG-CC-PWCV5Z-PP     selected for orbital group  1
 Even tempered Bi D diffuse               selected for group 1    nprim= 1    centre=  0.012    ratio= 3.000    dratio= 1.000
 Library entry BI     F AUG-CC-PWCV5Z-PP     selected for orbital group  1
 Even tempered Bi F diffuse               selected for group 1    nprim= 1    centre=  0.021    ratio= 3.000    dratio= 1.000
 Library entry BI     G AUG-CC-PWCV5Z-PP     selected for orbital group  1
 Library entry BI     H AUG-CC-PWCV5Z-PP     selected for orbital group  1
 Library entry BI     I AUG-CC-PWCV5Z-PP     selected for orbital group  1


 PROGRAM * SEWARD (Integral evaluation for generally contracted gaussian basis sets)     Author: Roland Lindh, 1990

 Geometry written to block  1 of record 700

 Orientation using atomic masses  
 Molecule type: Atom
 User-specified symmetry elements: XYZ
 Symmetry elements: XYZ
 Rotational constants:       0.0000000      0.0000000      0.0000000 GHz  (calculated with average atomic masses)

 Point group  Ci  



 ATOMIC COORDINATES

 NR  ATOM    CHARGE       X              Y              Z

   1  BI     23.00    0.000000000    0.000000000    0.000000000

 NUCLEAR CHARGE:                   23
 NUMBER OF PRIMITIVE AOS:         479
 NUMBER OF SYMMETRY AOS:          343
 NUMBER OF CONTRACTIONS:          281   (  135Ag  +  146Au  )
 NUMBER OF INNER CORE ORBITALS:     0   (    0Ag  +    0Au  )
 NUMBER OF OUTER CORE ORBITALS:     9   (    6Ag  +    3Au  )
 NUMBER OF VALENCE ORBITALS:        4   (    1Ag  +    3Au  )


 LX: Ag           LY: Ag           LZ: Ag 


 NUCLEAR REPULSION ENERGY    0.00000000

 EXTRA SYMMETRY OF AOS IN SYMMETRY 1:   1 1 1 1 1 1 1 1 1 1   1 1 1 2 3 4 5 6 2 3   4 5 6 2 3 4 5 6 2 3   4 5 6 2 3 4 5 6 2 3
                                        4 5 6 2 3 4 5 6 2 3   4 5 6 2 3 4 5 6 2 3   4 5 6 2 3 4 5 6 7 8   9101112131415 7 8 9
                                       101112131415 7 8 910  1112131415 7 8 91011  12131415 7 8 9101112  131415 7 8 910111213
                                       14151617181920212223  2425262728
 EXTRA SYMMETRY OF AOS IN SYMMETRY 2:   1 2 3 1 2 3 1 2 3 1   2 3 1 2 3 1 2 3 1 2   3 1 2 3 1 2 3 1 2 3   1 2 3 1 2 3 1 2 3 4
                                        5 6 7 8 910 4 5 6 7   8 910 4 5 6 7 8 910   4 5 6 7 8 910 4 5 6   7 8 910 4 5 6 7 8 9
                                       10 4 5 6 7 8 910 4 5   6 7 8 910 4 5 6 7 8   9101112131415161718  19202111121314151617
                                       18192021111213141516  17181920211112131415  161718192021


 Eigenvalues of metric

         1 0.100E-04 0.244E-04 0.244E-04 0.244E-04 0.244E-04 0.244E-04 0.357E-04 0.220E-03
         2 0.186E-05 0.186E-05 0.186E-05 0.295E-03 0.295E-03 0.295E-03 0.205E-02 0.205E-02


 Contracted 2-electron integrals neglected if value below      1.0D-12
 AO integral compression algorithm  1   Integral accuracy      1.0D-12

     696.517 MB (compressed) written to integral file ( 13.4%)

     Node minimum: 28.836 MB, node maximum: 55.837 MB


 NUMBER OF SORTED TWO-ELECTRON INTEGRALS:   24679576.     BUFFER LENGTH:  32768
 NUMBER OF SEGMENTS:   2  SEGMENT LENGTH:   15976936      RECORD LENGTH: 524288

 Memory used in sort:      16.53 MW

 SORT1 READ   646821870. AND WROTE     4259373. INTEGRALS IN     14 RECORDS. CPU TIME:     3.15 SEC, REAL TIME:     3.24 SEC
 SORT2 READ    68065344. AND WROTE   395255076. INTEGRALS IN   3104 RECORDS. CPU TIME:     0.49 SEC, REAL TIME:     0.56 SEC

 Node minimum:    24675847.  Node maximum:    24720811. integrals

 OPERATOR DM      FOR CENTER  0  COORDINATES:    0.000000    0.000000    0.000000


 **********************************************************************************************************************************
 DATASETS  * FILE   NREC   LENGTH (MB)   RECORD NAMES
              1      19       30.69       500      610      700      900      950      970     1000      129      960     1100   
                                          VAR    BASINP    GEOM    SYMINP    ZMAT    AOBASIS   BASIS     P2S    ABASIS      S 
                                         1400     1410     1420     1200     1210     1080     1700     1600     1650   
                                           T        V       ECP      H0       H01     AOSYM    OPER      SMH    MOLCAS    

 PROGRAMS   *        TOTAL       INT
 CPU TIMES  *        10.37     10.00
 REAL TIME  *        11.80 SEC
 DISK USED  *        31.11 MB (local),        1.88 GB (total)
 GA USED    *         0.00 MB       (max)       0.00 MB       (current)
 **********************************************************************************************************************************

 PROGRAM * MULTI (Direct Multiconfiguration SCF)       Authors: P.J. Knowles, H.-J. Werner (1984)
                                                                D.A. Kreplin, P.J. Knowles, H.-J. Werner (2019)

 Number of closed-shell orbitals:  10 (    7    3)
 Number of active  orbitals:        6 (    0    6)
 Number of external orbitals:     265 (  128  137)

 State symmetry 1

 Number of active electrons:   3    Spin symmetry=Quartet   Space symmetry=2
 Number of states:            10
 Number of CSFs:              20   (20 determinants, 20 intermediate states)

 State symmetry 2

 Number of active electrons:   3    Spin symmetry=Doublet   Space symmetry=2
 Number of states:             8
 Number of CSFs:              70   (90 determinants, 90 intermediate states)

 Orbital guess generated from atomic densities.
 *** IN SYMMETRY 1 ORBITAL  2 SYMMETRY CONTAMINATION OF 0.440D-02 HAS BEEN REMOVED
 *** IN SYMMETRY 1 ORBITAL  3 SYMMETRY CONTAMINATION OF 0.303D+00 HAS BEEN REMOVED
 *** IN SYMMETRY 1 ORBITAL  4 SYMMETRY CONTAMINATION OF 0.321D-02 HAS BEEN REMOVED
 *** IN SYMMETRY 1 ORBITAL  5 SYMMETRY CONTAMINATION OF 0.301D+00 HAS BEEN REMOVED
 *** IN SYMMETRY 1 ORBITAL  6 SYMMETRY CONTAMINATION OF 0.196D-02 HAS BEEN REMOVED

 EXTRA SYMMETRY OF MOS IN SYMMETRY 1:   1 4 2 3 5 6 1 1 2 6   3 5 4 1 2 6 3 4 5 1   4 3 2 6 51410 91115   7 81312 4 3 2 5 6 1
                                        5 4 2 6 3 911 81415  1310 712 1 911 81314  1512 710 4 2 5 6 3 1  1314 911 81512 710 4
                                        6 2 3 5201621252419  22182623172827131411   7 9 8101512 1 4 2 6   5 311 713141015 912
                                        8 1 4 2 6 3 5 1 4 2   3 6 5 1 1
 *** IN SYMMETRY 2 ORBITAL  1 SYMMETRY CONTAMINATION OF 0.178D-02 HAS BEEN REMOVED
 *** IN SYMMETRY 2 ORBITAL  2 SYMMETRY CONTAMINATION OF 0.178D-02 HAS BEEN REMOVED
 *** IN SYMMETRY 2 ORBITAL  4 SYMMETRY CONTAMINATION OF 0.598D-04 HAS BEEN REMOVED
 *** IN SYMMETRY 2 ORBITAL  6 SYMMETRY CONTAMINATION OF 0.597D-04 HAS BEEN REMOVED
 *** IN SYMMETRY 2 ORBITAL  7 SYMMETRY CONTAMINATION OF 0.365D-04 HAS BEEN REMOVED
 *** IN SYMMETRY 2 ORBITAL  9 SYMMETRY CONTAMINATION OF 0.355D-04 HAS BEEN REMOVED
 EXTRA SYMMETRY OF MOS IN SYMMETRY 2:   2 3 1 3 1 2 3 1 2 3   1 2 4 8 610 7 5 9 1   3 2 610 4 7 9 5 8 1   2 3 9 6 410 5 7 8 4
                                        5 9 6 710 8 3 2 119  18151413111220162117   4 5 6 9 7 810192018  1511121413162117 3 1
                                        2 4 5 8 710 6 91814  131920151211211617 8   5 4 910 6 7 3 1 2 8   9 5 4 610 720181413
                                       19151221171116 3 1 2   9 8 4 6 5 710 1 3 2   1 2 3 1 2 3

 Wavefunction dump at record             2140.2

 Convergence thresholds  0.10E-04 (gradient)  0.10E-05 (energy)

 Weight factors for state symmetry  1:    0.59524   0.02381   0.02381   0.02381   0.02381   0.02381   0.02381   0.02381
                                          0.02381   0.02381
 Weight factors for state symmetry  2:    0.02381   0.02381   0.02381   0.02381   0.02381   0.02381   0.02381   0.02381
 
 Number of orbital rotations:  2147  ( 18 closed/active, 1307 closed/virtual, 0 active/active, 822 active/virtual )
 Total number of variables:    3067
 
 Second-order MCSCF: L-BFGS accelerated
 
 ITER  MIC  NCI  NEG     ENERGY(VAR)    ENERGY(PROJ) ENERGY CHANGE       GRAD(0)  GRAD(ORB)   GRAD(CI)      STEP      TIME
   1    8   14    0   -213.50776443    -213.52639075   -0.01862632    0.09776013 0.00012369 0.00000000  0.14E+01      2.34
   2    6   10    0   -213.52592834    -213.52595156   -0.00002322    0.00412771 0.00000189 0.00000000  0.40E-01      5.04
   3    5   10    0   -213.52595158    -213.52595158   -0.00000000    0.00000769 0.00000000 0.00000000  0.87E-04      7.14

 CONVERGENCE REACHED!  Final gradient:    0.00000000 ( 0.28E-08)
                       Final energy:   -213.52595158
 
 Results for state 1.2 Quartet
 =============================
 !MCSCF STATE 1.2 Quartet Energy              -213.590389285307
 Nuclear energy                                  0.00000000
 Kinetic energy                                 69.04385482
 One electron energy                          -373.11784421
 Two electron energy                           159.52745493
 Virial ratio                                    4.09354670
 
 !MCSCF STATE 1.2 Quartet Dipole moment          0.00000000     0.00000000     0.00000000
 Dipole moment /Debye                            0.00000000     0.00000000     0.00000000
 
 Results for state 2.2 Quartet
 =============================
 !MCSCF STATE 2.2 Quartet Energy              -213.355140067284
 Nuclear energy                                  0.00000000
 Kinetic energy                                 68.47720286
 One electron energy                          -367.94276227
 Two electron energy                           154.58762220
 Virial ratio                                    4.11571050
 
 !MCSCF STATE 2.2 Quartet Dipole moment          0.00000000     0.00000000     0.00000000
 Dipole moment /Debye                            0.00000000     0.00000000     0.00000000
 
 Results for state 3.2 Quartet
 =============================
 !MCSCF STATE 3.2 Quartet Energy              -213.355140067243
 Nuclear energy                                  0.00000000
 Kinetic energy                                 68.47720286
 One electron energy                          -367.94276227
 Two electron energy                           154.58762221
 Virial ratio                                    4.11571050
 
 !MCSCF STATE 3.2 Quartet Dipole moment          0.00000000     0.00000000     0.00000000
 Dipole moment /Debye                            0.00000000     0.00000000     0.00000000
 
 Results for state 4.2 Quartet
 =============================
 !MCSCF STATE 4.2 Quartet Energy              -213.355140066915
 Nuclear energy                                  0.00000000
 Kinetic energy                                 68.47720286
 One electron energy                          -367.94276230
 Two electron energy                           154.58762223
 Virial ratio                                    4.11571050
 
 !MCSCF STATE 4.2 Quartet Dipole moment          0.00000000     0.00000000     0.00000000
 Dipole moment /Debye                            0.00000000     0.00000000     0.00000000
 
 Results for state 5.2 Quartet
 =============================
 !MCSCF STATE 5.2 Quartet Energy              -213.355140066619
 Nuclear energy                                  0.00000000
 Kinetic energy                                 68.47720286
 One electron energy                          -367.94276233
 Two electron energy                           154.58762226
 Virial ratio                                    4.11571050
 
 !MCSCF STATE 5.2 Quartet Dipole moment          0.00000000     0.00000000     0.00000000
 Dipole moment /Debye                            0.00000000     0.00000000     0.00000000
 
 Results for state 6.2 Quartet
 =============================
 !MCSCF STATE 6.2 Quartet Energy              -213.355140066563
 Nuclear energy                                  0.00000000
 Kinetic energy                                 68.47720286
 One electron energy                          -367.94276233
 Two electron energy                           154.58762226
 Virial ratio                                    4.11571050
 
 !MCSCF STATE 6.2 Quartet Dipole moment          0.00000000     0.00000000     0.00000000
 Dipole moment /Debye                            0.00000000     0.00000000     0.00000000
 
 Results for state 7.2 Quartet
 =============================
 !MCSCF STATE 7.2 Quartet Energy              -213.351599071562
 Nuclear energy                                  0.00000000
 Kinetic energy                                 68.56161710
 One electron energy                          -368.29312777
 Two electron energy                           154.94152870
 Virial ratio                                    4.11182274
 
 !MCSCF STATE 7.2 Quartet Dipole moment          0.00000000     0.00000000     0.00000000
 Dipole moment /Debye                            0.00000000     0.00000000     0.00000000
 
 Results for state 8.2 Quartet
 =============================
 !MCSCF STATE 8.2 Quartet Energy              -213.350503730323
 Nuclear energy                                  0.00000000
 Kinetic energy                                 68.47720286
 One electron energy                          -367.94276227
 Two electron energy                           154.59225854
 Virial ratio                                    4.11564280
 
 !MCSCF STATE 8.2 Quartet Dipole moment          0.00000000     0.00000000     0.00000000
 Dipole moment /Debye                            0.00000000     0.00000000     0.00000000
 
 Results for state 9.2 Quartet
 =============================
 !MCSCF STATE 9.2 Quartet Energy              -213.350503729889
 Nuclear energy                                  0.00000000
 Kinetic energy                                 68.47720286
 One electron energy                          -367.94276230
 Two electron energy                           154.59225857
 Virial ratio                                    4.11564280
 
 !MCSCF STATE 9.2 Quartet Dipole moment          0.00000000     0.00000000     0.00000000
 Dipole moment /Debye                            0.00000000     0.00000000     0.00000000
 
 Results for state 10.2 Quartet
 ==============================
 !MCSCF STATE 10.2 Quartet Energy             -213.350503729461
 Nuclear energy                                  0.00000000
 Kinetic energy                                 68.47720286
 One electron energy                          -367.94276233
 Two electron energy                           154.59225860
 Virial ratio                                    4.11564280
 
 !MCSCF STATE 10.2 Quartet Dipole moment         0.00000000     0.00000000     0.00000000
 Dipole moment /Debye                            0.00000000     0.00000000     0.00000000
 
 Results for state 1.2 Doublet
 =============================
 !MCSCF STATE 1.2 Doublet Energy              -213.532860162481
 Nuclear energy                                  0.00000000
 Kinetic energy                                 69.00185707
 One electron energy                          -372.91779821
 Two electron energy                           159.38493805
 Virial ratio                                    4.09459584
 
 !MCSCF STATE 1.2 Doublet Dipole moment          0.00000000     0.00000000     0.00000000
 Dipole moment /Debye                            0.00000000     0.00000000     0.00000000
 
 Results for state 2.2 Doublet
 =============================
 !MCSCF STATE 2.2 Doublet Energy              -213.532860162481
 Nuclear energy                                  0.00000000
 Kinetic energy                                 69.00185707
 One electron energy                          -372.91779821
 Two electron energy                           159.38493804
 Virial ratio                                    4.09459584
 
 !MCSCF STATE 2.2 Doublet Dipole moment          0.00000000     0.00000000     0.00000000
 Dipole moment /Debye                            0.00000000     0.00000000     0.00000000
 
 Results for state 3.2 Doublet
 =============================
 !MCSCF STATE 3.2 Doublet Energy              -213.532860162463
 Nuclear energy                                  0.00000000
 Kinetic energy                                 69.00185707
 One electron energy                          -372.91779820
 Two electron energy                           159.38493803
 Virial ratio                                    4.09459584
 
 !MCSCF STATE 3.2 Doublet Dipole moment          0.00000000     0.00000000     0.00000000
 Dipole moment /Debye                            0.00000000     0.00000000     0.00000000
 
 Results for state 4.2 Doublet
 =============================
 !MCSCF STATE 4.2 Doublet Energy              -213.532860162456
 Nuclear energy                                  0.00000000
 Kinetic energy                                 69.00185707
 One electron energy                          -372.91779820
 Two electron energy                           159.38493804
 Virial ratio                                    4.09459584
 
 !MCSCF STATE 4.2 Doublet Dipole moment          0.00000000     0.00000000     0.00000000
 Dipole moment /Debye                            0.00000000     0.00000000     0.00000000
 
 Results for state 5.2 Doublet
 =============================
 !MCSCF STATE 5.2 Doublet Energy              -213.532860162451
 Nuclear energy                                  0.00000000
 Kinetic energy                                 69.00185707
 One electron energy                          -372.91779820
 Two electron energy                           159.38493804
 Virial ratio                                    4.09459584
 
 !MCSCF STATE 5.2 Doublet Dipole moment          0.00000000     0.00000000     0.00000000
 Dipole moment /Debye                            0.00000000     0.00000000     0.00000000
 
 Results for state 6.2 Doublet
 =============================
 !MCSCF STATE 6.2 Doublet Energy              -213.495707674698
 Nuclear energy                                  0.00000000
 Kinetic energy                                 68.95934776
 One electron energy                          -372.69729101
 Two electron energy                           159.20158333
 Virial ratio                                    4.09596472
 
 !MCSCF STATE 6.2 Doublet Dipole moment          0.00000000     0.00000000     0.00000000
 Dipole moment /Debye                            0.00000000     0.00000000     0.00000000
 
 Results for state 7.2 Doublet
 =============================
 !MCSCF STATE 7.2 Doublet Energy              -213.495707674684
 Nuclear energy                                  0.00000000
 Kinetic energy                                 68.95934776
 One electron energy                          -372.69729104
 Two electron energy                           159.20158336
 Virial ratio                                    4.09596472
 
 !MCSCF STATE 7.2 Doublet Dipole moment          0.00000000     0.00000000     0.00000000
 Dipole moment /Debye                            0.00000000     0.00000000     0.00000000
 
 Results for state 8.2 Doublet
 =============================
 !MCSCF STATE 8.2 Doublet Energy              -213.495707674655
 Nuclear energy                                  0.00000000
 Kinetic energy                                 68.95934776
 One electron energy                          -372.69729102
 Two electron energy                           159.20158335
 Virial ratio                                    4.09596472
 
 !MCSCF STATE 8.2 Doublet Dipole moment          0.00000000     0.00000000     0.00000000
 Dipole moment /Debye                            0.00000000     0.00000000     0.00000000
 
 State-averaged charge density matrix saved on record 2140.2 (density set 1)
 
 No non-zero expectation values
 
 Expectation values for two-electron operators:
 
 ? Warning
 ? Transition properties are only calculated between states of the same symmetry
 ? The problem occurs in mu_properties_expec2

 !MCSCF expec      <1.2 Quartet|LXLX|1.2 Quartet>     0.000000000000
 !MCSCF expec      <2.2 Quartet|LXLX|2.2 Quartet>     0.298727083413
 !MCSCF expec      <3.2 Quartet|LXLX|3.2 Quartet>     0.999999999999
 !MCSCF expec      <4.2 Quartet|LXLX|4.2 Quartet>     1.000000000036
 !MCSCF expec      <5.2 Quartet|LXLX|5.2 Quartet>     3.999999999945
 !MCSCF expec      <6.2 Quartet|LXLX|6.2 Quartet>     3.701274860738
 !MCSCF expec      <7.2 Quartet|LXLX|7.2 Quartet>     0.000000000005
 !MCSCF expec      <8.2 Quartet|LXLX|8.2 Quartet>     0.999999999995
 !MCSCF expec      <9.2 Quartet|LXLX|9.2 Quartet>     0.999999999995
 !MCSCF expec    <10.2 Quartet|LXLX|10.2 Quartet>     0.000000000009
 !MCSCF expec      <1.2 Doublet|LXLX|1.2 Doublet>     1.000000000728
 !MCSCF expec      <2.2 Doublet|LXLX|2.2 Doublet>     1.530102334564
 !MCSCF expec      <3.2 Doublet|LXLX|3.2 Doublet>     3.999999776506
 !MCSCF expec      <4.2 Doublet|LXLX|4.2 Doublet>     1.000000232818
 !MCSCF expec      <5.2 Doublet|LXLX|5.2 Doublet>     2.469893184325
 !MCSCF expec      <6.2 Doublet|LXLX|6.2 Doublet>     0.000000000004
 !MCSCF expec      <7.2 Doublet|LXLX|7.2 Doublet>     1.000000000000
 !MCSCF expec      <8.2 Doublet|LXLX|8.2 Doublet>     1.000000000000
 
 !MCSCF expec      <1.2 Quartet|LYLY|1.2 Quartet>     0.000000000000
 !MCSCF expec      <2.2 Quartet|LYLY|2.2 Quartet>     1.940003245916
 !MCSCF expec      <3.2 Quartet|LYLY|3.2 Quartet>     1.000000000015
 !MCSCF expec      <4.2 Quartet|LYLY|4.2 Quartet>     3.999999999899
 !MCSCF expec      <5.2 Quartet|LYLY|5.2 Quartet>     1.000000000026
 !MCSCF expec      <6.2 Quartet|LYLY|6.2 Quartet>     2.059993057841
 !MCSCF expec      <7.2 Quartet|LYLY|7.2 Quartet>     0.000000000006
 !MCSCF expec      <8.2 Quartet|LYLY|8.2 Quartet>     0.999999999995
 !MCSCF expec      <9.2 Quartet|LYLY|9.2 Quartet>     0.000000000009
 !MCSCF expec    <10.2 Quartet|LYLY|10.2 Quartet>     0.999999999995
 !MCSCF expec      <1.2 Doublet|LYLY|1.2 Doublet>     1.000000000891
 !MCSCF expec      <2.2 Doublet|LYLY|2.2 Doublet>     0.551382042236
 !MCSCF expec      <3.2 Doublet|LYLY|3.2 Doublet>     1.000000221266
 !MCSCF expec      <4.2 Doublet|LYLY|4.2 Doublet>     3.999999767265
 !MCSCF expec      <5.2 Doublet|LYLY|5.2 Doublet>     3.448621136350
 !MCSCF expec      <6.2 Doublet|LYLY|6.2 Doublet>     0.999999999997
 !MCSCF expec      <7.2 Doublet|LYLY|7.2 Doublet>     0.999999999224
 !MCSCF expec      <8.2 Doublet|LYLY|8.2 Doublet>     0.000000001515
 
 !MCSCF expec      <1.2 Quartet|LZLZ|1.2 Quartet>     0.000000000000
 !MCSCF expec      <2.2 Quartet|LZLZ|2.2 Quartet>     3.761269670635
 !MCSCF expec      <3.2 Quartet|LZLZ|3.2 Quartet>     3.999999999950
 !MCSCF expec      <4.2 Quartet|LZLZ|4.2 Quartet>     1.000000000029
 !MCSCF expec      <5.2 Quartet|LZLZ|5.2 Quartet>     0.999999999993
 !MCSCF expec      <6.2 Quartet|LZLZ|6.2 Quartet>     0.238732081385
 !MCSCF expec      <7.2 Quartet|LZLZ|7.2 Quartet>     0.000000000005
 !MCSCF expec      <8.2 Quartet|LZLZ|8.2 Quartet>     0.000000000009
 !MCSCF expec      <9.2 Quartet|LZLZ|9.2 Quartet>     0.999999999995
 !MCSCF expec    <10.2 Quartet|LZLZ|10.2 Quartet>     0.999999999995
 !MCSCF expec      <1.2 Doublet|LZLZ|1.2 Doublet>     3.999999998380
 !MCSCF expec      <2.2 Doublet|LZLZ|2.2 Doublet>     3.918515623198
 !MCSCF expec      <3.2 Doublet|LZLZ|3.2 Doublet>     1.000000002226
 !MCSCF expec      <4.2 Doublet|LZLZ|4.2 Doublet>     0.999999999915
 !MCSCF expec      <5.2 Doublet|LZLZ|5.2 Doublet>     0.081485679324
 !MCSCF expec      <6.2 Doublet|LZLZ|6.2 Doublet>     0.999999999999
 !MCSCF expec      <7.2 Doublet|LZLZ|7.2 Doublet>     0.000000000776
 !MCSCF expec      <8.2 Doublet|LZLZ|8.2 Doublet>     0.999999998486
 
 !MCSCF expec      <1.2 Quartet|L**2|1.2 Quartet>     0.000000000000
 !MCSCF expec      <2.2 Quartet|L**2|2.2 Quartet>     5.999999999964
 !MCSCF expec      <3.2 Quartet|L**2|3.2 Quartet>     5.999999999965
 !MCSCF expec      <4.2 Quartet|L**2|4.2 Quartet>     5.999999999965
 !MCSCF expec      <5.2 Quartet|L**2|5.2 Quartet>     5.999999999965
 !MCSCF expec      <6.2 Quartet|L**2|6.2 Quartet>     5.999999999964
 !MCSCF expec      <7.2 Quartet|L**2|7.2 Quartet>     0.000000000016
 !MCSCF expec      <8.2 Quartet|L**2|8.2 Quartet>     2.000000000000
 !MCSCF expec      <9.2 Quartet|L**2|9.2 Quartet>     2.000000000000
 !MCSCF expec    <10.2 Quartet|L**2|10.2 Quartet>     2.000000000000
 !MCSCF expec      <1.2 Doublet|L**2|1.2 Doublet>     5.999999999998
 !MCSCF expec      <2.2 Doublet|L**2|2.2 Doublet>     5.999999999998
 !MCSCF expec      <3.2 Doublet|L**2|3.2 Doublet>     5.999999999998
 !MCSCF expec      <4.2 Doublet|L**2|4.2 Doublet>     5.999999999998
 !MCSCF expec      <5.2 Doublet|L**2|5.2 Doublet>     5.999999999998
 !MCSCF expec      <6.2 Doublet|L**2|6.2 Doublet>     2.000000000001
 !MCSCF expec      <7.2 Doublet|L**2|7.2 Doublet>     2.000000000001
 !MCSCF expec      <8.2 Doublet|L**2|8.2 Doublet>     2.000000000001
 
 EXTRA SYMMETRY OF MOS IN SYMMETRY 1:   1 3 5 6 2 4 1 1 4 2   3 5 6 1 4 2 6 3 5 1   4 3 5 6 21310111415   812 7 9 6 4 3 5 2 1
                                        6 5 3 2 41013111415  12 8 7 9 11310141511   812 7 9 5 3 6 2 4 1  1310141511 812 7 9 5
                                        3 6 2 4221620182419  27232617212528131015  1411 812 7 9 1 5 3 6   2 41310151411 812 7
                                        9 1 5 2 3 6 4 1 5 2   3 6 4 1 1
 EXTRA SYMMETRY OF MOS IN SYMMETRY 2:   2 1 3 1 3 2 2 3 1 3   2 1 4 6 810 5 7 9 3   2 1 810 7 9 4 5 6 3   2 1 7 9 810 5 6 4 9
                                        7 810 5 6 4 2 3 118  20151712141621131911   9 7 810 5 6 4201815  1712141621131911 2 1
                                        3 9 7 810 5 6 42018  151712161421131911 9   7 810 5 6 4 2 1 3 9   7 810 5 6 418201517
                                       14161213211911 2 1 3   7 9 810 5 6 4 2 1 3   2 1 3 2 1 3
 
  NATURAL ORBITALS (STATE AVERAGED)
  =================================

  Orbital  Occupation    Energy    Cen Mu Typ  Coefficients
    1.1     2.00000    -6.72205     1  1  s    1.00015
    2.1     2.00000    -1.35028     1  1  d2-  1.00066
    3.1     2.00000    -1.35028     1  1  d2+  1.00066
    4.1     2.00000    -1.35028     1  1  d1-  1.00066
    5.1     2.00000    -1.35028     1  1  d0   1.00066
    6.1     2.00000    -1.35028     1  1  d1+  1.00066
    7.1     2.00000    -0.71231     1  1  s   -0.42002    1  5  s    0.61013    1  6  s    0.46732
    1.2     2.00000    -4.29828     1  1  py   0.99993
    2.2     2.00000    -4.29828     1  1  px   0.99993
    3.2     2.00000    -4.29828     1  1  pz   0.99993
    4.2     0.92756    -0.15522     1  1  px  -0.27561    1  5  px   0.47968    1  6  px   0.37679
    5.2     0.92756    -0.15522     1  1  pz  -0.27561    1  5  pz   0.47968    1  6  pz   0.37679
    6.2     0.92756    -0.15522     1  1  py  -0.27561    1  5  py   0.47968    1  6  py   0.37679
    7.2     0.07244     0.04433     1 12  py   0.83096
    8.2     0.07244     0.04433     1 12  pz   0.83096
    9.2     0.07244     0.04433     1 12  px   0.83096
 
 Natural orbital dump (state averaged) at molpro section 2140.2 (Orbital set 2)
 
 Transform the CI vectors
 
 CI Coefficients of symmetry 2 (Quartet)
 =======================================

 State:              1               2               3               4               5               6               7
 aaa000         0.99989243     -0.00000000     -0.00000000     -0.00000000     -0.00000000      0.00000000      0.00001788
 a0a0a0         0.00109702      0.19904468     -0.00000007     -0.00000038     -0.00000195      0.79006743     -0.57255867
 0aa00a        -0.00109702      0.78374104      0.00000014     -0.00000028     -0.00000053      0.22265604      0.57255833
 0aaa00         0.00000000     -0.00000016      0.70559842      0.00000175     -0.00000090      0.00000010     -0.00000000
 aa000a        -0.00000000     -0.00000016      0.70559844      0.00000175     -0.00000090      0.00000010      0.00000000
 aa00a0        -0.00000000     -0.00000002      0.00000090     -0.00000261      0.70559844      0.00000175      0.00000000
 a0aa00        -0.00000000      0.00000002     -0.00000090      0.00000261     -0.70559842     -0.00000175     -0.00000000
 0aa0a0         0.00000000     -0.00000017      0.00000175     -0.70559843     -0.00000261     -0.00000030     -0.00000000
 a0a00a         0.00000000      0.00000017     -0.00000175      0.70559843      0.00000261      0.00000030     -0.00000000
 aa0a00        -0.00109702     -0.58469607     -0.00000021     -0.00000010     -0.00000143      0.56741170      0.57255850
 a00aa0         0.00837289     -0.05127334     -0.00000001      0.00000002      0.00000003     -0.01456643      0.07422198
 00a0aa         0.00837289      0.03825160      0.00000001      0.00000001      0.00000009     -0.03712079      0.07422196
 0a0a0a        -0.00837289     -0.01302178      0.00000000      0.00000002      0.00000013     -0.05168726     -0.07422195
 
 Energy:     -213.59038929   -213.35514007   -213.35514007   -213.35514007   -213.35514007   -213.35514007   -213.35159907

 State:              8               9              10
 aaa000        -0.00000000     -0.00000000      0.00000000
 a0a0a0        -0.00000000     -0.00000000     -0.00000000
 0aa00a        -0.00000000      0.00000000     -0.00000000
 0aaa00        -0.70559844      0.00000025      0.00000014
 aa000a         0.70559842     -0.00000025     -0.00000014
 aa00a0         0.00000014     -0.00000042      0.70559842
 a0aa00         0.00000014     -0.00000042      0.70559844
 0aa0a0         0.00000025      0.70559843      0.00000042
 a0a00a         0.00000025      0.70559843      0.00000042
 aa0a00        -0.00000000      0.00000000     -0.00000000
 a00aa0        -0.00000000      0.00000000      0.00000000
 00a0aa        -0.00000000     -0.00000000      0.00000000
 0a0a0a         0.00000000     -0.00000000      0.00000000
 
 Energy:     -213.35050373   -213.35050373   -213.35050373
 
 
 CI Coefficients of symmetry 2 (Doublet)
 =======================================

 State:              1               2               3               4               5               6               7
 aba000         0.00000166     -0.11632244      0.00001758      0.00000842      0.80665367     -0.00000000      0.00000000
 aab000        -0.00000731      0.75674379     -0.00000659     -0.00000316     -0.30258865      0.00000000      0.00000000
 0a2000        -0.70580861     -0.00000662      0.00001043      0.00001254      0.00000049      0.00000057      0.70215785
 2a0000         0.70580861      0.00000662     -0.00001043     -0.00001254     -0.00000049      0.00000057      0.70215785
 a02000        -0.00001043     -0.00000000     -0.70580858      0.00019117      0.00001538      0.70215785     -0.00000057
 20a000         0.00001254     -0.00000000      0.00019117      0.70580858     -0.00000737      0.00000120     -0.00001955
 02a000        -0.00001254      0.00000000     -0.00019117     -0.70580858      0.00000737      0.00000120     -0.00001955
 a20000         0.00001043      0.00000000      0.70580858     -0.00019117     -0.00001538      0.70215785     -0.00000057
 baa000         0.00000565     -0.64042135     -0.00001099     -0.00000526     -0.50406502     -0.00000000     -0.00000000
 0aa0b0         0.00000056     -0.00000000      0.00000852      0.03144487     -0.00000033     -0.00000011      0.00000174
 aa00b0         0.00000046      0.00000000      0.03144487     -0.00000852     -0.00000069      0.06240488     -0.00000005
 0aab00        -0.03144487     -0.00000029      0.00000046      0.00000056      0.00000002      0.00000005      0.06240488
 a0ab00        -0.00000046     -0.00000000     -0.03144487      0.00000852      0.00000069      0.06240488     -0.00000005
 aa000b        -0.03144487     -0.00000029      0.00000046      0.00000056      0.00000002     -0.00000005     -0.06240488
 a0a00b        -0.00000056      0.00000000     -0.00000852     -0.03144487      0.00000033     -0.00000011      0.00000174
 
 Energy:     -213.53286016   -213.53286016   -213.53286016   -213.53286016   -213.53286016   -213.49570767   -213.49570767

 State:              8
 aba000        -0.00000000
 aab000        -0.00000000
 0a2000         0.00001955
 2a0000         0.00001955
 a02000        -0.00000120
 20a000         0.70215785
 02a000         0.70215785
 a20000        -0.00000120
 baa000         0.00000000
 0aa0b0        -0.06240489
 aa00b0        -0.00000011
 0aab00         0.00000174
 a0ab00        -0.00000011
 aa000b        -0.00000174
 a0a00b        -0.06240488
 
 Energy:     -213.49570767
 


 **********************************************************************************************************************************
 DATASETS  * FILE   NREC   LENGTH (MB)   RECORD NAMES
              1      21       94.20       500      610      700      900      950      970     1000      129      960     1100   
                                          VAR    BASINP    GEOM    SYMINP    ZMAT    AOBASIS   BASIS     P2S    ABASIS      S 
                                         1400     1410     1420     1200     1210     1080     1700     1600     1650     1380   
                                           T        V       ECP      H0       H01     AOSYM    OPER      SMH    MOLCAS    JKOP   
                                         1700(1)
                                         OPER   

              2       4        1.49       700     1000      520     2140   
                                         GEOM     BASIS   MCVARS    MCSCF   

 PROGRAMS   *        TOTAL     MULTI       INT
 CPU TIMES  *        18.46      8.08     10.00
 REAL TIME  *        20.99 SEC
 DISK USED  *        95.81 MB (local),        2.89 GB (total)
 SF USED    *       161.51 MB
 GA USED    *         0.00 MB       (max)       0.00 MB       (current)
 **********************************************************************************************************************************

 Energies and &lt;L**2&gt; values

         ENERGY     LL
    -213.5903893   0.0
    -213.3551401   6.0
    -213.3551401   6.0
    -213.3551401   6.0
    -213.3551401   6.0
    -213.3551401   6.0
    -213.3515991   0.0
    -213.3505037   2.0
    -213.3505037   2.0
    -213.3505037   2.0
    -213.5328602   6.0
    -213.5328602   6.0
    -213.5328602   6.0
    -213.5328602   6.0
    -213.5328602   6.0
    -213.4957077   2.0
    -213.4957077   2.0
    -213.4957077   2.0
                                                  


 PROGRAM * CI (Multireference internally contracted CI)     Authors: H.-J. Werner, P.J. Knowles, 1987


 Convergence thresholds:  THRVAR = 1.00D-08  THRDEN = 1.00D-06

 Number of optimized states: 10  Roots:   1   2   3   4   5   6   7   8   9  10
 Number of reference states: 10  Roots:   1   2   3   4   5   6   7   8   9  10

 Reference symmetry:                   2   Quartet 
 Number of electrons:                 23
 Maximum number of shells:             4
 Maximum number of spin couplings:    48

 Reference space:       20 conf       20 CSFs
 N elec internal:     7100 conf    19340 CSFs
 N-1 el internal:     4640 conf    22565 CSFs
 N-2 el internal:     1256 conf    14006 CSFs

 Number of electrons in valence space:                     23
 Maximum number of open shell orbitals in reference space:  3
 Maximum number of open shell orbitals in internal spaces:  9


 Number of closed-shell orbitals:  10 (   7   3 )
 Number of active  orbitals:        6 (   0   6 )
 Number of external orbitals:     265 ( 128 137 )

 Molecular orbitals read from record     2140.2  Type=MCSCF/NATURAL (state averaged)

 Valence orbitals related to previous ones by unitary transformation. Operators transformed.


 Number of p-space configurations:  10

 Reference wavefunction optimized for reference space (refopt=1)

 State     Reference Energy 
     1      -213.59038929
     2      -213.35514007
     3      -213.35514007
     4      -213.35514007
     5      -213.35514007
     6      -213.35514007
     7      -213.35159907
     8      -213.35050373
     9      -213.35050373
    10      -213.35050373

 Number of blocks in overlap matrix:  1085   Smallest eigenvalue:  0.41D-04
 Number of N-2 electron functions:    1306
 Number of N-1 electron functions:   22565

 Number of internal configurations:                10436
 Number of singly external configurations:       2999425
 Number of doubly external configurations:      22941849
 Total number of contracted configurations:     25951710
 Total number of uncontracted configurations:  248483850

 Diagonal Coupling coefficients finished.               Storage:   6094488 words, CPU-Time:      3.17 seconds.
 Energy denominators for pairs finished in 1 passes.    Storage:   3494151 words, CPU-time:      4.35 seconds.

  ITER. STATE  ROOT     SQ.NORM     CORR.ENERGY   TOTAL ENERGY   ENERGY CHANGE       DEN1      VAR(S)    VAR(P)      TIME
    1     1     1     1.00000000     0.00000000  -213.59038929    -0.00000000    -0.99896307  0.42D-01  0.12D+00    10.83
    1     2     2     1.00000000     0.00000000  -213.35514007    -0.00000000    -0.96850159  0.45D-01  0.11D+00    10.83
    1     3     3     1.00000000     0.00000000  -213.35514007    -0.00000000    -0.96910174  0.46D-01  0.11D+00    10.83
    1     4     4     1.00000000     0.00000000  -213.35514007    -0.00000000    -0.96876706  0.45D-01  0.11D+00    10.83
    1     5     5     1.00000000     0.00000000  -213.35514007    -0.00000000    -0.96886319  0.46D-01  0.11D+00    10.83
    1     6     6     1.00000000     0.00000000  -213.35514007    -0.00000000    -0.96821016  0.46D-01  0.11D+00    10.83
    1     7     7     1.00000000     0.00000000  -213.35159907    -0.00000000    -0.97350326  0.48D-01  0.11D+00    10.83
    1     8     8     1.00000000     0.00000000  -213.35050373     0.00000000    -0.96989742  0.46D-01  0.11D+00    10.83
    1     9     9     1.00000000     0.00000000  -213.35050373    -0.00000000    -0.96955952  0.46D-01  0.11D+00    10.83
    1    10    10     1.00000000     0.00000000  -213.35050373    -0.00000000    -0.96960544  0.46D-01  0.11D+00    10.83
    2     1     1     1.10412432    -0.79733764  -214.38772693    -0.79733764    -0.02611362  0.35D-02  0.22D-02   402.43
    2     2     2     1.10266911    -0.79179427  -214.14693434    -0.79179427    -0.02292078  0.29D-02  0.18D-02   402.43
    2     3     3     1.10273703    -0.79166170  -214.14680177    -0.79166170    -0.02307764  0.29D-02  0.18D-02   402.43
    2     4     4     1.10278817    -0.79165162  -214.14679169    -0.79165162    -0.02307910  0.30D-02  0.18D-02   402.43
    2     5     5     1.10281069    -0.79157169  -214.14671176    -0.79157169    -0.02317683  0.30D-02  0.18D-02   402.43
    2     6     6     1.10278907    -0.79156884  -214.14670891    -0.79156884    -0.02318547  0.29D-02  0.19D-02   402.43
    2     7     7     1.10411121    -0.79089763  -214.14249670    -0.79089763    -0.02478499  0.39D-02  0.19D-02   402.43
    2     8     8     1.10313022    -0.79188492  -214.14238865    -0.79188492    -0.02323676  0.29D-02  0.19D-02   402.43
    2     9     9     1.10317541    -0.79182192  -214.14232565    -0.79182192    -0.02330798  0.30D-02  0.19D-02   402.43
    2    10    10     1.10318629    -0.79178765  -214.14229138    -0.79178765    -0.02335430  0.29D-02  0.19D-02   402.43
    3     1     1     1.08972613    -0.82208023  -214.41246952    -0.02474259    -0.00028545  0.41D-04  0.26D-04   794.21
    3     2     2     1.08948989    -0.81355863  -214.16869870    -0.02176436    -0.00025598  0.34D-04  0.24D-04   794.21
    3     3     3     1.08949401    -0.81355693  -214.16869700    -0.02189523    -0.00025772  0.34D-04  0.24D-04   794.21
    3     4     4     1.08948720    -0.81355610  -214.16869616    -0.02190447    -0.00025866  0.34D-04  0.24D-04   794.21
    3     5     5     1.08949826    -0.81355525  -214.16869532    -0.02198355    -0.00025950  0.34D-04  0.24D-04   794.21
    3     6     6     1.08949211    -0.81355518  -214.16869525    -0.02198634    -0.00025955  0.34D-04  0.24D-04   794.21
    3     7     7     1.08942385    -0.81434004  -214.16593911    -0.02344241    -0.00030295  0.42D-04  0.29D-04   794.21
    3     8     8     1.08968411    -0.81393176  -214.16443549    -0.02204684    -0.00025731  0.31D-04  0.25D-04   794.21
    3     9     9     1.08968289    -0.81393052  -214.16443425    -0.02210859    -0.00025860  0.31D-04  0.25D-04   794.21
    3    10    10     1.08968850    -0.81393012  -214.16443385    -0.02214247    -0.00025905  0.31D-04  0.25D-04   794.21
    4     1     1     1.08945184    -0.82237712  -214.41276641    -0.00029689    -0.00000629  0.93D-06  0.60D-06  1186.35
    4     2     2     1.08927827    -0.81382218  -214.16896225    -0.00026355    -0.00000666  0.12D-05  0.53D-06  1186.35
    4     3     3     1.08927834    -0.81382214  -214.16896221    -0.00026521    -0.00000666  0.12D-05  0.53D-06  1186.35
    4     4     4     1.08927716    -0.81382213  -214.16896220    -0.00026603    -0.00000671  0.12D-05  0.54D-06  1186.35
    4     5     5     1.08927863    -0.81382212  -214.16896218    -0.00026687    -0.00000668  0.12D-05  0.54D-06  1186.35
    4     6     6     1.08927759    -0.81382211  -214.16896217    -0.00026693    -0.00000669  0.12D-05  0.54D-06  1186.35
    4     7     7     1.08915943    -0.81465253  -214.16625160    -0.00031249    -0.00000866  0.18D-05  0.72D-06  1186.35
    4     8     8     1.08947569    -0.81419631  -214.16470004    -0.00026456    -0.00000654  0.12D-05  0.53D-06  1186.35
    4     9     9     1.08947613    -0.81419628  -214.16470001    -0.00026577    -0.00000657  0.12D-05  0.53D-06  1186.35
    4    10    10     1.08947526    -0.81419628  -214.16470001    -0.00026616    -0.00000657  0.12D-05  0.53D-06  1186.35
    5     1     1     1.08952030    -0.82238381  -214.41277310    -0.00000669    -0.00000015  0.14D-07  0.16D-07  1578.95
    5     2     2     1.08930287    -0.81382920  -214.16896927    -0.00000702    -0.00000021  0.29D-07  0.21D-07  1578.95
    5     3     3     1.08930281    -0.81382920  -214.16896927    -0.00000706    -0.00000022  0.29D-07  0.21D-07  1578.95
    5     4     4     1.08930282    -0.81382917  -214.16896923    -0.00000704    -0.00000022  0.29D-07  0.21D-07  1578.95
    5     5     5     1.08930277    -0.81382917  -214.16896923    -0.00000705    -0.00000022  0.29D-07  0.21D-07  1578.95
    5     6     6     1.08930283    -0.81382917  -214.16896923    -0.00000706    -0.00000022  0.29D-07  0.21D-07  1578.95
    5     7     7     1.08917519    -0.81466161  -214.16626068    -0.00000908    -0.00000029  0.46D-07  0.29D-07  1578.95
    5     8     8     1.08950079    -0.81420324  -214.16470697    -0.00000693    -0.00000022  0.31D-07  0.21D-07  1578.95
    5     9     9     1.08950080    -0.81420324  -214.16470697    -0.00000696    -0.00000022  0.31D-07  0.21D-07  1578.95
    5    10    10     1.08950083    -0.81420324  -214.16470697    -0.00000696    -0.00000022  0.31D-07  0.21D-07  1578.95
    6     1     1     1.08952702    -0.82238397  -214.41277326    -0.00000016    -0.00000000  0.46D-09  0.40D-09  1972.14
    6     2     2     1.08931673    -0.81382943  -214.16896950    -0.00000023    -0.00000001  0.71D-09  0.76D-09  1972.14
    6     3     3     1.08931671    -0.81382943  -214.16896950    -0.00000023    -0.00000001  0.71D-09  0.75D-09  1972.14
    6     4     4     1.08931666    -0.81382939  -214.16896946    -0.00000023    -0.00000001  0.71D-09  0.77D-09  1972.14
    6     5     5     1.08931667    -0.81382940  -214.16896946    -0.00000023    -0.00000001  0.71D-09  0.76D-09  1972.14
    6     6     6     1.08931664    -0.81382939  -214.16896946    -0.00000023    -0.00000001  0.71D-09  0.77D-09  1972.14
    6     7     7     1.08918475    -0.81466192  -214.16626099    -0.00000031    -0.00000001  0.96D-09  0.13D-08  1972.14
    6     8     8     1.08951511    -0.81420347  -214.16470720    -0.00000023    -0.00000001  0.78D-09  0.77D-09  1972.14
    6     9     9     1.08951511    -0.81420347  -214.16470720    -0.00000023    -0.00000001  0.77D-09  0.76D-09  1972.14
    6    10    10     1.08951510    -0.81420347  -214.16470720    -0.00000023    -0.00000001  0.77D-09  0.76D-09  1972.14


 =====================================
 Analysis of CPU times by interactions
 =====================================

       I      S      P

 I   0.3%
 S   0.3%   6.8%
 P   0.5%  21.0%  22.5%

 Initialization:   0.4%
 Other:           48.2%

 Total CPU:     1972.1 seconds
 =====================================



 Wavefunction saved on  5302.2

 Reference coefficients greater than 0.0500000
 =============================================
 2222222222///000           0.9575935  -0.0000000   0.0000000  -0.0000000  -0.0000000  -0.0000000   0.0203846  -0.0000000
                            0.0000000  -0.0000000
 22222222220//00/          -0.0128754   0.7620366   0.1655854  -0.0000000   0.0000000   0.0000000   0.5476426  -0.0000000
                            0.0000000   0.0000000
 2222222222/0/0/0           0.0128753   0.2376171   0.7427356   0.0000000  -0.0000000  -0.0000000  -0.5476429   0.0000000
                           -0.0000000  -0.0000000
 2222222222//00/0           0.0000000  -0.0000000   0.0000000   0.0000000   0.0000000   0.6753434  -0.0000000   0.0000000
                            0.0000000   0.6752702
 22222222220//0/0          -0.0000000   0.0000000  -0.0000000  -0.0000000   0.6753433  -0.0000000  -0.0000000   0.0000000
                            0.6752702  -0.0000000
 2222222222//000/           0.0000000  -0.0000000   0.0000000   0.6753433  -0.0000000  -0.0000000   0.0000000   0.6752702
                           -0.0000000  -0.0000000
 22222222220///00           0.0000000   0.0000000   0.0000000   0.6753433  -0.0000000   0.0000000   0.0000000  -0.6752702
                            0.0000000   0.0000000
 2222222222/0//00          -0.0000000  -0.0000000  -0.0000000  -0.0000000  -0.0000000  -0.6753433   0.0000000   0.0000000
                           -0.0000000   0.6752702
 2222222222/0/00/          -0.0000000  -0.0000000  -0.0000000  -0.0000000  -0.6753433  -0.0000000  -0.0000000   0.0000000
                            0.6752702   0.0000000
 2222222222//0/00          -0.0128753  -0.5244193   0.5771504  -0.0000000   0.0000000   0.0000000   0.5476427  -0.0000000
                            0.0000000   0.0000000
 2222222222/00//0           0.0065599  -0.0517161  -0.0112375  -0.0000000  -0.0000000   0.0000000   0.0740594  -0.0000000
                            0.0000000   0.0000000
 22222222220/0/0/          -0.0065599  -0.0161261  -0.0504063   0.0000000   0.0000000  -0.0000000  -0.0740594   0.0000000
                           -0.0000000  -0.0000000
 222222222200/0//           0.0065599   0.0355901  -0.0391687  -0.0000000  -0.0000000   0.0000000   0.0740594  -0.0000000
                            0.0000000   0.0000000

 Coefficients of fixed reference functions:
 ==========================================

 State      Coefficients
 1           0.957699   -0.000000    0.000000    0.000000    0.000000    0.000000   -0.020636    0.000000   -0.000000    0.000000
 2          -0.000000    0.955384    0.000000    0.000000   -0.000000    0.060120   -0.000000   -0.000000   -0.000000   -0.000000
 3           0.000000   -0.060120    0.000000    0.000000    0.000000    0.955384   -0.000000   -0.000000   -0.000000    0.000000
 4          -0.000000   -0.000000    0.957274   -0.000000    0.000000   -0.000000   -0.000000   -0.000000   -0.000000    0.000000
 5          -0.000000   -0.000000   -0.000000    0.957274    0.000000   -0.000000    0.000000   -0.000000    0.000000    0.000000
 6          -0.000000    0.000000    0.000000   -0.000000    0.957274   -0.000000    0.000000   -0.000000   -0.000000    0.000000
 7           0.020443    0.000000    0.000000   -0.000000   -0.000000    0.000000    0.957167    0.000000   -0.000000   -0.000000
 8          -0.000000    0.000000    0.000000   -0.000000    0.000000    0.000000   -0.000000    0.957170    0.000000    0.000000
 9           0.000000    0.000000    0.000000   -0.000000    0.000000    0.000000    0.000000   -0.000000    0.957170   -0.000000
 10         -0.000000    0.000000   -0.000000   -0.000000    0.000000   -0.000000    0.000000   -0.000000    0.000000    0.957170

 Coefficients of rotated reference functions:
 ============================================

 State      Coefficients
 1           0.957921   -0.000000    0.000000   -0.000000   -0.000000   -0.000000   -0.000091    0.000000    0.000000   -0.000000
 2          -0.000000    0.957274   -0.000000   -0.000000   -0.000000    0.000000   -0.000000    0.000000   -0.000000    0.000000
 3           0.000000   -0.000000    0.957274    0.000000   -0.000000   -0.000000    0.000000    0.000000   -0.000000    0.000000
 4          -0.000000   -0.000000    0.000000    0.957274   -0.000000    0.000000   -0.000000    0.000000    0.000000    0.000000
 5          -0.000000   -0.000000   -0.000000   -0.000000    0.957274   -0.000000    0.000000   -0.000000   -0.000000    0.000000
 6          -0.000000    0.000000   -0.000000    0.000000   -0.000000    0.957274    0.000000   -0.000000   -0.000000    0.000000
 7          -0.000091   -0.000000    0.000000   -0.000000    0.000000    0.000000    0.957386    0.000000    0.000000    0.000000
 8           0.000000    0.000000    0.000000    0.000000   -0.000000   -0.000000    0.000000    0.957170    0.000000   -0.000000
 9           0.000000   -0.000000   -0.000000    0.000000   -0.000000   -0.000000    0.000000    0.000000    0.957170   -0.000000
 10         -0.000000    0.000000    0.000000    0.000000    0.000000    0.000000    0.000000   -0.000000   -0.000000    0.957170


 RESULTS FOR STATE 1.2
 =====================

 Coefficient of reference function:   C(0) = 0.95769871 (fixed)   0.95792102 (relaxed)   0.95792101 (rotated)

 Energy contributions of configuration classes

 CLASS          SQ.NORM        ECORR1        ECORR2
 +++++++++++++++++++++++++++++++++++++++++++++++++++
 Internals    0.00023627   -0.00066516   -0.70664789
 Singles      0.01376071   -0.05248440   -0.05854786
 Pairs        0.07578747   -0.00000000   -0.05718823
 Total        1.08978445   -0.05314956   -0.82238397
 +++++++++++++++++++++++++++++++++++++++++++++++++++


 Reference energy                    -213.59027944
 Nuclear energy                         0.00000000
 Kinetic energy                        69.54573020
 One electron energy                 -372.62112095
 Two electron energy                  158.20834769
 Virial quotient                       -3.08304726
 Correlation energy                    -0.82249382
 !MRCI STATE 1.2 Energy              -214.412773258622

 Properties without orbital relaxation:

 !MRCI STATE 1.2 Dipole moment          0.00000000     0.00000000     0.00000000
 Dipole moment /Debye                   0.00000000     0.00000000     0.00000000

 Cluster corrected energies          -214.48662041 (Davidson, fixed reference)
 Cluster corrected energies          -214.48662038 (Davidson, relaxed reference)
 Cluster corrected energies          -214.48662041 (Davidson, rotated reference)

 Cluster corrected energies          -214.48431876 (Pople, fixed reference)
 Cluster corrected energies          -214.48431873 (Pople, relaxed reference)
 Cluster corrected energies          -214.48431876 (Pople, rotated reference)



 RESULTS FOR STATE 2.2
 =====================

 Coefficient of reference function:   C(0) = 0.95538401 (fixed)   0.95727657 (relaxed)   0.95727374 (rotated)

 Energy contributions of configuration classes

 CLASS          SQ.NORM        ECORR1        ECORR2
 +++++++++++++++++++++++++++++++++++++++++++++++++++
 Internals    0.00178272   -0.00415638   -0.68812163
 Singles      0.01858976   -0.06436156   -0.07284588
 Pairs        0.07088620    0.00000000   -0.05286192
 Total        1.09125868   -0.06851794   -0.81382943
 +++++++++++++++++++++++++++++++++++++++++++++++++++


 Reference energy                    -213.35514007
 Nuclear energy                         0.00000000
 Kinetic energy                        69.23501167
 One electron energy                 -367.98094764
 Two electron energy                  153.81197815
 Virial quotient                       -3.09336222
 Correlation energy                    -0.81382943
 !MRCI STATE 2.2 Energy              -214.168969496555

 Properties without orbital relaxation:

 !MRCI STATE 2.2 Dipole moment          0.00000000     0.00000000     0.00000000
 Dipole moment /Debye                   0.00000000     0.00000000     0.00000000

 Cluster corrected energies          -214.24323849 (Davidson, fixed reference)
 Cluster corrected energies          -214.24323323 (Davidson, relaxed reference)
 Cluster corrected energies          -214.24323849 (Davidson, rotated reference)

 Cluster corrected energies          -214.24101307 (Pople, fixed reference)
 Cluster corrected energies          -214.24100758 (Pople, relaxed reference)
 Cluster corrected energies          -214.24101307 (Pople, rotated reference)



 RESULTS FOR STATE 3.2
 =====================

 Maximum overlap with reference state  6

 Coefficient of reference function:   C(0) = 0.95538402 (fixed)   0.95727658 (relaxed)   0.95727375 (rotated)

 Energy contributions of configuration classes

 CLASS          SQ.NORM        ECORR1        ECORR2
 +++++++++++++++++++++++++++++++++++++++++++++++++++
 Internals    0.00178272   -0.00415638   -0.68812175
 Singles      0.01858967   -0.06436145   -0.07284581
 Pairs        0.07088627   -0.00000000   -0.05286188
 Total        1.09125865   -0.06851783   -0.81382943
 +++++++++++++++++++++++++++++++++++++++++++++++++++


 Reference energy                    -213.35514007
 Nuclear energy                         0.00000000
 Kinetic energy                        69.23501258
 One electron energy                 -367.98094696
 Two electron energy                  153.81197746
 Virial quotient                       -3.09336218
 Correlation energy                    -0.81382943
 !MRCI STATE 3.2 Energy              -214.168969496199

 Properties without orbital relaxation:

 !MRCI STATE 3.2 Dipole moment          0.00000000     0.00000000     0.00000000
 Dipole moment /Debye                   0.00000000     0.00000000     0.00000000

 Cluster corrected energies          -214.24323848 (Davidson, fixed reference)
 Cluster corrected energies          -214.24323322 (Davidson, relaxed reference)
 Cluster corrected energies          -214.24323848 (Davidson, rotated reference)

 Cluster corrected energies          -214.24101305 (Pople, fixed reference)
 Cluster corrected energies          -214.24100756 (Pople, relaxed reference)
 Cluster corrected energies          -214.24101305 (Pople, rotated reference)



 RESULTS FOR STATE 4.2
 =====================

 Maximum overlap with reference state  3

 Coefficient of reference function:   C(0) = 0.95727377 (fixed)   0.95727660 (relaxed)   0.95727377 (rotated)

 Energy contributions of configuration classes

 CLASS          SQ.NORM        ECORR1        ECORR2
 +++++++++++++++++++++++++++++++++++++++++++++++++++
 Internals    0.00178272   -0.00415639   -0.68812160
 Singles      0.01858973   -0.06436161   -0.07284584
 Pairs        0.07088616   -0.00000000   -0.05286196
 Total        1.09125861   -0.06851801   -0.81382939
 +++++++++++++++++++++++++++++++++++++++++++++++++++


 Reference energy                    -213.35514007
 Nuclear energy                         0.00000000
 Kinetic energy                        69.23500981
 One electron energy                 -367.98094686
 Two electron energy                  153.81197740
 Virial quotient                       -3.09336230
 Correlation energy                    -0.81382939
 !MRCI STATE 4.2 Energy              -214.168969461763

 Properties without orbital relaxation:

 !MRCI STATE 4.2 Dipole moment          0.00000000     0.00000000     0.00000000
 Dipole moment /Debye                   0.00000000     0.00000000     0.00000000

 Cluster corrected energies          -214.24323840 (Davidson, fixed reference)
 Cluster corrected energies          -214.24323314 (Davidson, relaxed reference)
 Cluster corrected energies          -214.24323840 (Davidson, rotated reference)

 Cluster corrected energies          -214.24101298 (Pople, fixed reference)
 Cluster corrected energies          -214.24100748 (Pople, relaxed reference)
 Cluster corrected energies          -214.24101298 (Pople, rotated reference)



 RESULTS FOR STATE 5.2
 =====================

 Maximum overlap with reference state  4

 Coefficient of reference function:   C(0) = 0.95727376 (fixed)   0.95727660 (relaxed)   0.95727376 (rotated)

 Energy contributions of configuration classes

 CLASS          SQ.NORM        ECORR1        ECORR2
 +++++++++++++++++++++++++++++++++++++++++++++++++++
 Internals    0.00178272   -0.00415639   -0.68812161
 Singles      0.01858972   -0.06436159   -0.07284583
 Pairs        0.07088618   -0.00000000   -0.05286196
 Total        1.09125862   -0.06851798   -0.81382939
 +++++++++++++++++++++++++++++++++++++++++++++++++++


 Reference energy                    -213.35514007
 Nuclear energy                         0.00000000
 Kinetic energy                        69.23501102
 One electron energy                 -367.98094748
 Two electron energy                  153.81197801
 Virial quotient                       -3.09336225
 Correlation energy                    -0.81382939
 !MRCI STATE 5.2 Energy              -214.168969461620

 Properties without orbital relaxation:

 !MRCI STATE 5.2 Dipole moment          0.00000000     0.00000000     0.00000000
 Dipole moment /Debye                   0.00000000     0.00000000     0.00000000

 Cluster corrected energies          -214.24323841 (Davidson, fixed reference)
 Cluster corrected energies          -214.24323315 (Davidson, relaxed reference)
 Cluster corrected energies          -214.24323841 (Davidson, rotated reference)

 Cluster corrected energies          -214.24101299 (Pople, fixed reference)
 Cluster corrected energies          -214.24100749 (Pople, relaxed reference)
 Cluster corrected energies          -214.24101299 (Pople, rotated reference)



 RESULTS FOR STATE 6.2
 =====================

 Maximum overlap with reference state  5

 Coefficient of reference function:   C(0) = 0.95727378 (fixed)   0.95727661 (relaxed)   0.95727378 (rotated)

 Energy contributions of configuration classes

 CLASS          SQ.NORM        ECORR1        ECORR2
 +++++++++++++++++++++++++++++++++++++++++++++++++++
 Internals    0.00178272   -0.00415639   -0.68812167
 Singles      0.01858967   -0.06436153   -0.07284579
 Pairs        0.07088620   -0.00000002   -0.05286194
 Total        1.09125859   -0.06851794   -0.81382939
 +++++++++++++++++++++++++++++++++++++++++++++++++++


 Reference energy                    -213.35514007
 Nuclear energy                         0.00000000
 Kinetic energy                        69.23501033
 One electron energy                 -367.98094625
 Two electron energy                  153.81197679
 Virial quotient                       -3.09336228
 Correlation energy                    -0.81382939
 !MRCI STATE 6.2 Energy              -214.168969461450

 Properties without orbital relaxation:

 !MRCI STATE 6.2 Dipole moment          0.00000000     0.00000000     0.00000000
 Dipole moment /Debye                   0.00000000     0.00000000     0.00000000

 Cluster corrected energies          -214.24323838 (Davidson, fixed reference)
 Cluster corrected energies          -214.24323313 (Davidson, relaxed reference)
 Cluster corrected energies          -214.24323838 (Davidson, rotated reference)

 Cluster corrected energies          -214.24101296 (Pople, fixed reference)
 Cluster corrected energies          -214.24100747 (Pople, relaxed reference)
 Cluster corrected energies          -214.24101296 (Pople, rotated reference)



 RESULTS FOR STATE 7.2
 =====================

 Coefficient of reference function:   C(0) = 0.95716740 (fixed)   0.95739863 (relaxed)   0.95738567 (rotated)

 Energy contributions of configuration classes

 CLASS          SQ.NORM        ECORR1        ECORR2
 +++++++++++++++++++++++++++++++++++++++++++++++++++
 Internals    0.00166984   -0.00388574   -0.68967679
 Singles      0.01820556   -0.06358248   -0.07187651
 Pairs        0.07112812    0.00000000   -0.05310862
 Total        1.09100352   -0.06746822   -0.81466192
 +++++++++++++++++++++++++++++++++++++++++++++++++++


 Reference energy                    -213.35170892
 Nuclear energy                         0.00000000
 Kinetic energy                        69.26991027
 One electron energy                 -368.15646215
 Two electron energy                  153.99020116
 Virial quotient                       -3.09176467
 Correlation energy                    -0.81455208
 !MRCI STATE 7.2 Energy              -214.166260990694

 Properties without orbital relaxation:

 !MRCI STATE 7.2 Dipole moment          0.00000000     0.00000000     0.00000000
 Dipole moment /Debye                   0.00000000     0.00000000     0.00000000

 Cluster corrected energies          -214.24038809 (Davidson, fixed reference)
 Cluster corrected energies          -214.24036405 (Davidson, relaxed reference)
 Cluster corrected energies          -214.24038809 (Davidson, rotated reference)

 Cluster corrected energies          -214.23815147 (Pople, fixed reference)
 Cluster corrected energies          -214.23812637 (Pople, relaxed reference)
 Cluster corrected energies          -214.23815147 (Pople, rotated reference)



 RESULTS FOR STATE 8.2
 =====================

 Coefficient of reference function:   C(0) = 0.95717009 (fixed)   0.95717293 (relaxed)   0.95717009 (rotated)

 Energy contributions of configuration classes

 CLASS          SQ.NORM        ECORR1        ECORR2
 +++++++++++++++++++++++++++++++++++++++++++++++++++
 Internals    0.00181724   -0.00419385   -0.68828236
 Singles      0.01862311   -0.06442631   -0.07292032
 Pairs        0.07105467   -0.00000000   -0.05300079
 Total        1.09149502   -0.06862015   -0.81420347
 +++++++++++++++++++++++++++++++++++++++++++++++++++


 Reference energy                    -213.35050373
 Nuclear energy                         0.00000000
 Kinetic energy                        69.23548849
 One electron energy                 -367.97845583
 Two electron energy                  153.81374862
 Virial quotient                       -3.09327936
 Correlation energy                    -0.81420347
 !MRCI STATE 8.2 Energy              -214.164707203761

 Properties without orbital relaxation:

 !MRCI STATE 8.2 Dipole moment          0.00000000     0.00000000     0.00000000
 Dipole moment /Debye                   0.00000000     0.00000000     0.00000000

 Cluster corrected energies          -214.23920277 (Davidson, fixed reference)
 Cluster corrected energies          -214.23919750 (Davidson, relaxed reference)
 Cluster corrected energies          -214.23920277 (Davidson, rotated reference)

 Cluster corrected energies          -214.23698495 (Pople, fixed reference)
 Cluster corrected energies          -214.23697945 (Pople, relaxed reference)
 Cluster corrected energies          -214.23698495 (Pople, rotated reference)



 RESULTS FOR STATE 9.2
 =====================

 Coefficient of reference function:   C(0) = 0.95717009 (fixed)   0.95717293 (relaxed)   0.95717009 (rotated)

 Energy contributions of configuration classes

 CLASS          SQ.NORM        ECORR1        ECORR2
 +++++++++++++++++++++++++++++++++++++++++++++++++++
 Internals    0.00181724   -0.00419385   -0.68828238
 Singles      0.01862310   -0.06442629   -0.07292030
 Pairs        0.07105469    0.00000000   -0.05300079
 Total        1.09149503   -0.06862013   -0.81420347
 +++++++++++++++++++++++++++++++++++++++++++++++++++


 Reference energy                    -213.35050373
 Nuclear energy                         0.00000000
 Kinetic energy                        69.23549024
 One electron energy                 -367.97845705
 Two electron energy                  153.81374985
 Virial quotient                       -3.09327928
 Correlation energy                    -0.81420347
 !MRCI STATE 9.2 Energy              -214.164707203540

 Properties without orbital relaxation:

 !MRCI STATE 9.2 Dipole moment          0.00000000     0.00000000     0.00000000
 Dipole moment /Debye                   0.00000000     0.00000000     0.00000000

 Cluster corrected energies          -214.23920277 (Davidson, fixed reference)
 Cluster corrected energies          -214.23919751 (Davidson, relaxed reference)
 Cluster corrected energies          -214.23920277 (Davidson, rotated reference)

 Cluster corrected energies          -214.23698495 (Pople, fixed reference)
 Cluster corrected energies          -214.23697945 (Pople, relaxed reference)
 Cluster corrected energies          -214.23698495 (Pople, rotated reference)



 RESULTS FOR STATE 10.2
 ======================

 Coefficient of reference function:   C(0) = 0.95717010 (fixed)   0.95717293 (relaxed)   0.95717010 (rotated)

 Energy contributions of configuration classes

 CLASS          SQ.NORM        ECORR1        ECORR2
 +++++++++++++++++++++++++++++++++++++++++++++++++++
 Internals    0.00181724   -0.00419385   -0.00519789
 Singles      0.01862305   -0.06442622   -0.07292027
 Pairs        0.07105471   -0.74558339   -0.73608532
 Total        1.09149501   -0.81420346   -0.81420347
 +++++++++++++++++++++++++++++++++++++++++++++++++++


 Reference energy                    -213.35050373
 Nuclear energy                         0.00000000
 Kinetic energy                        69.23548948
 One electron energy                 -367.97845563
 Two electron energy                  153.81374843
 Virial quotient                       -3.09327931
 Correlation energy                    -0.81420347
 !MRCI STATE 10.2 Energy             -214.164707203250

 Properties without orbital relaxation:

 !MRCI STATE 10.2 Dipole moment         0.00000000     0.00000000     0.00000000
 Dipole moment /Debye                   0.00000000     0.00000000     0.00000000

 Cluster corrected energies          -214.23920276 (Davidson, fixed reference)
 Cluster corrected energies          -214.23919749 (Davidson, relaxed reference)
 Cluster corrected energies          -214.23920276 (Davidson, rotated reference)

 Cluster corrected energies          -214.23698494 (Pople, fixed reference)
 Cluster corrected energies          -214.23697944 (Pople, relaxed reference)
 Cluster corrected energies          -214.23698494 (Pople, rotated reference)



 **********************************************************************************************************************************
 DATASETS  * FILE   NREC   LENGTH (MB)   RECORD NAMES
              1      21       94.20       500      610      700      900      950      970     1000      129      960     1100   
                                          VAR    BASINP    GEOM    SYMINP    ZMAT    AOBASIS   BASIS     P2S    ABASIS      S 
                                         1400     1410     1420     1200     1210     1080     1700     1600     1650     1380   
                                           T        V       ECP      H0       H01     AOSYM    OPER      SMH    MOLCAS    JKOP   
                                         1700(1)
                                         OPER   

              2       5     1992.70       700     1000      520     2140     5302   
                                         GEOM     BASIS   MCVARS    MCSCF    MRCI   

 PROGRAMS   *        TOTAL        CI     MULTI       INT
 CPU TIMES  *      2155.29   2136.81      8.08     10.00
 REAL TIME  *      2278.16 SEC
 DISK USED  *         2.04 GB (local),       34.00 GB (total)
 SF USED    *        18.90 GB
 GA USED    *         0.00 MB       (max)       0.00 MB       (current)
 **********************************************************************************************************************************
 SETTING HLSDIAG(1)     =      -214.48662041  AU                              
 SETTING HLSDIAG(2)     =      -214.24323849  AU                              
 SETTING HLSDIAG(3)     =      -214.24323848  AU                              
 SETTING HLSDIAG(4)     =      -214.24323840  AU                              
 SETTING HLSDIAG(5)     =      -214.24323841  AU                              
 SETTING HLSDIAG(6)     =      -214.24323838  AU                              
 SETTING HLSDIAG(7)     =      -214.24038809  AU                              
 SETTING HLSDIAG(8)     =      -214.23920277  AU                              
 SETTING HLSDIAG(9)     =      -214.23920277  AU                              
 SETTING HLSDIAG(10)    =      -214.23920276  AU                              


 PROGRAM * CI (Multireference internally contracted CI)     Authors: H.-J. Werner, P.J. Knowles, 1987


 Convergence thresholds:  THRVAR = 1.00D-08  THRDEN = 1.00D-06

 Number of optimized states: 8  Roots:    1   2   3   4   5   6   7   8
 Number of reference states: 8  Roots:    1   2   3   4   5   6   7   8

 Reference symmetry:                   2   Doublet 
 Number of electrons:                 23
 Maximum number of shells:             5
 Maximum number of spin couplings:    42

 Reference space:       50 conf       70 CSFs
 N elec internal:     7880 conf    26950 CSFs
 N-1 el internal:     5471 conf    28036 CSFs
 N-2 el internal:     2966 conf    21832 CSFs

 Number of electrons in valence space:                     23
 Maximum number of open shell orbitals in reference space:  3
 Maximum number of open shell orbitals in internal spaces:  9


 Number of closed-shell orbitals:  10 (   7   3 )
 Number of active  orbitals:        6 (   0   6 )
 Number of external orbitals:     265 ( 128 137 )

 Molecular orbitals read from record     2140.2  Type=MCSCF/NATURAL (state averaged)

 Coulomb and exchange operators available. No transformation done.


 Number of p-space configurations:  35

 Reference wavefunction optimized for reference space (refopt=1)

 State     Reference Energy 
     1      -213.53286016
     2      -213.53286016
     3      -213.53286016
     4      -213.53286016
     5      -213.53286016
     6      -213.49570767
     7      -213.49570767
     8      -213.49570767

 Number of blocks in overlap matrix:   886   Smallest eigenvalue:  0.61D-03
 Number of N-2 electron functions:    1332
 Number of N-1 electron functions:   28036

 Number of internal configurations:                14896
 Number of singly external configurations:       3728792
 Number of doubly external configurations:      23394148
 Total number of contracted configurations:     27137836
 Total number of uncontracted configurations:  386701194

 Diagonal Coupling coefficients finished.               Storage:   7754009 words, CPU-Time:      4.61 seconds.
 Energy denominators for pairs finished in 1 passes.    Storage:   3509159 words, CPU-time:      4.44 seconds.

  ITER. STATE  ROOT     SQ.NORM     CORR.ENERGY   TOTAL ENERGY   ENERGY CHANGE       DEN1      VAR(S)    VAR(P)      TIME
    1     1     1     1.00000000     0.00000000  -213.53286016     0.00000000    -1.01648572  0.51D-01  0.13D+00    13.19
    1     2     2     1.00000000     0.00000000  -213.53286016     0.00000000    -1.01699103  0.51D-01  0.13D+00    13.19
    1     3     3     1.00000000     0.00000000  -213.53286016    -0.00000000    -1.01648416  0.51D-01  0.13D+00    13.19
    1     4     4     1.00000000     0.00000000  -213.53286016    -0.00000000    -1.01640593  0.51D-01  0.13D+00    13.19
    1     5     5     1.00000000     0.00000000  -213.53286016     0.00000000    -1.01705364  0.51D-01  0.13D+00    13.19
    1     6     6     1.00000000     0.00000000  -213.49570767    -0.00000000    -1.01567813  0.39D-01  0.14D+00    13.19
    1     7     7     1.00000000     0.00000000  -213.49570767     0.00000000    -1.01600391  0.39D-01  0.14D+00    13.19
    1     8     8     1.00000000     0.00000000  -213.49570767    -0.00000000    -1.01594118  0.39D-01  0.14D+00    13.19
    2     1     1     1.11096823    -0.80477727  -214.33763743    -0.80477727    -0.02839150  0.40D-02  0.24D-02   379.59
    2     2     2     1.11100029    -0.80473827  -214.33759843    -0.80473827    -0.02843506  0.40D-02  0.24D-02   379.59
    2     3     3     1.11103650    -0.80465854  -214.33751870    -0.80465854    -0.02852906  0.41D-02  0.24D-02   379.59
    2     4     4     1.11114149    -0.80459303  -214.33745319    -0.80459303    -0.02858796  0.40D-02  0.25D-02   379.59
    2     5     5     1.11131340    -0.80437549  -214.33723565    -0.80437549    -0.02883812  0.42D-02  0.24D-02   379.59
    2     6     6     1.10930015    -0.80809660  -214.30380428    -0.80809660    -0.02897173  0.39D-02  0.28D-02   379.59
    2     7     7     1.10943469    -0.80799808  -214.30370576    -0.80799808    -0.02907360  0.39D-02  0.29D-02   379.59
    2     8     8     1.10949046    -0.80799743  -214.30370511    -0.80799743    -0.02906255  0.39D-02  0.29D-02   379.59
    3     1     1     1.09468817    -0.83134046  -214.36420062    -0.02656319    -0.00039358  0.60D-04  0.40D-04   746.70
    3     2     2     1.09468653    -0.83133962  -214.36419979    -0.02660135    -0.00039454  0.60D-04  0.40D-04   746.70
    3     3     3     1.09468788    -0.83133792  -214.36419808    -0.02667938    -0.00039637  0.60D-04  0.41D-04   746.70
    3     4     4     1.09468262    -0.83133740  -214.36419756    -0.02674437    -0.00039670  0.61D-04  0.40D-04   746.70
    3     5     5     1.09469402    -0.83133317  -214.36419333    -0.02695768    -0.00040147  0.62D-04  0.41D-04   746.70
    3     6     6     1.09376402    -0.83511024  -214.33081792    -0.02701364    -0.00040315  0.48D-04  0.51D-04   746.70
    3     7     7     1.09376721    -0.83510839  -214.33081607    -0.02711031    -0.00040493  0.47D-04  0.52D-04   746.70
    3     8     8     1.09377257    -0.83510752  -214.33081519    -0.02711008    -0.00040549  0.48D-04  0.53D-04   746.70
    4     1     1     1.09388711    -0.83174554  -214.36460571    -0.00040508    -0.00001289  0.24D-05  0.13D-05  1114.28
    4     2     2     1.09388860    -0.83174551  -214.36460567    -0.00040589    -0.00001292  0.24D-05  0.13D-05  1114.28
    4     3     3     1.09388739    -0.83174547  -214.36460564    -0.00040755    -0.00001294  0.24D-05  0.13D-05  1114.28
    4     4     4     1.09388735    -0.83174545  -214.36460561    -0.00040805    -0.00001295  0.24D-05  0.13D-05  1114.28
    4     5     5     1.09388738    -0.83174537  -214.36460553    -0.00041220    -0.00001302  0.24D-05  0.13D-05  1114.28
    4     6     6     1.09302084    -0.83552099  -214.33122866    -0.00041075    -0.00001245  0.22D-05  0.14D-05  1114.28
    4     7     7     1.09302005    -0.83552095  -214.33122862    -0.00041256    -0.00001249  0.22D-05  0.14D-05  1114.28
    4     8     8     1.09302028    -0.83552093  -214.33122860    -0.00041341    -0.00001251  0.22D-05  0.14D-05  1114.28
    5     1     1     1.09383765    -0.83175934  -214.36461951    -0.00001380    -0.00000043  0.49D-07  0.51D-07  1482.27
    5     2     2     1.09383741    -0.83175934  -214.36461951    -0.00001383    -0.00000044  0.51D-07  0.51D-07  1482.27
    5     3     3     1.09383709    -0.83175934  -214.36461950    -0.00001387    -0.00000043  0.50D-07  0.51D-07  1482.27
    5     4     4     1.09383740    -0.83175934  -214.36461950    -0.00001388    -0.00000044  0.51D-07  0.51D-07  1482.27
    5     5     5     1.09383751    -0.83175933  -214.36461950    -0.00001396    -0.00000044  0.51D-07  0.52D-07  1482.27
    5     6     6     1.09300698    -0.83553443  -214.33124210    -0.00001344    -0.00000040  0.44D-07  0.52D-07  1482.27
    5     7     7     1.09300748    -0.83553443  -214.33124210    -0.00001348    -0.00000040  0.44D-07  0.52D-07  1482.27
    5     8     8     1.09300714    -0.83553443  -214.33124210    -0.00001350    -0.00000040  0.45D-07  0.52D-07  1482.27
    6     1     1     1.09383118    -0.83175979  -214.36461996    -0.00000045    -0.00000001  0.13D-08  0.16D-08  1851.95
    6     2     2     1.09383118    -0.83175979  -214.36461995    -0.00000044    -0.00000001  0.13D-08  0.16D-08  1851.95
[...]
   53    5.2  0.5 -0.5   0.000%   0.000%   0.000%   0.005%   0.000%   0.019%   0.000%   0.000%   0.000%   0.011%
   54    6.2  0.5 -0.5   0.000%   0.140%   0.044%   0.000%   0.019%   0.000%   0.000%   0.002%   0.000%   0.000%
   55    7.2  0.5 -0.5   0.140%   0.000%   0.000%   0.000%   0.000%   0.062%   0.002%   0.000%   0.000%   0.012%
   56    8.2  0.5 -0.5   0.140%   0.000%   0.000%   0.050%   0.000%   0.013%   0.002%   0.000%   0.000%   0.013%

   Nr   State  S   Sz      31       32       33       34       35       36       37       38       39       40

    1    1.2  1.5  1.5   0.000%   0.000%   0.000%   0.000%   0.000%   0.000%   0.000%   0.000%   0.000%   0.000%
    2    2.2  1.5  1.5   0.169%   6.848%   0.000%   1.009%   0.175%   6.280%   0.027%   1.976%   0.080%   0.680%
    3    3.2  1.5  1.5   0.020%   0.820%   0.000%   1.952%   0.000%   0.010%   0.453%  33.377%   0.004%   0.035%
    4    4.2  1.5  1.5   0.190%   7.664%   0.000%   0.282%   0.163%   5.840%   0.002%   0.178%   0.083%   0.709%
    5    5.2  1.5  1.5   7.666%   0.190%  21.008%   0.000%   7.062%   0.197%   2.410%   0.033%   0.710%   0.083%
    6    6.2  1.5  1.5   7.665%   0.190%   8.944%   0.000%  21.093%   0.588%   0.083%   0.001%   0.710%   0.083%
    7    7.2  1.5  1.5   0.001%   0.021%   0.000%   0.000%   0.000%   0.000%   0.000%   0.000%   0.039%   0.333%
    8    8.2  1.5  1.5   0.000%   0.007%   0.000%   0.675%   0.003%   0.113%   0.120%   8.864%   0.021%   0.182%
    9    9.2  1.5  1.5   4.234%   0.105%   9.377%   0.000%   3.580%   0.100%   0.381%   0.005%   8.113%   0.949%
   10   10.2  1.5  1.5   4.234%   0.105%  12.418%   0.000%   0.044%   0.001%   0.967%   0.013%   8.113%   0.949%
   11    1.2  1.5  0.5   0.078%   0.002%   0.000%   0.000%   0.000%   0.000%   0.000%   0.000%   0.065%   0.008%
   12    2.2  1.5  0.5   0.821%   0.020%   8.786%   0.000%   4.956%   0.138%  21.615%   0.293%   0.035%   0.004%
   13    3.2  1.5  0.5   6.850%   0.170%   2.267%   0.000%   3.331%   0.093%   3.725%   0.051%   0.680%   0.080%
   14    4.2  1.5  0.5   0.004%   0.000%  29.855%   0.000%   0.450%   0.013%   8.358%   0.113%   0.005%   0.001%
   15    5.2  1.5  0.5   0.000%   0.004%   0.000%   0.243%   0.318%  11.400%   0.035%   2.550%   0.001%   0.005%
   16    6.2  1.5  0.5   0.000%   0.004%   0.000%   1.080%   0.361%  12.960%   0.002%   0.144%   0.001%   0.005%
   17    7.2  1.5  0.5  37.833%   0.936%   0.000%   0.000%   0.000%   0.000%   0.000%   0.000%  44.546%   5.213%
   18    8.2  1.5  0.5   1.409%   0.035%   0.639%   0.000%  13.248%   0.369%   0.403%   0.005%   2.704%   0.316%
   19    9.2  1.5  0.5   0.134%   5.412%   0.000%   0.097%   0.065%   2.336%   0.114%   8.387%   1.463%  12.498%
   20   10.2  1.5  0.5   0.145%   5.872%   0.000%   1.235%   0.124%   4.458%   0.069%   5.113%   1.084%   9.258%
   21    1.2  1.5 -0.5   0.002%   0.078%   0.000%   0.000%   0.000%   0.000%   0.000%   0.000%   0.008%   0.065%
   22    2.2  1.5 -0.5   0.020%   0.821%   0.000%   8.786%   0.138%   4.956%   0.293%  21.615%   0.004%   0.035%
   23    3.2  1.5 -0.5   0.170%   6.850%   0.000%   2.267%   0.093%   3.331%   0.051%   3.725%   0.080%   0.680%
   24    4.2  1.5 -0.5   0.000%   0.004%   0.000%  29.855%   0.013%   0.450%   0.113%   8.358%   0.001%   0.005%
   25    5.2  1.5 -0.5   0.004%   0.000%   0.243%   0.000%  11.400%   0.318%   2.550%   0.035%   0.005%   0.001%
   26    6.2  1.5 -0.5   0.004%   0.000%   1.080%   0.000%  12.960%   0.361%   0.144%   0.002%   0.005%   0.001%
   27    7.2  1.5 -0.5   0.936%  37.833%   0.000%   0.000%   0.000%   0.000%   0.000%   0.000%   5.213%  44.546%
   28    8.2  1.5 -0.5   0.035%   1.409%   0.000%   0.639%   0.369%  13.248%   0.005%   0.403%   0.316%   2.704%
   29    9.2  1.5 -0.5   5.412%   0.134%   0.097%   0.000%   2.336%   0.065%   8.387%   0.114%  12.498%   1.463%
   30   10.2  1.5 -0.5   5.872%   0.145%   1.235%   0.000%   4.458%   0.124%   5.113%   0.069%   9.258%   1.084%
   31    1.2  1.5 -1.5   0.000%   0.000%   0.000%   0.000%   0.000%   0.000%   0.000%   0.000%   0.000%   0.000%
   32    2.2  1.5 -1.5   6.848%   0.169%   1.009%   0.000%   6.280%   0.175%   1.976%   0.027%   0.680%   0.080%
   33    3.2  1.5 -1.5   0.820%   0.020%   1.952%   0.000%   0.010%   0.000%  33.377%   0.453%   0.035%   0.004%
   34    4.2  1.5 -1.5   7.664%   0.190%   0.282%   0.000%   5.840%   0.163%   0.178%   0.002%   0.709%   0.083%
   35    5.2  1.5 -1.5   0.190%   7.666%   0.000%  21.008%   0.197%   7.062%   0.033%   2.410%   0.083%   0.710%
   36    6.2  1.5 -1.5   0.190%   7.665%   0.000%   8.944%   0.588%  21.093%   0.001%   0.083%   0.083%   0.710%
   37    7.2  1.5 -1.5   0.021%   0.001%   0.000%   0.000%   0.000%   0.000%   0.000%   0.000%   0.333%   0.039%
   38    8.2  1.5 -1.5   0.007%   0.000%   0.675%   0.000%   0.113%   0.003%   8.864%   0.120%   0.182%   0.021%
   39    9.2  1.5 -1.5   0.105%   4.234%   0.000%   9.377%   0.100%   3.580%   0.005%   0.381%   0.949%   8.113%
   40   10.2  1.5 -1.5   0.105%   4.234%   0.000%  12.418%   0.001%   0.044%   0.013%   0.967%   0.949%   8.113%
   41    1.2  0.5  0.5   0.001%   0.034%   0.000%   0.009%   0.001%   0.032%   0.000%   0.037%   0.002%   0.016%
   42    2.2  0.5  0.5   0.000%   0.000%   0.045%   0.000%   0.005%   0.000%   0.028%   0.000%   0.000%   0.000%
   43    3.2  0.5  0.5   0.034%   0.001%   0.009%   0.000%   0.063%   0.002%   0.004%   0.000%   0.012%   0.001%
   44    4.2  0.5  0.5   0.012%   0.000%   0.068%   0.000%   0.010%   0.000%   0.000%   0.000%   0.007%   0.001%
   45    5.2  0.5  0.5   0.001%   0.035%   0.000%   0.001%   0.000%   0.017%   0.001%   0.060%   0.001%   0.013%
   46    6.2  0.5  0.5   0.017%   0.000%   0.000%   0.000%   0.000%   0.000%   0.000%   0.000%   0.059%   0.007%
   47    7.2  0.5  0.5   0.000%   0.005%   0.000%   0.000%   0.000%   0.000%   0.000%   0.000%   0.001%   0.011%
   48    8.2  0.5  0.5   0.000%   0.004%   0.000%   0.000%   0.000%   0.000%   0.000%   0.000%   0.002%   0.019%
   49    1.2  0.5 -0.5   0.034%   0.001%   0.009%   0.000%   0.032%   0.001%   0.037%   0.000%   0.016%   0.002%
   50    2.2  0.5 -0.5   0.000%   0.000%   0.000%   0.045%   0.000%   0.005%   0.000%   0.028%   0.000%   0.000%
   51    3.2  0.5 -0.5   0.001%   0.034%   0.000%   0.009%   0.002%   0.063%   0.000%   0.004%   0.001%   0.012%
   52    4.2  0.5 -0.5   0.000%   0.012%   0.000%   0.068%   0.000%   0.010%   0.000%   0.000%   0.001%   0.007%
   53    5.2  0.5 -0.5   0.035%   0.001%   0.001%   0.000%   0.017%   0.000%   0.060%   0.001%   0.013%   0.001%
   54    6.2  0.5 -0.5   0.000%   0.017%   0.000%   0.000%   0.000%   0.000%   0.000%   0.000%   0.007%   0.059%
   55    7.2  0.5 -0.5   0.005%   0.000%   0.000%   0.000%   0.000%   0.000%   0.000%   0.000%   0.011%   0.001%
   56    8.2  0.5 -0.5   0.004%   0.000%   0.000%   0.000%   0.000%   0.000%   0.000%   0.000%   0.019%   0.002%

   Nr   State  S   Sz      41       42       43       44       45       46       47       48       49       50

    1    1.2  1.5  1.5   0.072%   0.000%   0.000%   0.000%   0.000%   0.000%   0.000%   0.000%   0.000%   0.000%
    2    2.2  1.5  1.5   0.039%   0.000%   0.000%  11.462%   0.282%   0.000%  36.868%   0.206%   0.191%   0.296%
    3    3.2  1.5  1.5   0.760%   0.000%   0.000%   0.111%  23.210%   0.008%   2.478%   0.014%   1.912%   2.962%
    4    4.2  1.5  1.5   0.006%   0.000%   0.000%   1.174%   0.457%   0.000%  49.520%   0.277%   0.000%   0.000%
    5    5.2  1.5  1.5   0.000%   0.006%   6.810%   0.000%   0.001%   3.983%   0.002%   0.391%  14.036%   9.061%
    6    6.2  1.5  1.5   0.000%   0.006%   3.518%   0.000%   0.002%   6.587%   0.005%   0.853%  14.171%   9.149%
    7    7.2  1.5  1.5  49.760%   0.000%   0.000%   0.000%   0.000%   0.000%   0.000%   0.000%   0.000%   0.000%
    8    8.2  1.5  1.5  27.186%   0.000%   0.000%   0.000%   0.000%   0.000%   0.000%   0.000%   0.000%   0.000%
    9    9.2  1.5  1.5   0.000%   0.068%   0.000%   0.000%   0.000%   0.000%   0.000%   0.000%   0.000%   0.000%
   10   10.2  1.5  1.5   0.000%   0.068%   0.000%   0.000%   0.000%   0.000%   0.000%   0.000%   0.000%   0.000%
   11    1.2  1.5  0.5   0.000%   0.001%   0.000%   0.000%   0.000%   0.000%   0.000%   0.000%   0.000%   0.000%
   12    2.2  1.5  0.5   0.000%   0.760%   7.253%   0.000%   0.005%  15.078%   0.001%   0.175%   4.973%   3.210%
   13    3.2  1.5  0.5   0.000%   0.039%  38.470%   0.000%   0.002%   4.585%   0.030%   5.315%   0.550%   0.355%
   14    4.2  1.5  0.5   0.000%   0.793%   0.002%   0.000%   0.000%   0.160%   0.000%   0.002%  17.263%  11.145%
   15    5.2  1.5  0.5   0.792%   0.000%   0.000%  21.153%  18.115%   0.006%   0.980%   0.005%   2.140%   3.315%
   16    6.2  1.5  0.5   0.792%   0.000%   0.000%  10.047%  27.510%   0.009%   2.863%   0.016%   2.067%   3.202%
   17    7.2  1.5  0.5   0.000%   0.372%   0.000%   0.000%   0.000%   0.000%   0.000%   0.000%   0.000%   0.000%
   18    8.2  1.5  0.5   0.000%   0.023%   0.000%   0.000%   0.000%   0.000%   0.000%   0.000%   0.000%   0.000%
   19    9.2  1.5  0.5   7.344%   0.000%   0.000%   0.000%   0.000%   0.000%   0.000%   0.000%   0.000%   0.000%
   20   10.2  1.5  0.5  10.962%   0.000%   0.000%   0.000%   0.000%   0.000%   0.000%   0.000%   0.000%   0.000%
   21    1.2  1.5 -0.5   0.001%   0.000%   0.000%   0.000%   0.000%   0.000%   0.000%   0.000%   0.000%   0.000%
   22    2.2  1.5 -0.5   0.760%   0.000%   0.000%   7.253%  15.078%   0.005%   0.175%   0.001%   3.210%   4.973%
   23    3.2  1.5 -0.5   0.039%   0.000%   0.000%  38.470%   4.585%   0.002%   5.315%   0.030%   0.355%   0.550%
   24    4.2  1.5 -0.5   0.793%   0.000%   0.000%   0.002%   0.160%   0.000%   0.002%   0.000%  11.145%  17.263%
   25    5.2  1.5 -0.5   0.000%   0.792%  21.153%   0.000%   0.006%  18.115%   0.005%   0.980%   3.315%   2.140%
   26    6.2  1.5 -0.5   0.000%   0.792%  10.047%   0.000%   0.009%  27.510%   0.016%   2.863%   3.202%   2.067%
   27    7.2  1.5 -0.5   0.372%   0.000%   0.000%   0.000%   0.000%   0.000%   0.000%   0.000%   0.000%   0.000%
   28    8.2  1.5 -0.5   0.023%   0.000%   0.000%   0.000%   0.000%   0.000%   0.000%   0.000%   0.000%   0.000%
   29    9.2  1.5 -0.5   0.000%   7.344%   0.000%   0.000%   0.000%   0.000%   0.000%   0.000%   0.000%   0.000%
   30   10.2  1.5 -0.5   0.000%  10.962%   0.000%   0.000%   0.000%   0.000%   0.000%   0.000%   0.000%   0.000%
   31    1.2  1.5 -1.5   0.000%   0.072%   0.000%   0.000%   0.000%   0.000%   0.000%   0.000%   0.000%   0.000%
   32    2.2  1.5 -1.5   0.000%   0.039%  11.462%   0.000%   0.000%   0.282%   0.206%  36.868%   0.296%   0.191%
   33    3.2  1.5 -1.5   0.000%   0.760%   0.111%   0.000%   0.008%  23.210%   0.014%   2.478%   2.962%   1.912%
   34    4.2  1.5 -1.5   0.000%   0.006%   1.174%   0.000%   0.000%   0.457%   0.277%  49.520%   0.000%   0.000%
   35    5.2  1.5 -1.5   0.006%   0.000%   0.000%   6.810%   3.983%   0.001%   0.391%   0.002%   9.061%  14.036%
   36    6.2  1.5 -1.5   0.006%   0.000%   0.000%   3.518%   6.587%   0.002%   0.853%   0.005%   9.149%  14.171%
   37    7.2  1.5 -1.5   0.000%  49.760%   0.000%   0.000%   0.000%   0.000%   0.000%   0.000%   0.000%   0.000%
   38    8.2  1.5 -1.5   0.000%  27.186%   0.000%   0.000%   0.000%   0.000%   0.000%   0.000%   0.000%   0.000%
   39    9.2  1.5 -1.5   0.068%   0.000%   0.000%   0.000%   0.000%   0.000%   0.000%   0.000%   0.000%   0.000%
   40   10.2  1.5 -1.5   0.068%   0.000%   0.000%   0.000%   0.000%   0.000%   0.000%   0.000%   0.000%   0.000%
   41    1.2  0.5  0.5   0.004%   0.000%   0.000%   0.000%   0.000%   0.000%   0.000%   0.000%   0.000%   0.000%
   42    2.2  0.5  0.5   0.000%   0.021%   0.000%   0.000%   0.000%   0.000%   0.000%   0.000%   0.000%   0.000%
   43    3.2  0.5  0.5   0.000%   0.008%   0.000%   0.000%   0.000%   0.000%   0.000%   0.000%   0.000%   0.000%
   44    4.2  0.5  0.5   0.000%   0.013%   0.000%   0.000%   0.000%   0.000%   0.000%   0.000%   0.000%   0.000%
   45    5.2  0.5  0.5   0.007%   0.000%   0.000%   0.000%   0.000%   0.000%   0.000%   0.000%   0.000%   0.000%
   46    6.2  0.5  0.5   0.000%   0.000%   0.000%   0.000%   0.000%   0.000%   0.000%   0.000%   0.000%   0.000%
   47    7.2  0.5  0.5   0.054%   0.000%   0.000%   0.000%   0.000%   0.000%   0.000%   0.000%   0.000%   0.000%
   48    8.2  0.5  0.5   0.045%   0.000%   0.000%   0.000%   0.000%   0.000%   0.000%   0.000%   0.000%   0.000%
   49    1.2  0.5 -0.5   0.000%   0.004%   0.000%   0.000%   0.000%   0.000%   0.000%   0.000%   0.000%   0.000%
   50    2.2  0.5 -0.5   0.021%   0.000%   0.000%   0.000%   0.000%   0.000%   0.000%   0.000%   0.000%   0.000%
   51    3.2  0.5 -0.5   0.008%   0.000%   0.000%   0.000%   0.000%   0.000%   0.000%   0.000%   0.000%   0.000%
   52    4.2  0.5 -0.5   0.013%   0.000%   0.000%   0.000%   0.000%   0.000%   0.000%   0.000%   0.000%   0.000%
   53    5.2  0.5 -0.5   0.000%   0.007%   0.000%   0.000%   0.000%   0.000%   0.000%   0.000%   0.000%   0.000%
   54    6.2  0.5 -0.5   0.000%   0.000%   0.000%   0.000%   0.000%   0.000%   0.000%   0.000%   0.000%   0.000%
   55    7.2  0.5 -0.5   0.000%   0.054%   0.000%   0.000%   0.000%   0.000%   0.000%   0.000%   0.000%   0.000%
   56    8.2  0.5 -0.5   0.000%   0.045%   0.000%   0.000%   0.000%   0.000%   0.000%   0.000%   0.000%   0.000%

   Nr   State  S   Sz      51       52       53       54       55       56

    1    1.2  1.5  1.5   0.000%   0.000%   0.000%   0.000%   0.000%   0.000%
    2    2.2  1.5  1.5   0.072%   0.859%   0.648%   0.004%   0.015%   1.444%
    3    3.2  1.5  1.5   0.653%   7.846%   2.279%   0.015%   0.008%   0.704%
    4    4.2  1.5  1.5   0.000%   0.001%   0.094%   0.001%   0.021%   1.962%
    5    5.2  1.5  1.5   1.076%   0.090%   0.038%   5.740%   2.898%   0.031%
    6    6.2  1.5  1.5   1.265%   0.105%   0.015%   2.175%   6.247%   0.067%
    7    7.2  1.5  1.5   0.000%   0.000%   0.000%   0.000%   0.000%   0.000%
    8    8.2  1.5  1.5   1.755%  21.074%   6.861%   0.046%   0.005%   0.454%
    9    9.2  1.5  1.5   8.714%   0.726%   0.154%  23.060%   8.769%   0.094%
   10   10.2  1.5  1.5   8.257%   0.688%   0.212%  31.691%   0.662%   0.007%
   11    1.2  1.5  0.5   0.000%   0.000%   0.000%   0.000%   0.000%   0.000%
   12    2.2  1.5  0.5   9.428%   0.785%   0.006%   0.933%   0.348%   0.004%
   13    3.2  1.5  0.5   0.906%   0.075%   0.003%   0.399%   1.643%   0.018%
   14    4.2  1.5  0.5   0.517%   0.043%   0.075%  11.269%   0.561%   0.006%
   15    5.2  1.5  0.5   0.017%   0.202%   0.026%   0.000%   0.047%   4.384%
   16    6.2  1.5  0.5   0.024%   0.285%   0.524%   0.004%   0.041%   3.800%
   17    7.2  1.5  0.5   0.000%   0.000%   0.000%   0.000%   0.000%   0.000%
   18    8.2  1.5  0.5   0.018%   0.002%   0.014%   2.054%  42.745%   0.459%
   19    9.2  1.5  0.5   1.272%  15.270%   2.408%   0.016%   0.159%  14.843%
   20   10.2  1.5  0.5   1.361%  16.349%   8.910%   0.060%   0.077%   7.210%
   21    1.2  1.5 -0.5   0.000%   0.000%   0.000%   0.000%   0.000%   0.000%
   22    2.2  1.5 -0.5   0.785%   9.428%   0.933%   0.006%   0.004%   0.348%
   23    3.2  1.5 -0.5   0.075%   0.906%   0.399%   0.003%   0.018%   1.643%
   24    4.2  1.5 -0.5   0.043%   0.517%  11.269%   0.075%   0.006%   0.561%
   25    5.2  1.5 -0.5   0.202%   0.017%   0.000%   0.026%   4.384%   0.047%
   26    6.2  1.5 -0.5   0.285%   0.024%   0.004%   0.524%   3.800%   0.041%
   27    7.2  1.5 -0.5   0.000%   0.000%   0.000%   0.000%   0.000%   0.000%
   28    8.2  1.5 -0.5   0.002%   0.018%   2.054%   0.014%   0.459%  42.745%
   29    9.2  1.5 -0.5  15.270%   1.272%   0.016%   2.408%  14.843%   0.159%
   30   10.2  1.5 -0.5  16.349%   1.361%   0.060%   8.910%   7.210%   0.077%
   31    1.2  1.5 -1.5   0.000%   0.000%   0.000%   0.000%   0.000%   0.000%
   32    2.2  1.5 -1.5   0.859%   0.072%   0.004%   0.648%   1.444%   0.015%
   33    3.2  1.5 -1.5   7.846%   0.653%   0.015%   2.279%   0.704%   0.008%
   34    4.2  1.5 -1.5   0.001%   0.000%   0.001%   0.094%   1.962%   0.021%
   35    5.2  1.5 -1.5   0.090%   1.076%   5.740%   0.038%   0.031%   2.898%
   36    6.2  1.5 -1.5   0.105%   1.265%   2.175%   0.015%   0.067%   6.247%
   37    7.2  1.5 -1.5   0.000%   0.000%   0.000%   0.000%   0.000%   0.000%
   38    8.2  1.5 -1.5  21.074%   1.755%   0.046%   6.861%   0.454%   0.005%
   39    9.2  1.5 -1.5   0.726%   8.714%  23.060%   0.154%   0.094%   8.769%
   40   10.2  1.5 -1.5   0.688%   8.257%  31.691%   0.212%   0.007%   0.662%
   41    1.2  0.5  0.5   0.006%   0.077%   0.042%   0.000%   0.000%   0.034%
   42    2.2  0.5  0.5   0.096%   0.008%   0.000%   0.054%   0.002%   0.000%
   43    3.2  0.5  0.5   0.001%   0.000%   0.000%   0.018%   0.139%   0.001%
   44    4.2  0.5  0.5   0.001%   0.000%   0.001%   0.139%   0.019%   0.000%
   45    5.2  0.5  0.5   0.006%   0.072%   0.011%   0.000%   0.001%   0.070%
   46    6.2  0.5  0.5   0.000%   0.000%   0.000%   0.000%   0.000%   0.000%
   47    7.2  0.5  0.5   0.000%   0.000%   0.000%   0.000%   0.000%   0.000%
   48    8.2  0.5  0.5   0.000%   0.000%   0.000%   0.000%   0.000%   0.000%
   49    1.2  0.5 -0.5   0.077%   0.006%   0.000%   0.042%   0.034%   0.000%
   50    2.2  0.5 -0.5   0.008%   0.096%   0.054%   0.000%   0.000%   0.002%
   51    3.2  0.5 -0.5   0.000%   0.001%   0.018%   0.000%   0.001%   0.139%
   52    4.2  0.5 -0.5   0.000%   0.001%   0.139%   0.001%   0.000%   0.019%
   53    5.2  0.5 -0.5   0.072%   0.006%   0.000%   0.011%   0.070%   0.001%
   54    6.2  0.5 -0.5   0.000%   0.000%   0.000%   0.000%   0.000%   0.000%
   55    7.2  0.5 -0.5   0.000%   0.000%   0.000%   0.000%   0.000%   0.000%
   56    8.2  0.5 -0.5   0.000%   0.000%   0.000%   0.000%   0.000%   0.000%


 Property matrices transformed in SO basis (not sym. adapted)
 ============================================================

 No matrix element <i|DMX|i> larger than 5E-7
 No matrix element <i|DMX|1> larger than 5E-7

 No matrix element <i|DMY|i> larger than 5E-7
 No matrix element <i|DMY|1> larger than 5E-7

 No matrix element <i|DMZ|i> larger than 5E-7
 No matrix element <i|DMZ|1> larger than 5E-7


 **********************************************************************************************************************************
 DATASETS  * FILE   NREC   LENGTH (MB)   RECORD NAMES
              1      21       94.20       500      610      700      900      950      970     1000      129      960     1100   
                                          VAR    BASINP    GEOM    SYMINP    ZMAT    AOBASIS   BASIS     P2S    ABASIS      S 
                                         1400     1410     1420     1200     1210     1080     1700     1600     1650     1380   
                                           T        V       ECP      H0       H01     AOSYM    OPER      SMH    MOLCAS    JKOP   
                                         1700(1)
                                         OPER   

              2       6     3655.78       700     1000      520     2140     5302     5102   
                                         GEOM     BASIS   MCVARS    MCSCF    MRCI     MRCI   

 PROGRAMS   *        TOTAL        CI        CI        CI     MULTI       INT
 CPU TIMES  *     26195.87  22055.71   1984.85   2136.81      8.08     10.00
 REAL TIME  *     27036.12 SEC
 DISK USED  *         3.66 GB (local),       59.99 GB (total)
 SF USED    *        18.90 GB
 GA USED    *         0.00 MB       (max)       0.00 MB       (current)
 **********************************************************************************************************************************

 CI/USERDEF energy=   -214.217320766296

              CI              CI           MULTI
   -214.33124252   -214.16470720   -213.49570767
 **********************************************************************************************************************************
 Molpro calculation terminated with 1 warning(s)
