
 Working directory              : /wrk/irikura/molpro.c4A6O5Cpfr/
 Global scratch directory       : /wrk/irikura/molpro.c4A6O5Cpfr/
 Wavefunction directory         : /home/irikura/wfu/
 Main file repository           : /wrk/irikura/molpro.c4A6O5Cpfr/

 id        : nistki

 Nodes            nprocs
 pn125343.nist.gov   14
 GA implementation: MPI file
 GA implementation (serial work in mppx): MPI file

 Using customized tuning parameters: mindgm=1; mindgv=20; mindgc=4; mindgr=1; noblas=0; minvec=7
 default implementation of scratch files=sf  


 Variables initialized (1042), CPU time= 0.01 sec
 ***,Bi SO-CI
 memory,1500,M;
 
 gprint,orbitals,civector,basis;
 
 symmetry,xyz
 geometry={Bi};
 
 basis=aug-cc-pwCVTZ-DK3
 
 set,dkho=101
 
 {rhf;wf,spin=3,sym=2}
 
 PAR=2                                                                           ! parity even (1) or odd (2)
 NQ=1
 ND=8
 
 {multi
     closed,20,19
     occ,21,25
     wf,charge=0,sym=PAR,spin=3;state,NQ; weight,99
     wf,charge=0,sym=PAR,spin=1;state,ND;
     expec2,lxx,lyy,lzz;
 }
 table, energy, ll
 title, Energies and &lt;L**2&gt; values
 
 core,15,16
 
 {ci;wf,sym=PAR,spin=3;state,NQ; save,5302.2}
 if NQ.LT.2 then
 hlsdiag(1) = energd
 else
 hlsdiag = energd4
 endif
 
 {ci;wf,sym=PAR,spin=1;state,ND; save,5102.2}
 hlsdiag(NQ+1) = energd4
 
 table,hlsdiag
 
 lsint
 {ci;hlsmat,ls,5302.2,5102.2;print,vls=0,hls=0}                                  !compute and diagonalize SO matrix
 Commands initialized (847), CPU time= 0.01 sec, 718 directives.
 Default parameters read. Elapsed time= 0.09 sec

 Checking input...
 Passed
1


                                         ***  PROGRAM SYSTEM MOLPRO  ***
                                       Copyright, TTI GmbH Stuttgart, 2015
                                    Version 2024.1 linked Mon Jun 17 07:53:25 2024


 **********************************************************************************************************************************
 LABEL *   Bi SO-CI                                                                                                                                                      
  (64 PROC) 64 bit mpp version                                                           DATE: 06-Nov-24          TIME: 13:12:48  
 **********************************************************************************************************************************

 SHA1:             0134236b472f03f1f5189f93707d8671e415b05c
 **********************************************************************************************************************************

 Memory per process:      1500 MW
 Total memory per node:  21000 MW

 GA preallocation disabled
 GA check disabled

 Variable memory set to 1500.0 MW


 ZSYMEL=XYZ

 SETTING BASIS          =    AUG-CC-PWCVTZ-DK3
 SETTING DKHO           =       101.00000000                                  


 Recomputing integrals since basis changed


 Using spherical harmonics

 Library entry BI     S augccpwCVTZ-DK3      selected for orbital group  1
 Library entry BI     P augccpwCVTZ-DK3      selected for orbital group  1
 Library entry BI     D augccpwCVTZ-DK3      selected for orbital group  1
 Library entry BI     F augccpwCVTZ-DK3      selected for orbital group  1
 Library entry BI     G augccpwCVTZ-DK3      selected for orbital group  1


 PROGRAM * SEWARD (Integral evaluation for generally contracted gaussian basis sets)     Author: Roland Lindh, 1990

 Geometry written to block  1 of record 700

 Orientation using atomic masses  
 Molecule type: Atom
 User-specified symmetry elements: XYZ
 Symmetry elements: XYZ
 Rotational constants:       0.0000000      0.0000000      0.0000000 GHz  (calculated with average atomic masses)

 Point group  Ci  



 ATOMIC COORDINATES

 NR  ATOM    CHARGE       X              Y              Z

   1  BI     83.00    0.000000000    0.000000000    0.000000000


 BASIS DATA

   Nr Sym  Nuc  Type         Exponents   Contraction coefficients

    1.1 Ag    1  1s   272357300.000000     0.000436   -0.000173    0.000083   -0.000042   -0.000019   -0.000007
                                           0.000000    0.000000    0.000000    0.000000
    2.1 Ag             83965040.000000     0.000290   -0.000115    0.000055   -0.000028   -0.000013   -0.000004
                                           0.000000    0.000000    0.000000    0.000000
    3.1 Ag             28198020.000000     0.001130   -0.000448    0.000216   -0.000109   -0.000050   -0.000017
                                           0.000000    0.000000    0.000000    0.000000
    4.1 Ag             10131260.000000     0.001580   -0.000626    0.000302   -0.000153   -0.000069   -0.000024
                                           0.000000    0.000000    0.000000    0.000000
    5.1 Ag              3838644.000000     0.003300   -0.001311    0.000632   -0.000320   -0.000145   -0.000051
                                           0.000000    0.000000    0.000000    0.000000
    6.1 Ag              1516773.000000     0.005429   -0.002162    0.001043   -0.000528   -0.000240   -0.000084
                                           0.000000    0.000000    0.000000    0.000000
    7.1 Ag               619862.800000     0.009869   -0.003950    0.001908   -0.000966   -0.000438   -0.000154
                                           0.000000    0.000000    0.000000    0.000000
    8.1 Ag               260486.500000     0.016772   -0.006766    0.003272   -0.001657   -0.000753   -0.000264
                                           0.000000    0.000000    0.000000    0.000000
    9.1 Ag               112145.500000     0.029316   -0.011973    0.005801   -0.002939   -0.001335   -0.000469
                                           0.000000    0.000000    0.000000    0.000000
   10.1 Ag                49365.180000     0.050089   -0.020861    0.010143   -0.005144   -0.002338   -0.000821
                                           0.000000    0.000000    0.000000    0.000000
                          22202.990000     0.085607   -0.036756    0.017961   -0.009117   -0.004142   -0.001454
                                           0.000000    0.000000    0.000000    0.000000
                          10206.360000     0.141289   -0.063713    0.031415   -0.015989   -0.007275   -0.002554
                                           0.000000    0.000000    0.000000    0.000000
                           4799.056000     0.217367   -0.106036    0.053003   -0.027049   -0.012300   -0.004320
                                           0.000000    0.000000    0.000000    0.000000
                           2310.438000     0.280857   -0.154812    0.079299   -0.040771   -0.018613   -0.006537
                                           0.000000    0.000000    0.000000    0.000000
                           1139.773000     0.253957   -0.156673    0.082003   -0.042268   -0.019220   -0.006760
                                           0.000000    0.000000    0.000000    0.000000
                            576.231200     0.116709    0.002493   -0.012991    0.008147    0.003731    0.001341
                                           0.000000    0.000000    0.000000    0.000000
                            298.309200     0.015988    0.351396   -0.289303    0.168224    0.079504    0.028053
                                           0.000000    0.000000    0.000000    0.000000
                            157.785100     0.000709    0.511651   -0.544025    0.335972    0.159583    0.056690
                                           0.000000    0.000000    0.000000    0.000000
                             84.930930    -0.000303    0.237981   -0.207540    0.138215    0.070481    0.024919
                                           0.000000    0.000000    0.000000    0.000000
                             46.238460     0.000186    0.025474    0.655767   -0.686863   -0.382845   -0.139077
                                           0.000000    0.000000    0.000000    0.000000
                             25.241360    -0.000169    0.000950    0.632416   -0.881615   -0.506108   -0.187574
                                           0.000000    0.000000    0.000000    0.000000
                             13.657110     0.000112   -0.000364    0.112675    0.369734    0.280585    0.109541
                                           0.000000    0.000000    0.000000    0.000000
                              7.215531    -0.000062    0.000013    0.008174    0.979408    1.081430    0.458438
                                           0.000000    0.000000    0.000000    0.000000
                              3.653953     0.000039   -0.000048   -0.002170    0.245470    0.244212    0.103535
                                           0.000000    0.000000    0.000000    0.000000
                              1.998286    -0.000022    0.000034    0.001267   -0.004492   -0.950085   -0.590614
                                           1.000000    0.000000    0.000000    0.000000
                              0.979550     0.000008   -0.000006   -0.000590    0.004258   -0.579800   -0.497006
                                           0.000000    1.000000    0.000000    0.000000
                              0.343056    -0.000003    0.000003    0.000218   -0.001009   -0.034940    0.419981
                                           0.000000    0.000000    1.000000    0.000000
                              0.167394     0.000002   -0.000002   -0.000125    0.000540    0.006894    0.660212
                                           0.000000    0.000000    0.000000    0.000000
                              0.075635    -0.000000    0.000000    0.000033   -0.000146   -0.001413    0.244215
                                           0.000000    0.000000    0.000000    1.000000
   11.1 Ag    1  1s           0.031492     1.000000
   12.1 Ag    1  3d0      74490.820000     0.000019
                          19553.580000     0.000110
                           6484.034000     0.000579
                           2563.968000     0.002540
                           1153.231000     0.009593
                            568.078500     0.030332
                            297.529300     0.080785
                            162.009200     0.174847
                             90.228210     0.289819
                             50.817540     0.334468
                             28.729570     0.218567
                             16.228990     0.068307
                              9.133912     0.008203
                              5.110499     0.000605
                              2.791862     0.000061
                              1.473380     0.000001
                              0.748915    -0.000001
                              0.354133     0.000001
                              0.140101     0.000000
   13.1 Ag    1  3d2-     74490.820000     0.000019
                          19553.580000     0.000110
                           6484.034000     0.000579
                           2563.968000     0.002540
                           1153.231000     0.009593
                            568.078500     0.030332
                            297.529300     0.080785
                            162.009200     0.174847
                             90.228210     0.289819
                             50.817540     0.334468
                             28.729570     0.218567
                             16.228990     0.068307
                              9.133912     0.008203
                              5.110499     0.000605
                              2.791862     0.000061
                              1.473380     0.000001
                              0.748915    -0.000001
                              0.354133     0.000001
                              0.140101     0.000000
   14.1 Ag    1  3d1+     74490.820000     0.000019
                          19553.580000     0.000110
                           6484.034000     0.000579
                           2563.968000     0.002540
                           1153.231000     0.009593
                            568.078500     0.030332
                            297.529300     0.080785
                            162.009200     0.174847
                             90.228210     0.289819
                             50.817540     0.334468
                             28.729570     0.218567
                             16.228990     0.068307
                              9.133912     0.008203
                              5.110499     0.000605
                              2.791862     0.000061
                              1.473380     0.000001
                              0.748915    -0.000001
                              0.354133     0.000001
                              0.140101     0.000000
   15.1 Ag    1  3d2+     74490.820000     0.000019
                          19553.580000     0.000110
                           6484.034000     0.000579
                           2563.968000     0.002540
                           1153.231000     0.009593
                            568.078500     0.030332
                            297.529300     0.080785
                            162.009200     0.174847
                             90.228210     0.289819
                             50.817540     0.334468
                             28.729570     0.218567
                             16.228990     0.068307
                              9.133912     0.008203
                              5.110499     0.000605
                              2.791862     0.000061
                              1.473380     0.000001
                              0.748915    -0.000001
                              0.354133     0.000001
                              0.140101     0.000000
   16.1 Ag    1  3d1-     74490.820000     0.000019
                          19553.580000     0.000110
                           6484.034000     0.000579
                           2563.968000     0.002540
                           1153.231000     0.009593
                            568.078500     0.030332
                            297.529300     0.080785
                            162.009200     0.174847
                             90.228210     0.289819
                             50.817540     0.334468
                             28.729570     0.218567
                             16.228990     0.068307
                              9.133912     0.008203
                              5.110499     0.000605
                              2.791862     0.000061
                              1.473380     0.000001
                              0.748915    -0.000001
                              0.354133     0.000001
                              0.140101     0.000000
   17.1 Ag    1  3d0      74490.820000     0.000010
                          19553.580000     0.000058
                           6484.034000     0.000309
                           2563.968000     0.001357
                           1153.231000     0.005158
                            568.078500     0.016438
                            297.529300     0.044476
                            162.009200     0.097487
                             90.228210     0.159563
                             50.817540     0.161361
                             28.729570    -0.021988
                             16.228990    -0.305967
                              9.133912    -0.434435
                              5.110499    -0.280225
                              2.791862    -0.075758
                              1.473380    -0.006252
                              0.748915    -0.000302
                              0.354133     0.000059
                              0.140101     0.000004
   18.1 Ag    1  3d2-     74490.820000     0.000010
                          19553.580000     0.000058
                           6484.034000     0.000309
                           2563.968000     0.001357
                           1153.231000     0.005158
                            568.078500     0.016438
                            297.529300     0.044476
                            162.009200     0.097487
                             90.228210     0.159563
                             50.817540     0.161361
                             28.729570    -0.021988
                             16.228990    -0.305967
                              9.133912    -0.434435
                              5.110499    -0.280225
                              2.791862    -0.075758
                              1.473380    -0.006252
                              0.748915    -0.000302
                              0.354133     0.000059
                              0.140101     0.000004
   19.1 Ag    1  3d1+     74490.820000     0.000010
                          19553.580000     0.000058
                           6484.034000     0.000309
                           2563.968000     0.001357
                           1153.231000     0.005158
                            568.078500     0.016438
                            297.529300     0.044476
                            162.009200     0.097487
                             90.228210     0.159563
                             50.817540     0.161361
                             28.729570    -0.021988
                             16.228990    -0.305967
                              9.133912    -0.434435
                              5.110499    -0.280225
                              2.791862    -0.075758
                              1.473380    -0.006252
                              0.748915    -0.000302
                              0.354133     0.000059
                              0.140101     0.000004
   20.1 Ag    1  3d2+     74490.820000     0.000010
                          19553.580000     0.000058
                           6484.034000     0.000309
                           2563.968000     0.001357
                           1153.231000     0.005158
                            568.078500     0.016438
                            297.529300     0.044476
                            162.009200     0.097487
                             90.228210     0.159563
                             50.817540     0.161361
                             28.729570    -0.021988
                             16.228990    -0.305967
                              9.133912    -0.434435
                              5.110499    -0.280225
                              2.791862    -0.075758
                              1.473380    -0.006252
                              0.748915    -0.000302
                              0.354133     0.000059
                              0.140101     0.000004
   21.1 Ag    1  3d1-     74490.820000     0.000010
                          19553.580000     0.000058
                           6484.034000     0.000309
                           2563.968000     0.001357
                           1153.231000     0.005158
                            568.078500     0.016438
                            297.529300     0.044476
                            162.009200     0.097487
                             90.228210     0.159563
                             50.817540     0.161361
                             28.729570    -0.021988
                             16.228990    -0.305967
                              9.133912    -0.434435
                              5.110499    -0.280225
                              2.791862    -0.075758
                              1.473380    -0.006252
                              0.748915    -0.000302
                              0.354133     0.000059
                              0.140101     0.000004
   22.1 Ag    1  3d0      74490.820000     0.000004
                          19553.580000     0.000021
                           6484.034000     0.000110
                           2563.968000     0.000485
                           1153.231000     0.001845
                            568.078500     0.005893
                            297.529300     0.015979
                            162.009200     0.035140
                             90.228210     0.057328
                             50.817540     0.056075
                             28.729570    -0.022341
                             16.228990    -0.140439
                              9.133912    -0.198711
                              5.110499    -0.066943
                              2.791862     0.229262
                              1.473380     0.424523
                              0.748915     0.368921
                              0.354133     0.159302
                              0.140101     0.018502
   23.1 Ag    1  3d2-     74490.820000     0.000004
                          19553.580000     0.000021
                           6484.034000     0.000110
                           2563.968000     0.000485
                           1153.231000     0.001845
                            568.078500     0.005893
                            297.529300     0.015979
                            162.009200     0.035140
                             90.228210     0.057328
                             50.817540     0.056075
                             28.729570    -0.022341
                             16.228990    -0.140439
                              9.133912    -0.198711
                              5.110499    -0.066943
                              2.791862     0.229262
                              1.473380     0.424523
                              0.748915     0.368921
                              0.354133     0.159302
                              0.140101     0.018502
   24.1 Ag    1  3d1+     74490.820000     0.000004
                          19553.580000     0.000021
                           6484.034000     0.000110
                           2563.968000     0.000485
                           1153.231000     0.001845
                            568.078500     0.005893
                            297.529300     0.015979
                            162.009200     0.035140
                             90.228210     0.057328
                             50.817540     0.056075
                             28.729570    -0.022341
                             16.228990    -0.140439
                              9.133912    -0.198711
                              5.110499    -0.066943
                              2.791862     0.229262
                              1.473380     0.424523
                              0.748915     0.368921
                              0.354133     0.159302
                              0.140101     0.018502
   25.1 Ag    1  3d2+     74490.820000     0.000004
                          19553.580000     0.000021
                           6484.034000     0.000110
                           2563.968000     0.000485
                           1153.231000     0.001845
                            568.078500     0.005893
                            297.529300     0.015979
                            162.009200     0.035140
                             90.228210     0.057328
                             50.817540     0.056075
                             28.729570    -0.022341
                             16.228990    -0.140439
                              9.133912    -0.198711
                              5.110499    -0.066943
                              2.791862     0.229262
                              1.473380     0.424523
                              0.748915     0.368921
                              0.354133     0.159302
                              0.140101     0.018502
   26.1 Ag    1  3d1-     74490.820000     0.000004
                          19553.580000     0.000021
                           6484.034000     0.000110
                           2563.968000     0.000485
                           1153.231000     0.001845
                            568.078500     0.005893
                            297.529300     0.015979
                            162.009200     0.035140
                             90.228210     0.057328
                             50.817540     0.056075
                             28.729570    -0.022341
                             16.228990    -0.140439
                              9.133912    -0.198711
                              5.110499    -0.066943
                              2.791862     0.229262
                              1.473380     0.424523
                              0.748915     0.368921
                              0.354133     0.159302
                              0.140101     0.018502
   27.1 Ag    1  3d0      74490.820000     0.000000
                          19553.580000     0.000000
                           6484.034000     0.000000
                           2563.968000     0.000000
                           1153.231000     0.000000
                            568.078500     0.000000
                            297.529300     0.000000
                            162.009200     0.000000
                             90.228210     0.000000
                             50.817540     0.000000
                             28.729570     0.000000
                             16.228990     0.000000
                              9.133912     0.000000
                              5.110499     0.000000
                              2.791862     1.000000
                              1.473380     0.000000
                              0.748915     0.000000
                              0.354133     0.000000
                              0.140101     0.000000
   28.1 Ag    1  3d2-     74490.820000     0.000000
                          19553.580000     0.000000
                           6484.034000     0.000000
                           2563.968000     0.000000
                           1153.231000     0.000000
                            568.078500     0.000000
                            297.529300     0.000000
                            162.009200     0.000000
                             90.228210     0.000000
                             50.817540     0.000000
                             28.729570     0.000000
                             16.228990     0.000000
                              9.133912     0.000000
                              5.110499     0.000000
                              2.791862     1.000000
                              1.473380     0.000000
                              0.748915     0.000000
                              0.354133     0.000000
                              0.140101     0.000000
   29.1 Ag    1  3d1+     74490.820000     0.000000
                          19553.580000     0.000000
                           6484.034000     0.000000
                           2563.968000     0.000000
                           1153.231000     0.000000
                            568.078500     0.000000
                            297.529300     0.000000
                            162.009200     0.000000
                             90.228210     0.000000
                             50.817540     0.000000
                             28.729570     0.000000
                             16.228990     0.000000
                              9.133912     0.000000
                              5.110499     0.000000
                              2.791862     1.000000
                              1.473380     0.000000
                              0.748915     0.000000
                              0.354133     0.000000
                              0.140101     0.000000
   30.1 Ag    1  3d2+     74490.820000     0.000000
                          19553.580000     0.000000
                           6484.034000     0.000000
                           2563.968000     0.000000
                           1153.231000     0.000000
                            568.078500     0.000000
                            297.529300     0.000000
                            162.009200     0.000000
                             90.228210     0.000000
                             50.817540     0.000000
                             28.729570     0.000000
                             16.228990     0.000000
                              9.133912     0.000000
                              5.110499     0.000000
                              2.791862     1.000000
                              1.473380     0.000000
                              0.748915     0.000000
                              0.354133     0.000000
                              0.140101     0.000000
   31.1 Ag    1  3d1-     74490.820000     0.000000
                          19553.580000     0.000000
                           6484.034000     0.000000
                           2563.968000     0.000000
                           1153.231000     0.000000
                            568.078500     0.000000
                            297.529300     0.000000
                            162.009200     0.000000
                             90.228210     0.000000
                             50.817540     0.000000
                             28.729570     0.000000
                             16.228990     0.000000
                              9.133912     0.000000
                              5.110499     0.000000
                              2.791862     1.000000
                              1.473380     0.000000
                              0.748915     0.000000
                              0.354133     0.000000
                              0.140101     0.000000
   32.1 Ag    1  3d0      74490.820000     0.000000
                          19553.580000     0.000000
                           6484.034000     0.000000
                           2563.968000     0.000000
                           1153.231000     0.000000
                            568.078500     0.000000
                            297.529300     0.000000
                            162.009200     0.000000
                             90.228210     0.000000
                             50.817540     0.000000
                             28.729570     0.000000
                             16.228990     0.000000
                              9.133912     0.000000
                              5.110499     0.000000
                              2.791862     0.000000
                              1.473380     0.000000
                              0.748915     1.000000
                              0.354133     0.000000
                              0.140101     0.000000
   33.1 Ag    1  3d2-     74490.820000     0.000000
                          19553.580000     0.000000
                           6484.034000     0.000000
                           2563.968000     0.000000
                           1153.231000     0.000000
                            568.078500     0.000000
                            297.529300     0.000000
                            162.009200     0.000000
                             90.228210     0.000000
                             50.817540     0.000000
                             28.729570     0.000000
                             16.228990     0.000000
                              9.133912     0.000000
                              5.110499     0.000000
                              2.791862     0.000000
                              1.473380     0.000000
                              0.748915     1.000000
                              0.354133     0.000000
                              0.140101     0.000000
   34.1 Ag    1  3d1+     74490.820000     0.000000
                          19553.580000     0.000000
                           6484.034000     0.000000
                           2563.968000     0.000000
                           1153.231000     0.000000
                            568.078500     0.000000
                            297.529300     0.000000
                            162.009200     0.000000
                             90.228210     0.000000
                             50.817540     0.000000
                             28.729570     0.000000
                             16.228990     0.000000
                              9.133912     0.000000
                              5.110499     0.000000
                              2.791862     0.000000
                              1.473380     0.000000
                              0.748915     1.000000
                              0.354133     0.000000
                              0.140101     0.000000
   35.1 Ag    1  3d2+     74490.820000     0.000000
                          19553.580000     0.000000
                           6484.034000     0.000000
                           2563.968000     0.000000
                           1153.231000     0.000000
                            568.078500     0.000000
                            297.529300     0.000000
                            162.009200     0.000000
                             90.228210     0.000000
                             50.817540     0.000000
                             28.729570     0.000000
                             16.228990     0.000000
                              9.133912     0.000000
                              5.110499     0.000000
                              2.791862     0.000000
                              1.473380     0.000000
                              0.748915     1.000000
                              0.354133     0.000000
                              0.140101     0.000000
   36.1 Ag    1  3d1-     74490.820000     0.000000
                          19553.580000     0.000000
                           6484.034000     0.000000
                           2563.968000     0.000000
                           1153.231000     0.000000
                            568.078500     0.000000
                            297.529300     0.000000
                            162.009200     0.000000
                             90.228210     0.000000
                             50.817540     0.000000
                             28.729570     0.000000
                             16.228990     0.000000
                              9.133912     0.000000
                              5.110499     0.000000
                              2.791862     0.000000
                              1.473380     0.000000
                              0.748915     1.000000
                              0.354133     0.000000
                              0.140101     0.000000
   37.1 Ag    1  3d0      74490.820000     0.000000
                          19553.580000     0.000000
                           6484.034000     0.000000
                           2563.968000     0.000000
                           1153.231000     0.000000
                            568.078500     0.000000
                            297.529300     0.000000
                            162.009200     0.000000
                             90.228210     0.000000
                             50.817540     0.000000
                             28.729570     0.000000
                             16.228990     0.000000
                              9.133912     0.000000
                              5.110499     0.000000
                              2.791862     0.000000
                              1.473380     0.000000
                              0.748915     0.000000
                              0.354133     1.000000
                              0.140101     0.000000
   38.1 Ag    1  3d2-     74490.820000     0.000000
                          19553.580000     0.000000
                           6484.034000     0.000000
                           2563.968000     0.000000
                           1153.231000     0.000000
                            568.078500     0.000000
                            297.529300     0.000000
                            162.009200     0.000000
                             90.228210     0.000000
                             50.817540     0.000000
                             28.729570     0.000000
                             16.228990     0.000000
                              9.133912     0.000000
                              5.110499     0.000000
                              2.791862     0.000000
                              1.473380     0.000000
                              0.748915     0.000000
                              0.354133     1.000000
                              0.140101     0.000000
   39.1 Ag    1  3d1+     74490.820000     0.000000
                          19553.580000     0.000000
                           6484.034000     0.000000
                           2563.968000     0.000000
                           1153.231000     0.000000
                            568.078500     0.000000
                            297.529300     0.000000
                            162.009200     0.000000
                             90.228210     0.000000
                             50.817540     0.000000
                             28.729570     0.000000
                             16.228990     0.000000
                              9.133912     0.000000
                              5.110499     0.000000
                              2.791862     0.000000
                              1.473380     0.000000
                              0.748915     0.000000
                              0.354133     1.000000
                              0.140101     0.000000
   40.1 Ag    1  3d2+     74490.820000     0.000000
                          19553.580000     0.000000
                           6484.034000     0.000000
                           2563.968000     0.000000
                           1153.231000     0.000000
                            568.078500     0.000000
                            297.529300     0.000000
                            162.009200     0.000000
                             90.228210     0.000000
                             50.817540     0.000000
                             28.729570     0.000000
                             16.228990     0.000000
                              9.133912     0.000000
                              5.110499     0.000000
                              2.791862     0.000000
                              1.473380     0.000000
                              0.748915     0.000000
                              0.354133     1.000000
                              0.140101     0.000000
   41.1 Ag    1  3d1-     74490.820000     0.000000
                          19553.580000     0.000000
                           6484.034000     0.000000
                           2563.968000     0.000000
                           1153.231000     0.000000
                            568.078500     0.000000
                            297.529300     0.000000
                            162.009200     0.000000
                             90.228210     0.000000
                             50.817540     0.000000
                             28.729570     0.000000
                             16.228990     0.000000
                              9.133912     0.000000
                              5.110499     0.000000
                              2.791862     0.000000
                              1.473380     0.000000
                              0.748915     0.000000
                              0.354133     1.000000
                              0.140101     0.000000
   42.1 Ag    1  3d0      74490.820000     0.000000
                          19553.580000     0.000000
                           6484.034000     0.000000
                           2563.968000     0.000000
                           1153.231000     0.000000
                            568.078500     0.000000
                            297.529300     0.000000
                            162.009200     0.000000
                             90.228210     0.000000
                             50.817540     0.000000
                             28.729570     0.000000
                             16.228990     0.000000
                              9.133912     0.000000
                              5.110499     0.000000
                              2.791862     0.000000
                              1.473380     0.000000
                              0.748915     0.000000
                              0.354133     0.000000
                              0.140101     1.000000
   43.1 Ag    1  3d2-     74490.820000     0.000000
                          19553.580000     0.000000
                           6484.034000     0.000000
                           2563.968000     0.000000
                           1153.231000     0.000000
                            568.078500     0.000000
                            297.529300     0.000000
                            162.009200     0.000000
                             90.228210     0.000000
                             50.817540     0.000000
                             28.729570     0.000000
                             16.228990     0.000000
                              9.133912     0.000000
                              5.110499     0.000000
                              2.791862     0.000000
                              1.473380     0.000000
                              0.748915     0.000000
                              0.354133     0.000000
                              0.140101     1.000000
   44.1 Ag    1  3d1+     74490.820000     0.000000
                          19553.580000     0.000000
                           6484.034000     0.000000
                           2563.968000     0.000000
                           1153.231000     0.000000
                            568.078500     0.000000
                            297.529300     0.000000
                            162.009200     0.000000
                             90.228210     0.000000
                             50.817540     0.000000
                             28.729570     0.000000
                             16.228990     0.000000
                              9.133912     0.000000
                              5.110499     0.000000
                              2.791862     0.000000
                              1.473380     0.000000
                              0.748915     0.000000
                              0.354133     0.000000
                              0.140101     1.000000
   45.1 Ag    1  3d2+     74490.820000     0.000000
                          19553.580000     0.000000
                           6484.034000     0.000000
                           2563.968000     0.000000
                           1153.231000     0.000000
                            568.078500     0.000000
                            297.529300     0.000000
                            162.009200     0.000000
                             90.228210     0.000000
                             50.817540     0.000000
                             28.729570     0.000000
                             16.228990     0.000000
                              9.133912     0.000000
                              5.110499     0.000000
                              2.791862     0.000000
                              1.473380     0.000000
                              0.748915     0.000000
                              0.354133     0.000000
                              0.140101     1.000000
   46.1 Ag    1  3d1-     74490.820000     0.000000
                          19553.580000     0.000000
                           6484.034000     0.000000
                           2563.968000     0.000000
                           1153.231000     0.000000
                            568.078500     0.000000
                            297.529300     0.000000
                            162.009200     0.000000
                             90.228210     0.000000
                             50.817540     0.000000
                             28.729570     0.000000
                             16.228990     0.000000
                              9.133912     0.000000
                              5.110499     0.000000
                              2.791862     0.000000
                              1.473380     0.000000
                              0.748915     0.000000
                              0.354133     0.000000
                              0.140101     1.000000
   47.1 Ag    1  3d0          0.051447     1.000000
   48.1 Ag    1  3d2-         0.051447     1.000000
   49.1 Ag    1  3d1+         0.051447     1.000000
   50.1 Ag    1  3d2+         0.051447     1.000000
   51.1 Ag    1  3d1-         0.051447     1.000000
   52.1 Ag    1  5g0          0.991772     1.000000
   53.1 Ag    1  5g2-         0.991772     1.000000
   54.1 Ag    1  5g1+         0.991772     1.000000
   55.1 Ag    1  5g4+         0.991772     1.000000
   56.1 Ag    1  5g1-         0.991772     1.000000
   57.1 Ag    1  5g2+         0.991772     1.000000
   58.1 Ag    1  5g4-         0.991772     1.000000
   59.1 Ag    1  5g3+         0.991772     1.000000
   60.1 Ag    1  5g3-         0.991772     1.000000
    1.2 Au    1  2px  678684900.000000     0.000003
                      112891100.000000     0.000008
                       22715190.000000     0.000023
                        5387239.000000     0.000060
                        1471826.000000     0.000149
                         453996.000000     0.000354
                         155358.400000     0.000825
                          58090.000000     0.001927
                          23424.050000     0.004555
                          10072.520000     0.010912
                           4574.701000     0.026203
                           2176.588000     0.061348
                           1077.275000     0.132132
                            551.275100     0.240542
                            290.107600     0.327375
                            156.228200     0.274035
                             85.690100     0.110254
                             47.646850     0.014330
                             26.725690     0.000576
                             15.040770    -0.000203
                              8.441277     0.000009
                              4.691227    -0.000048
                              2.560591     0.000027
                              1.332357    -0.000007
                              0.667470     0.000005
                              0.276927    -0.000002
                              0.119240     0.000001
                              0.049767    -0.000000
    2.2 Au    1  2py  678684900.000000     0.000003
                      112891100.000000     0.000008
                       22715190.000000     0.000023
                        5387239.000000     0.000060
                        1471826.000000     0.000149
                         453996.000000     0.000354
                         155358.400000     0.000825
                          58090.000000     0.001927
                          23424.050000     0.004555
                          10072.520000     0.010912
                           4574.701000     0.026203
                           2176.588000     0.061348
                           1077.275000     0.132132
                            551.275100     0.240542
                            290.107600     0.327375
                            156.228200     0.274035
                             85.690100     0.110254
                             47.646850     0.014330
                             26.725690     0.000576
                             15.040770    -0.000203
                              8.441277     0.000009
                              4.691227    -0.000048
                              2.560591     0.000027
                              1.332357    -0.000007
                              0.667470     0.000005
                              0.276927    -0.000002
                              0.119240     0.000001
                              0.049767    -0.000000
    3.2 Au    1  2pz  678684900.000000     0.000003
                      112891100.000000     0.000008
                       22715190.000000     0.000023
                        5387239.000000     0.000060
                        1471826.000000     0.000149
                         453996.000000     0.000354
                         155358.400000     0.000825
                          58090.000000     0.001927
                          23424.050000     0.004555
                          10072.520000     0.010912
                           4574.701000     0.026203
                           2176.588000     0.061348
                           1077.275000     0.132132
                            551.275100     0.240542
                            290.107600     0.327375
                            156.228200     0.274035
                             85.690100     0.110254
                             47.646850     0.014330
                             26.725690     0.000576
                             15.040770    -0.000203
                              8.441277     0.000009
                              4.691227    -0.000048
                              2.560591     0.000027
                              1.332357    -0.000007
                              0.667470     0.000005
                              0.276927    -0.000002
                              0.119240     0.000001
                              0.049767    -0.000000
    4.2 Au    1  2px  678684900.000000    -0.000001
                      112891100.000000    -0.000004
                       22715190.000000    -0.000012
                        5387239.000000    -0.000031
                        1471826.000000    -0.000078
                         453996.000000    -0.000184
                         155358.400000    -0.000431
                          58090.000000    -0.001010
                          23424.050000    -0.002400
                          10072.520000    -0.005798
                           4574.701000    -0.014088
                           2176.588000    -0.033659
                           1077.275000    -0.074719
                            551.275100    -0.141978
                            290.107600    -0.199415
                            156.228200    -0.122149
                             85.690100     0.183556
                             47.646850     0.491502
                             26.725690     0.369028
                             15.040770     0.094598
                              8.441277     0.008154
                              4.691227     0.000058
                              2.560591     0.000142
                              1.332357    -0.000164
                              0.667470     0.000040
                              0.276927    -0.000020
                              0.119240     0.000009
                              0.049767    -0.000002
    5.2 Au    1  2py  678684900.000000    -0.000001
                      112891100.000000    -0.000004
                       22715190.000000    -0.000012
                        5387239.000000    -0.000031
                        1471826.000000    -0.000078
                         453996.000000    -0.000184
                         155358.400000    -0.000431
                          58090.000000    -0.001010
                          23424.050000    -0.002400
                          10072.520000    -0.005798
                           4574.701000    -0.014088
                           2176.588000    -0.033659
                           1077.275000    -0.074719
                            551.275100    -0.141978
                            290.107600    -0.199415
                            156.228200    -0.122149
                             85.690100     0.183556
                             47.646850     0.491502
                             26.725690     0.369028
                             15.040770     0.094598
                              8.441277     0.008154
                              4.691227     0.000058
                              2.560591     0.000142
                              1.332357    -0.000164
                              0.667470     0.000040
                              0.276927    -0.000020
                              0.119240     0.000009
                              0.049767    -0.000002
    6.2 Au    1  2pz  678684900.000000    -0.000001
                      112891100.000000    -0.000004
                       22715190.000000    -0.000012
                        5387239.000000    -0.000031
                        1471826.000000    -0.000078
                         453996.000000    -0.000184
                         155358.400000    -0.000431
                          58090.000000    -0.001010
                          23424.050000    -0.002400
                          10072.520000    -0.005798
                           4574.701000    -0.014088
                           2176.588000    -0.033659
                           1077.275000    -0.074719
                            551.275100    -0.141978
                            290.107600    -0.199415
                            156.228200    -0.122149
                             85.690100     0.183556
                             47.646850     0.491502
                             26.725690     0.369028
                             15.040770     0.094598
                              8.441277     0.008154
                              4.691227     0.000058
                              2.560591     0.000142
                              1.332357    -0.000164
                              0.667470     0.000040
                              0.276927    -0.000020
                              0.119240     0.000009
                              0.049767    -0.000002
    7.2 Au    1  2px  678684900.000000    -0.000001
                      112891100.000000    -0.000002
                       22715190.000000    -0.000006
                        5387239.000000    -0.000016
                        1471826.000000    -0.000039
                         453996.000000    -0.000093
                         155358.400000    -0.000218
                          58090.000000    -0.000511
                          23424.050000    -0.001215
                          10072.520000    -0.002941
                           4574.701000    -0.007170
                           2176.588000    -0.017208
                           1077.275000    -0.038512
                            551.275100    -0.073940
                            290.107600    -0.104929
                            156.228200    -0.055037
                             85.690100     0.150956
                             47.646850     0.414224
                             26.725690     0.251670
                             15.040770    -0.319500
                              8.441277    -0.602587
                              4.691227    -0.296717
                              2.560591    -0.037617
                              1.332357    -0.002964
                              0.667470     0.000359
                              0.276927    -0.000162
                              0.119240     0.000088
                              0.049767    -0.000025
    8.2 Au    1  2py  678684900.000000    -0.000001
                      112891100.000000    -0.000002
                       22715190.000000    -0.000006
                        5387239.000000    -0.000016
                        1471826.000000    -0.000039
                         453996.000000    -0.000093
                         155358.400000    -0.000218
                          58090.000000    -0.000511
                          23424.050000    -0.001215
                          10072.520000    -0.002941
                           4574.701000    -0.007170
                           2176.588000    -0.017208
                           1077.275000    -0.038512
                            551.275100    -0.073940
                            290.107600    -0.104929
                            156.228200    -0.055037
                             85.690100     0.150956
                             47.646850     0.414224
                             26.725690     0.251670
                             15.040770    -0.319500
                              8.441277    -0.602587
                              4.691227    -0.296717
                              2.560591    -0.037617
                              1.332357    -0.002964
                              0.667470     0.000359
                              0.276927    -0.000162
                              0.119240     0.000088
                              0.049767    -0.000025
    9.2 Au    1  2pz  678684900.000000    -0.000001
                      112891100.000000    -0.000002
                       22715190.000000    -0.000006
                        5387239.000000    -0.000016
                        1471826.000000    -0.000039
                         453996.000000    -0.000093
                         155358.400000    -0.000218
                          58090.000000    -0.000511
                          23424.050000    -0.001215
                          10072.520000    -0.002941
                           4574.701000    -0.007170
                           2176.588000    -0.017208
                           1077.275000    -0.038512
                            551.275100    -0.073940
                            290.107600    -0.104929
                            156.228200    -0.055037
                             85.690100     0.150956
                             47.646850     0.414224
                             26.725690     0.251670
                             15.040770    -0.319500
                              8.441277    -0.602587
                              4.691227    -0.296717
                              2.560591    -0.037617
                              1.332357    -0.002964
                              0.667470     0.000359
                              0.276927    -0.000162
                              0.119240     0.000088
                              0.049767    -0.000025
   10.2 Au    1  2px  678684900.000000     0.000000
                      112891100.000000     0.000001
                       22715190.000000     0.000003
                        5387239.000000     0.000007
                        1471826.000000     0.000017
                         453996.000000     0.000040
                         155358.400000     0.000093
                          58090.000000     0.000218
                          23424.050000     0.000519
                          10072.520000     0.001257
                           4574.701000     0.003068
                           2176.588000     0.007368
                           1077.275000     0.016528
                            551.275100     0.031793
                            290.107600     0.045264
                            156.228200     0.022656
                             85.690100    -0.071327
                             47.646850    -0.199949
                             26.725690    -0.107902
                             15.040770     0.215307
                              8.441277     0.453480
                              4.691227     0.166374
                              2.560591    -0.456780
                              1.332357    -0.581051
                              0.667470    -0.213158
                              0.276927    -0.016052
                              0.119240     0.000356
                              0.049767    -0.000155
   11.2 Au    1  2py  678684900.000000     0.000000
                      112891100.000000     0.000001
                       22715190.000000     0.000003
                        5387239.000000     0.000007
                        1471826.000000     0.000017
                         453996.000000     0.000040
                         155358.400000     0.000093
                          58090.000000     0.000218
                          23424.050000     0.000519
                          10072.520000     0.001257
                           4574.701000     0.003068
                           2176.588000     0.007368
                           1077.275000     0.016528
                            551.275100     0.031793
                            290.107600     0.045264
                            156.228200     0.022656
                             85.690100    -0.071327
                             47.646850    -0.199949
                             26.725690    -0.107902
                             15.040770     0.215307
                              8.441277     0.453480
                              4.691227     0.166374
                              2.560591    -0.456780
                              1.332357    -0.581051
                              0.667470    -0.213158
                              0.276927    -0.016052
                              0.119240     0.000356
                              0.049767    -0.000155
   12.2 Au    1  2pz  678684900.000000     0.000000
                      112891100.000000     0.000001
                       22715190.000000     0.000003
                        5387239.000000     0.000007
                        1471826.000000     0.000017
                         453996.000000     0.000040
                         155358.400000     0.000093
                          58090.000000     0.000218
                          23424.050000     0.000519
                          10072.520000     0.001257
                           4574.701000     0.003068
                           2176.588000     0.007368
                           1077.275000     0.016528
                            551.275100     0.031793
                            290.107600     0.045264
                            156.228200     0.022656
                             85.690100    -0.071327
                             47.646850    -0.199949
                             26.725690    -0.107902
                             15.040770     0.215307
                              8.441277     0.453480
                              4.691227     0.166374
                              2.560591    -0.456780
                              1.332357    -0.581051
                              0.667470    -0.213158
                              0.276927    -0.016052
                              0.119240     0.000356
                              0.049767    -0.000155
   13.2 Au    1  2px  678684900.000000    -0.000000
                      112891100.000000    -0.000000
                       22715190.000000    -0.000001
                        5387239.000000    -0.000002
                        1471826.000000    -0.000005
                         453996.000000    -0.000011
                         155358.400000    -0.000026
                          58090.000000    -0.000060
                          23424.050000    -0.000144
                          10072.520000    -0.000348
                           4574.701000    -0.000850
                           2176.588000    -0.002038
                           1077.275000    -0.004582
                            551.275100    -0.008798
                            290.107600    -0.012575
                            156.228200    -0.006166
                             85.690100     0.019907
                             47.646850     0.056717
                             26.725690     0.029170
                             15.040770    -0.062467
                              8.441277    -0.140330
                              4.691227    -0.041141
                              2.560591     0.170490
                              1.332357     0.255359
                              0.667470     0.048427
                              0.276927    -0.389905
                              0.119240    -0.555652
                              0.049767    -0.215232
   14.2 Au    1  2py  678684900.000000    -0.000000
                      112891100.000000    -0.000000
                       22715190.000000    -0.000001
                        5387239.000000    -0.000002
                        1471826.000000    -0.000005
                         453996.000000    -0.000011
                         155358.400000    -0.000026
                          58090.000000    -0.000060
                          23424.050000    -0.000144
                          10072.520000    -0.000348
                           4574.701000    -0.000850
                           2176.588000    -0.002038
                           1077.275000    -0.004582
                            551.275100    -0.008798
                            290.107600    -0.012575
                            156.228200    -0.006166
                             85.690100     0.019907
                             47.646850     0.056717
                             26.725690     0.029170
                             15.040770    -0.062467
                              8.441277    -0.140330
                              4.691227    -0.041141
                              2.560591     0.170490
                              1.332357     0.255359
                              0.667470     0.048427
                              0.276927    -0.389905
                              0.119240    -0.555652
                              0.049767    -0.215232
   15.2 Au    1  2pz  678684900.000000    -0.000000
                      112891100.000000    -0.000000
                       22715190.000000    -0.000001
                        5387239.000000    -0.000002
                        1471826.000000    -0.000005
                         453996.000000    -0.000011
                         155358.400000    -0.000026
                          58090.000000    -0.000060
                          23424.050000    -0.000144
                          10072.520000    -0.000348
                           4574.701000    -0.000850
                           2176.588000    -0.002038
                           1077.275000    -0.004582
                            551.275100    -0.008798
                            290.107600    -0.012575
                            156.228200    -0.006166
                             85.690100     0.019907
                             47.646850     0.056717
                             26.725690     0.029170
                             15.040770    -0.062467
                              8.441277    -0.140330
                              4.691227    -0.041141
                              2.560591     0.170490
                              1.332357     0.255359
                              0.667470     0.048427
                              0.276927    -0.389905
                              0.119240    -0.555652
                              0.049767    -0.215232
   16.2 Au    1  2px  678684900.000000     0.000000
                      112891100.000000     0.000000
                       22715190.000000     0.000000
                        5387239.000000     0.000000
                        1471826.000000     0.000000
                         453996.000000     0.000000
                         155358.400000     0.000000
                          58090.000000     0.000000
                          23424.050000     0.000000
                          10072.520000     0.000000
                           4574.701000     0.000000
                           2176.588000     0.000000
                           1077.275000     0.000000
                            551.275100     0.000000
                            290.107600     0.000000
                            156.228200     0.000000
                             85.690100     0.000000
                             47.646850     0.000000
                             26.725690     0.000000
                             15.040770     0.000000
                              8.441277     0.000000
                              4.691227     0.000000
                              2.560591     1.000000
                              1.332357     0.000000
                              0.667470     0.000000
                              0.276927     0.000000
                              0.119240     0.000000
                              0.049767     0.000000
   17.2 Au    1  2py  678684900.000000     0.000000
                      112891100.000000     0.000000
                       22715190.000000     0.000000
                        5387239.000000     0.000000
                        1471826.000000     0.000000
                         453996.000000     0.000000
                         155358.400000     0.000000
                          58090.000000     0.000000
                          23424.050000     0.000000
                          10072.520000     0.000000
                           4574.701000     0.000000
                           2176.588000     0.000000
                           1077.275000     0.000000
                            551.275100     0.000000
                            290.107600     0.000000
                            156.228200     0.000000
                             85.690100     0.000000
                             47.646850     0.000000
                             26.725690     0.000000
                             15.040770     0.000000
                              8.441277     0.000000
                              4.691227     0.000000
                              2.560591     1.000000
                              1.332357     0.000000
                              0.667470     0.000000
                              0.276927     0.000000
                              0.119240     0.000000
                              0.049767     0.000000
   18.2 Au    1  2pz  678684900.000000     0.000000
                      112891100.000000     0.000000
                       22715190.000000     0.000000
                        5387239.000000     0.000000
                        1471826.000000     0.000000
                         453996.000000     0.000000
                         155358.400000     0.000000
                          58090.000000     0.000000
                          23424.050000     0.000000
                          10072.520000     0.000000
                           4574.701000     0.000000
                           2176.588000     0.000000
                           1077.275000     0.000000
                            551.275100     0.000000
                            290.107600     0.000000
                            156.228200     0.000000
                             85.690100     0.000000
                             47.646850     0.000000
                             26.725690     0.000000
                             15.040770     0.000000
                              8.441277     0.000000
                              4.691227     0.000000
                              2.560591     1.000000
                              1.332357     0.000000
                              0.667470     0.000000
                              0.276927     0.000000
                              0.119240     0.000000
                              0.049767     0.000000
   19.2 Au    1  2px  678684900.000000     0.000000
                      112891100.000000     0.000000
                       22715190.000000     0.000000
                        5387239.000000     0.000000
                        1471826.000000     0.000000
                         453996.000000     0.000000
                         155358.400000     0.000000
                          58090.000000     0.000000
                          23424.050000     0.000000
                          10072.520000     0.000000
                           4574.701000     0.000000
                           2176.588000     0.000000
                           1077.275000     0.000000
                            551.275100     0.000000
                            290.107600     0.000000
                            156.228200     0.000000
                             85.690100     0.000000
                             47.646850     0.000000
                             26.725690     0.000000
                             15.040770     0.000000
                              8.441277     0.000000
                              4.691227     0.000000
                              2.560591     0.000000
                              1.332357     1.000000
                              0.667470     0.000000
                              0.276927     0.000000
                              0.119240     0.000000
                              0.049767     0.000000
   20.2 Au    1  2py  678684900.000000     0.000000
                      112891100.000000     0.000000
                       22715190.000000     0.000000
                        5387239.000000     0.000000
                        1471826.000000     0.000000
                         453996.000000     0.000000
                         155358.400000     0.000000
                          58090.000000     0.000000
                          23424.050000     0.000000
                          10072.520000     0.000000
                           4574.701000     0.000000
                           2176.588000     0.000000
                           1077.275000     0.000000
                            551.275100     0.000000
                            290.107600     0.000000
                            156.228200     0.000000
                             85.690100     0.000000
                             47.646850     0.000000
                             26.725690     0.000000
                             15.040770     0.000000
                              8.441277     0.000000
                              4.691227     0.000000
                              2.560591     0.000000
                              1.332357     1.000000
                              0.667470     0.000000
                              0.276927     0.000000
                              0.119240     0.000000
                              0.049767     0.000000
   21.2 Au    1  2pz  678684900.000000     0.000000
                      112891100.000000     0.000000
                       22715190.000000     0.000000
                        5387239.000000     0.000000
                        1471826.000000     0.000000
                         453996.000000     0.000000
                         155358.400000     0.000000
                          58090.000000     0.000000
                          23424.050000     0.000000
                          10072.520000     0.000000
                           4574.701000     0.000000
                           2176.588000     0.000000
                           1077.275000     0.000000
                            551.275100     0.000000
                            290.107600     0.000000
                            156.228200     0.000000
                             85.690100     0.000000
                             47.646850     0.000000
                             26.725690     0.000000
                             15.040770     0.000000
                              8.441277     0.000000
                              4.691227     0.000000
                              2.560591     0.000000
                              1.332357     1.000000
                              0.667470     0.000000
                              0.276927     0.000000
                              0.119240     0.000000
                              0.049767     0.000000
   22.2 Au    1  2px          0.386566     1.000000
   23.2 Au    1  2py          0.386566     1.000000
   24.2 Au    1  2pz          0.386566     1.000000
   25.2 Au    1  2px          0.067915     1.000000
   26.2 Au    1  2py          0.067915     1.000000
   27.2 Au    1  2pz          0.067915     1.000000
   28.2 Au    1  2px          0.023826     1.000000
   29.2 Au    1  2py          0.023826     1.000000
   30.2 Au    1  2pz          0.023826     1.000000
   31.2 Au    1  4f1+      1586.440000     0.000158
                            540.994000     0.001458
                            229.631700     0.008557
                            110.411200     0.033475
                             56.710340     0.094907
                             30.100780     0.202199
                             16.220050     0.300416
                              8.763778     0.323492
                              4.666970     0.237598
                              2.372336     0.101300
                              1.087381     0.016745
   32.2 Au    1  4f1-      1586.440000     0.000158
                            540.994000     0.001458
                            229.631700     0.008557
                            110.411200     0.033475
                             56.710340     0.094907
                             30.100780     0.202199
                             16.220050     0.300416
                              8.763778     0.323492
                              4.666970     0.237598
                              2.372336     0.101300
                              1.087381     0.016745
   33.2 Au    1  4f0       1586.440000     0.000158
                            540.994000     0.001458
                            229.631700     0.008557
                            110.411200     0.033475
                             56.710340     0.094907
                             30.100780     0.202199
                             16.220050     0.300416
                              8.763778     0.323492
                              4.666970     0.237598
                              2.372336     0.101300
                              1.087381     0.016745
   34.2 Au    1  4f3+      1586.440000     0.000158
                            540.994000     0.001458
                            229.631700     0.008557
                            110.411200     0.033475
                             56.710340     0.094907
                             30.100780     0.202199
                             16.220050     0.300416
                              8.763778     0.323492
                              4.666970     0.237598
                              2.372336     0.101300
                              1.087381     0.016745
   35.2 Au    1  4f2-      1586.440000     0.000158
                            540.994000     0.001458
                            229.631700     0.008557
                            110.411200     0.033475
                             56.710340     0.094907
                             30.100780     0.202199
                             16.220050     0.300416
                              8.763778     0.323492
                              4.666970     0.237598
                              2.372336     0.101300
                              1.087381     0.016745
   36.2 Au    1  4f3-      1586.440000     0.000158
                            540.994000     0.001458
                            229.631700     0.008557
                            110.411200     0.033475
                             56.710340     0.094907
                             30.100780     0.202199
                             16.220050     0.300416
                              8.763778     0.323492
                              4.666970     0.237598
                              2.372336     0.101300
                              1.087381     0.016745
   37.2 Au    1  4f2+      1586.440000     0.000158
                            540.994000     0.001458
                            229.631700     0.008557
                            110.411200     0.033475
                             56.710340     0.094907
                             30.100780     0.202199
                             16.220050     0.300416
[...]
                         0.013571700  -0.175075033   0.103333824   0.082542692  -0.007210247   0.185140056  -0.277915833   0.016746633

    7    3.2  0.5  0.5   0.055732649   0.076823080   0.186068206  -0.049298918   0.063077471  -0.347926778  -0.174907799  -0.008671268
                        -0.000413584   0.127680802   0.137367560   0.006475735  -0.030069357  -0.131984332  -0.176943901  -0.053059291

    8    4.2  0.5  0.5   0.181221637  -0.183763319  -0.014543653  -0.014810900   0.259126959   0.190945591  -0.052810519   0.106973530
                        -0.017195668   0.063373410  -0.019927159   0.097591204  -0.072908534   0.056457220  -0.281330054   0.051598572

    9    5.2  0.5  0.5  -0.171153116  -0.076730569   0.044008095  -0.068819812  -0.033366576   0.011935715  -0.096984317  -0.161931474
                         0.112129734   0.099080789  -0.068935955   0.110793645   0.065455108  -0.058039124  -0.020522398   0.403951063

   10    6.2  0.5  0.5  -0.175751020  -0.131911826   0.050168509  -0.032024702  -0.031047462   0.054766073  -0.058060335  -0.099915268
                        -0.423930111   0.076178134  -0.004356372  -0.044467287  -0.063209459  -0.019727235  -0.015552396  -0.051557414

   11    7.2  0.5  0.5   0.024345180   0.244716812  -0.072495045   0.028562985  -0.002061230  -0.031316899   0.005544775   0.030397831
                        -0.140766594  -0.019058273  -0.039321311   0.388670188  -0.134703039   0.035564085   0.037313232   0.043106796

   12    8.2  0.5  0.5   0.025845202  -0.004611923  -0.023172086  -0.436288644   0.079991968  -0.035417821   0.087354982  -0.093710843
                        -0.019039571  -0.208560354   0.059855111   0.017958468  -0.005615850   0.021757250   0.002555530  -0.004771662

   13    1.2  0.5 -0.5   0.038374051   0.008673375   0.023171807  -0.213694996   0.281627075  -0.116139756   0.002658773  -0.180560788
                        -0.056561804   0.056677150   0.006701515   0.164521331  -0.236518431   0.000684198  -0.060277449   0.152187586

   14    2.2  0.5 -0.5  -0.197648198   0.009518515   0.081437838  -0.101934105  -0.131364907  -0.142343091  -0.030307434  -0.315438916
                        -0.000350991   0.047589879   0.093621857  -0.118600507   0.140924288  -0.223314784   0.018491623  -0.011896679

   15    3.2  0.5 -0.5   0.148735068  -0.025410382   0.007060085  -0.135150672   0.292141945   0.006656595   0.041336280  -0.063826416
                         0.009058284  -0.049604553  -0.049218632  -0.187684628   0.230490760   0.069560213   0.034377190  -0.240474678

   16    4.2  0.5 -0.5  -0.028805251  -0.068571455   0.097760031   0.019753234  -0.146628671   0.070755487   0.009766019  -0.215707455
                        -0.192237884  -0.168626594  -0.013652188   0.014779014  -0.134713286   0.259723115  -0.118365424  -0.188164406

   17    5.2  0.5 -0.5   0.052357389  -0.020255098   0.111602221   0.069453148   0.043634315   0.038971285  -0.430280182   0.031486316
                        -0.113856431   0.203607951  -0.067500686  -0.043187250  -0.040088000  -0.062281125  -0.065247441  -0.093998609

   18    6.2  0.5 -0.5   0.006529564   0.457148870  -0.044084267   0.004951186  -0.011250903  -0.070176488  -0.006222666   0.016034016
                        -0.152188051  -0.040250100  -0.032549940  -0.050113302  -0.057113079   0.005885676   0.112260884  -0.057929180

   19    7.2  0.5 -0.5   0.096287386   0.113545466   0.388304014   0.038458576  -0.014391481  -0.116579275  -0.021741749   0.029349665
                         0.225783691  -0.086691112   0.033171552   0.072956391   0.045149059   0.067516148  -0.048057470   0.023698500

   20    8.2  0.5 -0.5  -0.187045298   0.004926982   0.023132652  -0.060125777  -0.000441680   0.036327403  -0.043402436  -0.042089887
                         0.092372872  -0.031720728  -0.436044915   0.022460428   0.041564466   0.071488268   0.083190862   0.076588936


   Nr   State  S   Sz        9            10            11            12            13            14            15            16

    1    1.2  1.5  1.5   0.000000644  -0.000000270  -0.000000041   0.000000324   0.000000090  -0.000002360  -0.000001124   0.000000000
                        -0.000000000   0.000000000  -0.000000000  -0.000000000   0.000000000   0.000000000  -0.000000000   0.000000000

    2    1.2  1.5  0.5  -0.000000075   0.000000160  -0.000000085   0.000000235   0.000006753  -0.000001810   0.000005418  -0.000000223
                        -0.000000116   0.000000100   0.000000047   0.000000116  -0.000004060   0.000002474  -0.000001458  -0.000000125

    3    1.2  1.5 -0.5   0.000000187   0.000000132  -0.000000046   0.000000069  -0.000002748  -0.000007865   0.000000114   0.000005297
                         0.000000025  -0.000000042  -0.000000259  -0.000000068  -0.000001359  -0.000000484  -0.000000229  -0.000001852

    4    1.2  1.5 -1.5   0.000000209   0.000000497  -0.000000091  -0.000000012   0.000002093   0.000000080  -0.000000000   0.000000928
                         0.000000172   0.000000409   0.000000311   0.000000040  -0.000001089  -0.000000042   0.000000000  -0.000000634

    5    1.2  0.5  0.5  -0.042341974   0.061738691   0.571670919   0.174541489   0.139766201   0.096113404  -0.000001527   0.000000678
                        -0.086780988  -0.198532720  -0.378717625  -0.084080507   0.072079647  -0.075576352   0.000000747   0.000001508

    6    2.2  0.5  0.5   0.553125541   0.170071254   0.071472382   0.101667651   0.204013351   0.226284591   0.000001477  -0.000004121
                         0.259705292   0.137415673   0.140642030  -0.017584494  -0.120342984  -0.189604842  -0.000001104   0.000005260

    7    3.2  0.5  0.5  -0.059153757  -0.267421397   0.460916361  -0.080222902  -0.055080360  -0.172936073  -0.000000075   0.000003892
                         0.009063914   0.160484733   0.391190817   0.250069185  -0.173275775  -0.041684133  -0.000000439  -0.000002796

    8    4.2  0.5  0.5  -0.392821062   0.377545339  -0.027625591   0.054560573   0.151318107  -0.185676695   0.000005560   0.000005761
                         0.302391217   0.190302718  -0.081700256   0.108142740  -0.186955916  -0.247091188  -0.000001953   0.000004804

    9    5.2  0.5  0.5   0.001440447   0.013478588  -0.007242238   0.006650722   0.504658248  -0.107483881  -0.000008343   0.000001826
                        -0.024390892   0.010645668   0.006788962  -0.000079856  -0.202888985   0.539984008   0.000001783   0.000004246

   10    6.2  0.5  0.5   0.000000186   0.000000067   0.000000009   0.000000014   0.000002081  -0.000001278   0.151360129   0.016815347
                         0.000000023  -0.000000104   0.000000326   0.000000159   0.000003348  -0.000001035   0.554912544   0.047106594

   11    7.2  0.5  0.5  -0.000000106  -0.000000084   0.000000059   0.000000404  -0.000000227   0.000000607   0.035310356  -0.155127858
                         0.000000061   0.000000138  -0.000000056   0.000000018  -0.000001374  -0.000000546   0.042047319  -0.553399493

   12    8.2  0.5  0.5   0.000000432  -0.000000166  -0.000000030   0.000000287  -0.000000414  -0.000002896   0.164174723  -0.529498853
                         0.000000054   0.000000185   0.000000007  -0.000000341   0.000000008  -0.000000256  -0.041954355   0.155715769

   13    1.2  0.5 -0.5   0.078554231  -0.087853082  -0.129625769   0.523750112  -0.120146873   0.090714314  -0.000000291   0.000001682
                        -0.192499713   0.040070170   0.143984107  -0.442629076  -0.022678189  -0.128456139  -0.000001627  -0.000000244

   14    2.2  0.5 -0.5  -0.218639246   0.592068115  -0.045371781  -0.114976430  -0.288255320   0.236528023  -0.000006370  -0.000001843
                        -0.002044196   0.151162326   0.092665674  -0.108022693  -0.063746241   0.012584732  -0.000002019  -0.000000079

   15    3.2  0.5 -0.5   0.104404005  -0.039899766   0.262530613  -0.246345275   0.134169364   0.031121101   0.000004790  -0.000000185
                         0.293886639  -0.044601908  -0.006927404  -0.552076220  -0.116803399   0.179136310   0.000000114  -0.000000404

   16    4.2  0.5 -0.5  -0.412413786  -0.110989372   0.088518906   0.070684432   0.050657476   0.220530358   0.000002048  -0.000005693
                        -0.093115395  -0.483146142   0.082680782   0.049414736  -0.304899508   0.096000235  -0.000007216   0.000001523

   17    5.2  0.5 -0.5  -0.017172051  -0.014393902  -0.001940493  -0.008546524   0.344599839   0.541330473  -0.000000887   0.000007895
                        -0.000351036   0.019743507   0.006361836   0.005049451   0.429402451  -0.052964205  -0.000004535  -0.000003234

   18    6.2  0.5 -0.5   0.000000014   0.000000158   0.000000148  -0.000000310   0.000000656   0.000000300  -0.012683140   0.187989284
                        -0.000000123   0.000000100   0.000000058  -0.000000100  -0.000001508  -0.000003930  -0.048383107   0.543597139

   19    7.2  0.5 -0.5  -0.000000023  -0.000000043  -0.000000096   0.000000071  -0.000000790   0.000000433   0.184024641  -0.005442911
                         0.000000160  -0.000000114   0.000000393  -0.000000041  -0.000000204   0.000001324   0.544472756   0.054636737

   20    8.2  0.5 -0.5   0.000000010   0.000000368  -0.000000408  -0.000000015   0.000002451  -0.000000371  -0.525067998  -0.159232751
                         0.000000248   0.000000233   0.000000180   0.000000027  -0.000001564   0.000000185   0.170058912   0.057952035


   Nr   State  S   Sz       17            18            19            20

    1    1.2  1.5  1.5   0.004444081  -0.050833053  -0.341541245  -0.014467659
                         0.000000000   0.000000000   0.000000000   0.000000000

    2    1.2  1.5  0.5  -0.036403780   0.328752297  -0.049454917   0.001230568
                         0.043658659  -0.074508158   0.011443560   0.005046063

    3    1.2  1.5 -0.5  -0.141908471   0.012314509  -0.001629951  -0.048382038
                        -0.305763837  -0.055494743   0.004931563  -0.015359763

    4    1.2  1.5 -1.5  -0.031062122  -0.002715607  -0.014421372   0.340448542
                        -0.040238587  -0.003517859  -0.001156366   0.027298582

    5    1.2  0.5  0.5   0.049968400  -0.044769973  -0.033111363   0.238631595
                        -0.017510275   0.012601800  -0.026200435   0.216529163

    6    2.2  0.5  0.5   0.190823645   0.065812667  -0.130477424   0.084191917
                         0.136773051   0.010649167  -0.081138533  -0.142543834

    7    3.2  0.5  0.5  -0.092623726   0.000517456   0.069925011   0.201271060
                        -0.129853727  -0.019647480   0.005874655  -0.198288084

    8    4.2  0.5  0.5   0.113912369   0.198102881   0.054487520  -0.044113279
                        -0.186352728  -0.065947525  -0.110249836   0.047048619

    9    5.2  0.5  0.5   0.150159148  -0.240461458   0.055180071  -0.052570403
                        -0.109257660   0.049890333  -0.091182542  -0.040766426

   10    6.2  0.5  0.5  -0.013230151   0.148073654   0.009187915  -0.002334649
                        -0.077924723   0.611479300   0.023209396  -0.001434093

   11    7.2  0.5  0.5   0.296509817   0.024194988   0.024400538   0.018738216
                        -0.107550408  -0.034286182   0.547819963  -0.020754799

   12    8.2  0.5  0.5  -0.110949547  -0.060262838  -0.544373117  -0.066885287
                        -0.290667106  -0.018117213   0.030475377  -0.015151185

   13    1.2  0.5 -0.5  -0.017381835  -0.016672927   0.255174796   0.035099568
                        -0.043139630  -0.050253997  -0.196763157  -0.023470098

   14    2.2  0.5 -0.5   0.048645288  -0.224872222   0.072529368   0.136545194
                         0.045588900  -0.067476031   0.148817050  -0.070450193

   15    3.2  0.5 -0.5  -0.015236416   0.159388812   0.184778431  -0.070170845
                         0.012415428  -0.006029235   0.213740814   0.000266920

   16    4.2  0.5 -0.5   0.068850096   0.077906211  -0.040211661  -0.045501188
                         0.197112891  -0.204044087  -0.050423965  -0.114252169

   17    5.2  0.5 -0.5  -0.107444395  -0.005269955  -0.055660577  -0.047715527
                        -0.220831294  -0.185626597   0.036434173  -0.095301231

   18    6.2  0.5 -0.5   0.574518804   0.069768332  -0.002441803  -0.011013592
                        -0.256438854  -0.037144034   0.001242902   0.022400773

   19    7.2  0.5 -0.5  -0.012355737  -0.096050646   0.017019384  -0.068108425
                         0.040103310  -0.300432081   0.022186099   0.544117028

   20    8.2  0.5 -0.5  -0.051165580   0.297884172  -0.067882297   0.540195663
                        -0.036632315  -0.089789690   0.009756729   0.073888329


 Composition of spin-orbit eigenvectors
 ======================================

   Nr   State  S   Sz       1        2        3        4        5        6        7        8        9       10

    1    1.2  1.5  1.5   4.151%   0.002%   0.011%  39.616%  30.802%   2.845%   1.934%   8.692%   0.000%   0.000%
    2    1.2  1.5  0.5  32.809%   6.818%   0.738%   3.416%   3.289%   7.337%   6.168%  27.480%   0.000%   0.000%
    3    1.2  1.5 -0.5   6.818%  32.809%   3.416%   0.738%   7.337%   3.289%  27.480%   6.168%   0.000%   0.000%
    4    1.2  1.5 -1.5   0.002%   4.151%  39.616%   0.011%   2.845%  30.802%   8.692%   1.934%   0.000%   0.000%
    5    1.2  0.5  0.5   0.329%   0.467%   7.273%   0.058%   1.349%  13.525%   5.576%   0.364%   0.932%   4.323%
    6    2.2  0.5  0.5   0.236%   3.906%   2.446%   1.540%   7.013%   3.712%   9.964%   0.126%  37.339%   4.781%
    7    3.2  0.5  0.5   0.311%   2.220%   5.349%   0.247%   0.488%  13.847%   6.190%   0.289%   0.358%   9.727%
    8    4.2  0.5  0.5   3.314%   3.779%   0.061%   0.974%   7.246%   3.965%   8.194%   1.411%  24.575%  17.876%
    9    5.2  0.5  0.5   4.187%   1.570%   0.669%   1.701%   0.540%   0.351%   0.983%  18.940%   0.060%   0.030%
   10    6.2  0.5  0.5  21.061%   2.320%   0.254%   0.300%   0.496%   0.339%   0.361%   1.264%   0.000%   0.000%
   11    7.2  0.5  0.5   2.041%   6.025%   0.680%  15.188%   1.815%   0.225%   0.142%   0.278%   0.000%   0.000%
   12    8.2  0.5  0.5   0.103%   4.352%   0.412%  19.067%   0.643%   0.173%   0.764%   0.880%   0.000%   0.000%
   13    1.2  0.5 -0.5   0.467%   0.329%   0.058%   7.273%  13.525%   1.349%   0.364%   5.576%   4.323%   0.932%
   14    2.2  0.5 -0.5   3.906%   0.236%   1.540%   2.446%   3.712%   7.013%   0.126%   9.964%   4.781%  37.339%
   15    3.2  0.5 -0.5   2.220%   0.311%   0.247%   5.349%  13.847%   0.488%   0.289%   6.190%   9.727%   0.358%
   16    4.2  0.5 -0.5   3.779%   3.314%   0.974%   0.061%   3.965%   7.246%   1.411%   8.194%  17.876%  24.575%
   17    5.2  0.5 -0.5   1.570%   4.187%   1.701%   0.669%   0.351%   0.540%  18.940%   0.983%   0.030%   0.060%
   18    6.2  0.5 -0.5   2.320%  21.061%   0.300%   0.254%   0.339%   0.496%   1.264%   0.361%   0.000%   0.000%
   19    7.2  0.5 -0.5   6.025%   2.041%  15.188%   0.680%   0.225%   1.815%   0.278%   0.142%   0.000%   0.000%
   20    8.2  0.5 -0.5   4.352%   0.103%  19.067%   0.412%   0.173%   0.643%   0.880%   0.764%   0.000%   0.000%

   Nr   State  S   Sz      11       12       13       14       15       16       17       18       19       20

    1    1.2  1.5  1.5   0.000%   0.000%   0.000%   0.000%   0.000%   0.000%   0.002%   0.258%  11.665%   0.021%
    2    1.2  1.5  0.5   0.000%   0.000%   0.000%   0.000%   0.000%   0.000%   0.323%  11.363%   0.258%   0.003%
    3    1.2  1.5 -0.5   0.000%   0.000%   0.000%   0.000%   0.000%   0.000%  11.363%   0.323%   0.003%   0.258%
    4    1.2  1.5 -1.5   0.000%   0.000%   0.000%   0.000%   0.000%   0.000%   0.258%   0.002%   0.021%  11.665%
    5    1.2  0.5  0.5  47.023%   3.753%   2.473%   1.495%   0.000%   0.000%   0.280%   0.216%   0.178%  10.383%
    6    2.2  0.5  0.5   2.489%   1.065%   5.610%   8.715%   0.000%   0.000%   5.512%   0.444%   2.361%   2.741%
    7    3.2  0.5  0.5  36.547%   6.897%   3.306%   3.164%   0.000%   0.000%   2.544%   0.039%   0.492%   7.983%
    8    4.2  0.5  0.5   0.744%   1.467%   5.785%   9.553%   0.000%   0.000%   4.770%   4.359%   1.512%   0.416%
    9    5.2  0.5  0.5   0.010%   0.004%  29.584%  30.314%   0.000%   0.000%   3.449%   6.031%   1.136%   0.443%
   10    6.2  0.5  0.5   0.000%   0.000%   0.000%   0.000%  33.084%   0.250%   0.625%  39.583%   0.062%   0.001%
   11    7.2  0.5  0.5   0.000%   0.000%   0.000%   0.000%   0.301%  33.032%   9.949%   0.176%  30.070%   0.078%
   12    8.2  0.5  0.5   0.000%   0.000%   0.000%   0.000%   2.871%  30.462%   9.680%   0.396%  29.727%   0.470%
   13    1.2  0.5 -0.5   3.753%  47.023%   1.495%   2.473%   0.000%   0.000%   0.216%   0.280%  10.383%   0.178%
   14    2.2  0.5 -0.5   1.065%   2.489%   8.715%   5.610%   0.000%   0.000%   0.444%   5.512%   2.741%   2.361%
   15    3.2  0.5 -0.5   6.897%  36.547%   3.164%   3.306%   0.000%   0.000%   0.039%   2.544%   7.983%   0.492%
   16    4.2  0.5 -0.5   1.467%   0.744%   9.553%   5.785%   0.000%   0.000%   4.359%   4.770%   0.416%   1.512%
   17    5.2  0.5 -0.5   0.004%   0.010%  30.314%  29.584%   0.000%   0.000%   6.031%   3.449%   0.443%   1.136%
   18    6.2  0.5 -0.5   0.000%   0.000%   0.000%   0.000%   0.250%  33.084%  39.583%   0.625%   0.001%   0.062%
   19    7.2  0.5 -0.5   0.000%   0.000%   0.000%   0.000%  33.032%   0.301%   0.176%   9.949%   0.078%  30.070%
   20    8.2  0.5 -0.5   0.000%   0.000%   0.000%   0.000%  30.462%   2.871%   0.396%   9.680%   0.470%  29.727%


 Property matrices transformed in SO basis (not sym. adapted)
 ============================================================

 No matrix element <i|DMX|i> larger than 5E-7
 No matrix element <i|DMX|1> larger than 5E-7

 No matrix element <i|DMY|i> larger than 5E-7
 No matrix element <i|DMY|1> larger than 5E-7

 No matrix element <i|DMZ|i> larger than 5E-7
 No matrix element <i|DMZ|1> larger than 5E-7


 **********************************************************************************************************************************
 DATASETS  * FILE   NREC   LENGTH (MB)   RECORD NAMES
              1      24      420.50       500      610      700      900      950      970     1000      129      960     1700   
                                          VAR    BASINP    GEOM    SYMINP    ZMAT    AOBASIS   BASIS     P2S    ABASIS    OPER   
                                         1101     1401     1411     1412     1650     1100     1400     1410     1200     1210   
                                          SR      EKINR    POTR     PVPR    MOLCAS      S      EKIN      POT      H0       H01  
                                         1080     1600     1380     1700(1)
                                         AOSYM     SMH     JKOP     OPER   

              2       7      433.56       700     1000      520     2100     2140     5302     5102   
                                         GEOM     BASIS   MCVARS     RHF     MCSCF    MRCI     MRCI   

 PROGRAMS   *        TOTAL        CI     LSINT        CI        CI     MULTI   RHF-SCF       INT
 CPU TIMES  *     13688.45  12000.17    102.29   1511.59     61.96      7.01      0.14      5.03
 REAL TIME  *     13818.44 SEC
 DISK USED  *       560.92 MB (local),        8.71 GB (total)
 SF USED    *         4.29 GB
 GA USED    *         0.00 MB       (max)       0.00 MB       (current)
 **********************************************************************************************************************************

 CI/aug-cc-pWCVTZ-DK3 energy= -21534.298742104114

              CI              CI           MULTI         RHF-SCF
 -21534.33466425 -21534.41119943 -21533.76702365 -21533.84207063
 **********************************************************************************************************************************
 Molpro calculation terminated with 1 warning(s)
