
 Working directory              : /wrk/irikura/molpro.NOcWCfpeRF/
 Global scratch directory       : /wrk/irikura/molpro.NOcWCfpeRF/
 Wavefunction directory         : /home/irikura/wfu/
 Main file repository           : /wrk/irikura/molpro.NOcWCfpeRF/

 id        : nistki

 Nodes            nprocs
 pn112695.nist.gov    8
 GA implementation: MPI file
 GA implementation (serial work in mppx): MPI file

 Using customized tuning parameters: mindgm=1; mindgv=20; mindgc=4; mindgr=1; noblas=0; minvec=7
 default implementation of scratch files=sf  


 Variables initialized (1040), CPU time= 0.00 sec
 ***,I SO-CI
                                                                                 ! active space (7/7)
                                                                                 ! additional diffuse spdf functions
 memory,4000,M;
 
 gprint,orbitals,civector;
                                                                                 !gthresh,energy=1.d-10,coeff=1.d-8;
 
 symmetry,xyz
 geometry={I};
 
 basis={
 ecp,i,ECP28MDF;
 spdfg,i,aug-cc-pwCVTZ-PP;C; spdf,1,even,nprim=1,ratio=3.0;
 }
 
 {rhf;wf,charge=-1}
 
 NDOUB=12
 NQUAR=9
 
 {multi
     occ,7,9
     closed,6,3
     wf,charge=0,sym=2,spin=1;state,NDOUB; weight,3[25],(NDOUB-3)[1]
     wf,charge=0,sym=2,spin=3;state,NQUAR; weight,all,1
     expec2,lxx,lyy,lzz;
 }
 table, energy, ll
 title, Energies and &lt;L**2&gt; values
 
 core,0,0
 
 {ci;wf,sym=2,spin=1;state,NDOUB; save,5203.2}
 hlsdiag = energd4
 {ci;wf,sym=2,spin=3;state,NQUAR; save,5303.2}
 hlsdiag(NDOUB+1) = energd4
 
 table,hlsdiag
 
 {ci;hlsmat,ecp,5203.2,5303.2;print,vls=0,hls=0}                                 !compute and diagonalize SO matrix
 Commands initialized (846), CPU time= 0.00 sec, 717 directives.
 Default parameters read. Elapsed time= 0.11 sec

 Checking input...
 Passed
1


                                         ***  PROGRAM SYSTEM MOLPRO  ***
                                       Copyright, TTI GmbH Stuttgart, 2015
                                    Version 2023.2 linked Fri Sep 22 03:27:09 2023


 **********************************************************************************************************************************
 LABEL *   I SO-CI                                                                                                                                                       
  (32 PROC) 64 bit mpp version                                                           DATE: 31-Oct-24          TIME: 13:41:35  
 **********************************************************************************************************************************

 SHA1:             3c61bfe44d37c8635c785372c339f5cbdd4e4b59
 **********************************************************************************************************************************

 Memory per process:      4000 MW
 Total memory per node:  32000 MW

 GA preallocation disabled
 GA check disabled

 Variable memory set to 4000.0 MW


 ZSYMEL=XYZ

 SETTING BASIS          =    USERDEF


 Recomputing integrals since basis changed


 Using spherical harmonics

 Library entry I    ECP ECP28MDF                 selected for group  1
 Library entry I      S AUG-CC-PWCVTZ-PP     selected for orbital group  1
 Even tempered I  S diffuse               selected for group 1    nprim= 1    centre=  0.014    ratio= 3.000    dratio= 1.000
 Library entry I      P AUG-CC-PWCVTZ-PP     selected for orbital group  1
 Even tempered I  P diffuse               selected for group 1    nprim= 1    centre=  0.012    ratio= 3.000    dratio= 1.000
 Library entry I      D AUG-CC-PWCVTZ-PP     selected for orbital group  1
 Even tempered I  D diffuse               selected for group 1    nprim= 1    centre=  0.026    ratio= 3.000    dratio= 1.000
 Library entry I      F AUG-CC-PWCVTZ-PP     selected for orbital group  1
 Even tempered I  F diffuse               selected for group 1    nprim= 1    centre=  0.062    ratio= 3.000    dratio= 1.000
 Library entry I      G AUG-CC-PWCVTZ-PP     selected for orbital group  1


 PROGRAM * SEWARD (Integral evaluation for generally contracted gaussian basis sets)     Author: Roland Lindh, 1990

 Geometry written to block  1 of record 700

 Orientation using atomic masses  
 Molecule type: Atom
 User-specified symmetry elements: XYZ
 Symmetry elements: XYZ
 Rotational constants:       0.0000000      0.0000000      0.0000000 GHz  (calculated with average atomic masses)

 Point group  Ci  



 ATOMIC COORDINATES

 NR  ATOM    CHARGE       X              Y              Z

   1  I      25.00    0.000000000    0.000000000    0.000000000

 NUCLEAR CHARGE:                   25
 NUMBER OF PRIMITIVE AOS:         204
 NUMBER OF SYMMETRY AOS:          170
 NUMBER OF CONTRACTIONS:          112   (   53Ag  +   59Au  )
 NUMBER OF INNER CORE ORBITALS:     0   (    0Ag  +    0Au  )
 NUMBER OF OUTER CORE ORBITALS:     9   (    6Ag  +    3Au  )
 NUMBER OF VALENCE ORBITALS:        4   (    1Ag  +    3Au  )


 LX: Ag           LY: Ag           LZ: Ag 


 NUCLEAR REPULSION ENERGY    0.00000000

 EXTRA SYMMETRY OF AOS IN SYMMETRY 1:   1 1 1 1 1 1 1 1 1 2   3 4 5 6 2 3 4 5 6 2   3 4 5 6 2 3 4 5 6 2   3 4 5 6 2 3 4 5 6 2
                                        3 4 5 6 7 8 9101112  131415
 EXTRA SYMMETRY OF AOS IN SYMMETRY 2:   1 2 3 1 2 3 1 2 3 1   2 3 1 2 3 1 2 3 1 2   3 1 2 3 4 5 6 7 8 9  10 4 5 6 7 8 910 4 5
                                        6 7 8 910 4 5 6 7 8   910 4 5 6 7 8 910


 Eigenvalues of metric

         1 0.169E-04 0.125E-02 0.515E-02 0.515E-02 0.515E-02 0.515E-02 0.515E-02 0.549E-02
         2 0.573E-02 0.573E-02 0.573E-02 0.118E-01 0.118E-01 0.118E-01 0.908E-01 0.908E-01


 Contracted 2-electron integrals neglected if value below      1.0D-12
 AO integral compression algorithm  1   Integral accuracy      1.0D-12

     28.574 MB (compressed) written to integral file ( 17.1%)

     Node minimum: 2.097 MB, node maximum: 5.243 MB


 NUMBER OF SORTED TWO-ELECTRON INTEGRALS:    1272449.     BUFFER LENGTH:  32768
 NUMBER OF SEGMENTS:   1  SEGMENT LENGTH:    1272449      RECORD LENGTH: 524288

 Memory used in sort:       1.83 MW

 SORT1 READ    21109381. AND WROTE      252985. INTEGRALS IN      1 RECORDS. CPU TIME:     0.09 SEC, REAL TIME:     0.09 SEC
 SORT2 READ     2032599. AND WROTE    10190541. INTEGRALS IN     88 RECORDS. CPU TIME:     0.03 SEC, REAL TIME:     0.04 SEC

 Node minimum:     1271881.  Node maximum:     1277544. integrals

 OPERATOR DM      FOR CENTER  0  COORDINATES:    0.000000    0.000000    0.000000


 **********************************************************************************************************************************
 DATASETS  * FILE   NREC   LENGTH (MB)   RECORD NAMES
              1      19       28.94       500      610      700      900      950      970     1000      129      960     1100   
                                          VAR    BASINP    GEOM    SYMINP    ZMAT    AOBASIS   BASIS     P2S    ABASIS      S 
                                         1400     1410     1420     1200     1210     1080     1700     1600     1650   
                                           T        V       ECP      H0       H01     AOSYM    OPER      SMH    MOLCAS    

 PROGRAMS   *        TOTAL       INT
 CPU TIMES  *         1.20      1.02
 REAL TIME  *         3.09 SEC
 DISK USED  *        29.28 MB (local),      279.71 MB (total)
 GA USED    *         0.00 MB       (max)       0.00 MB       (current)
 **********************************************************************************************************************************


 Program * Restricted Hartree-Fock

 Orbital guess generated from atomic densities.

 Initial occupancy:   7   6

 NELEC=   26   SYM=1   MS2= 0   THRE=1.0D-08   THRD=3.2D-06   THRG=3.2D-06  HFMA2=F  DIIS_START=2   DIIS_MAX=10   DIIS_INCORE=F

 Level shifts:    0.00 (CLOSED)    0.00 (OPEN)    0.30 (GAP_MIN)

 ITER           ETOT              DE          GRAD        DDIFF     DIIS  NEXP   TIME(IT)  TIME(TOT)  DIAG
   1     -294.71863326    -294.71863326     0.00D+00     0.13D+00     0     0       0.01      0.02    start
   2     -294.74411714      -0.02548388     0.46D-02     0.13D-01     1     0       0.00      0.02    diag
   3     -294.74616668      -0.00204954     0.26D-02     0.21D-02     2     0       0.01      0.03    diag
   4     -294.74648011      -0.00031343     0.44D-03     0.85D-03     3     0       0.01      0.04    diag
   5     -294.74653920      -0.00005909     0.14D-03     0.53D-03     4     0       0.00      0.04    diag
   6     -294.74654357      -0.00000437     0.33D-04     0.18D-03     5     0       0.01      0.05    diag
   7     -294.74654371      -0.00000014     0.45D-05     0.24D-04     6     0       0.01      0.06    diag
   8     -294.74654372      -0.00000001     0.98D-06     0.95D-05     7     0       0.01      0.07    fixocc
   9     -294.74654372      -0.00000000     0.70D-07     0.30D-06     8     0       0.00      0.07    diag
  10     -294.74654372       0.00000000     0.13D-07     0.34D-07     0     0       0.01      0.08    diag/orth

 Final occupancy:   7   6

 !RHF STATE 1.1 Energy               -294.746543715315
  RHF One-electron energy            -520.925437582738
  RHF Two-electron energy             226.178893867423
  RHF Kinetic energy                  110.887384553761
  RHF Nuclear energy                    0.000000000000
  RHF Virial quotient                  -2.658071023151

 !RHF STATE 1.1 Dipole moment           0.00000000     0.00000000     0.00000000
 Dipole moment /Debye                   0.00000000     0.00000000     0.00000000

 ELECTRON ORBITALS
 =================

  Orbital  Occupation    Energy    Cen Mu Typ  Coefficients
    1.1     2.00000    -7.45092     1  1  s    1.00263
    2.1     2.00000    -2.00367     1  1  d0   0.99954
    3.1     2.00000    -2.00367     1  1  d1-  0.99567
    4.1     2.00000    -2.00367     1  1  d2- -0.29781    1  1  d1+  0.88051    1  1  d2+  0.36755
    5.1     2.00000    -2.00367     1  1  d2-  0.92759    1  1  d1+  0.35573
    6.1     2.00000    -2.00367     1  1  d1+ -0.31169    1  1  d2+  0.92185
    7.1     2.00000    -0.60771     1  2  s    0.97222
    1.2     2.00000    -5.27630     1  1  pz   0.99795
    2.2     2.00000    -5.27630     1  1  px   1.00022
    3.2     2.00000    -5.27630     1  1  py   0.99795
    4.2     2.00000    -0.12598     1  2  px   0.87696
    5.2     2.00000    -0.12598     1  2  py   0.87696
    6.2     2.00000    -0.12598     1  2  pz   0.87696


 HOMO      6.2    -0.125977 =      -3.4280eV
 LUMO      7.2     0.121193 =       3.2978eV
 LUMO-HOMO         0.247170 =       6.7258eV

 Orbitals saved in record  2100.2


 **********************************************************************************************************************************
 DATASETS  * FILE   NREC   LENGTH (MB)   RECORD NAMES
              1      19       28.94       500      610      700      900      950      970     1000      129      960     1100   
                                          VAR    BASINP    GEOM    SYMINP    ZMAT    AOBASIS   BASIS     P2S    ABASIS      S 
                                         1400     1410     1420     1200     1210     1080     1700     1600     1650   
                                           T        V       ECP      H0       H01     AOSYM    OPER      SMH    MOLCAS    

              2       4        0.48       700     1000      520     2100   
                                         GEOM     BASIS   MCVARS     RHF  

 PROGRAMS   *        TOTAL   RHF-SCF       INT
 CPU TIMES  *         1.31      0.11      1.02
 REAL TIME  *         3.79 SEC
 DISK USED  *        29.93 MB (local),      284.87 MB (total)
 GA USED    *         0.00 MB       (max)       0.00 MB       (current)
 **********************************************************************************************************************************
 SETTING NDOUB          =        12.00000000                                  
 SETTING NQUAR          =         9.00000000                                  

 PROGRAM * MULTI (Direct Multiconfiguration SCF)       Authors: P.J. Knowles, H.-J. Werner (1984)
                                                                D.A. Kreplin, P.J. Knowles, H.-J. Werner (2019)

 Number of closed-shell orbitals:   9 (    6    3)
 Number of active  orbitals:        7 (    1    6)
 Number of external orbitals:      96 (   46   50)

 State symmetry 1

 Number of active electrons:   7    Spin symmetry=Doublet   Space symmetry=2
 Number of states:            12
 Number of CSFs:             420   (600 determinants, 1225 intermediate states)

 State symmetry 2

 Number of active electrons:   7    Spin symmetry=Quartet   Space symmetry=2
 Number of states:             9
 Number of CSFs:             168   (180 determinants, 441 intermediate states)

 Molecular orbitals read from record     2100.2  Type=RHF/CANONICAL  
 *** IN SYMMETRY 1 ORBITAL  2 SYMMETRY CONTAMINATION OF 0.529D-04 HAS BEEN REMOVED
 *** IN SYMMETRY 1 ORBITAL  3 SYMMETRY CONTAMINATION OF 0.118D+00 HAS BEEN REMOVED
 *** IN SYMMETRY 1 ORBITAL  4 SYMMETRY CONTAMINATION OF 0.431D+00 HAS BEEN REMOVED
 *** IN SYMMETRY 1 ORBITAL  5 SYMMETRY CONTAMINATION OF 0.351D+00 HAS BEEN REMOVED
 *** IN SYMMETRY 1 ORBITAL  6 SYMMETRY CONTAMINATION OF 0.395D+00 HAS BEEN REMOVED

 EXTRA SYMMETRY OF MOS IN SYMMETRY 1:   1 2 6 4 3 5 1 1 2 3   5 4 6 1 2 3 5 4 6 1   2 3 5 4 6 1 2 5 3 4   6 2 3 5 4 6 8121514
                                        7 9111310 1 2 5 3 4   6 1 1
 *** IN SYMMETRY 2 ORBITAL  1 SYMMETRY CONTAMINATION OF 0.632D-01 HAS BEEN REMOVED
 *** IN SYMMETRY 2 ORBITAL  3 SYMMETRY CONTAMINATION OF 0.632D-01 HAS BEEN REMOVED
 *** IN SYMMETRY 2 ORBITAL  4 SYMMETRY CONTAMINATION OF 0.330D-04 HAS BEEN REMOVED
 *** IN SYMMETRY 2 ORBITAL  5 SYMMETRY CONTAMINATION OF 0.507D-04 HAS BEEN REMOVED
 *** IN SYMMETRY 2 ORBITAL  6 SYMMETRY CONTAMINATION OF 0.674D-04 HAS BEEN REMOVED
 *** IN SYMMETRY 2 ORBITAL  7 SYMMETRY CONTAMINATION OF 0.101D-03 HAS BEEN REMOVED
 *** IN SYMMETRY 2 ORBITAL  8 SYMMETRY CONTAMINATION OF 0.110D-03 HAS BEEN REMOVED
 *** IN SYMMETRY 2 ORBITAL  9 SYMMETRY CONTAMINATION OF 0.184D-04 HAS BEEN REMOVED
 EXTRA SYMMETRY OF MOS IN SYMMETRY 2:   3 1 2 1 2 3 3 2 1 3   2 110 8 6 5 4 7 9 1   2 3 810 6 4 5 7 9 6   4 5 7 9 810 3 1 2 7
                                        9 6 4 5 810 1 2 3 6   7 9 4 5 810 2 1 3

 Wavefunction dump at record             2140.2

 Convergence thresholds  0.10E-04 (gradient)  0.10E-05 (energy)

 Weight factors for state symmetry  1:    0.26882   0.26882   0.26882   0.01075   0.01075   0.01075   0.01075   0.01075
                                          0.01075   0.01075   0.01075   0.01075
 Weight factors for state symmetry  2:    0.01075   0.01075   0.01075   0.01075   0.01075   0.01075   0.01075   0.01075
                                          0.01075
 
 Number of orbital rotations:  796  ( 24 closed/active, 426 closed/virtual, 0 active/active, 346 active/virtual )
 Total number of variables:    9616
 
 Second-order MCSCF: L-BFGS accelerated
 
 ITER  MIC  NCI  NEG     ENERGY(VAR)    ENERGY(PROJ) ENERGY CHANGE       GRAD(0)  GRAD(ORB)   GRAD(CI)      STEP      TIME
   1   12   33    0   -294.55121912    -294.61658243   -0.06536331    0.27036836 0.00075040 0.00236842  0.10E+01      1.71
   2    8   25    0   -294.59408995    -294.60031677   -0.00622682    0.21525728 0.00039613 0.00062286  0.33E+00      3.24
   3    7   21    0   -294.60036961    -294.60037110   -0.00000149    0.00227344 0.00000313 0.00000467  0.95E-02      4.63
   4    4   11    0   -294.60037110    -294.60037110   -0.00000000    0.00000064 0.00000001 0.00000003  0.15E-05      5.53

 CONVERGENCE REACHED!  Final gradient:    0.00000002 ( 0.22E-07)
                       Final energy:   -294.60037110
 
 Results for state 1.2 Doublet
 =============================
 !MCSCF STATE 1.2 Doublet Energy              -294.656302216936
 Nuclear energy                                  0.00000000
 Kinetic energy                                110.88926434
 One electron energy                          -513.86037023
 Two electron energy                           219.20406801
 Virial ratio                                    3.65721217
 
 !MCSCF STATE 1.2 Doublet Dipole moment          0.00000000     0.00000000     0.00000000
 Dipole moment /Debye                            0.00000000     0.00000000     0.00000000
 
 Results for state 2.2 Doublet
 =============================
 !MCSCF STATE 2.2 Doublet Energy              -294.656302216927
 Nuclear energy                                  0.00000000
 Kinetic energy                                110.88926434
 One electron energy                          -513.86037023
 Two electron energy                           219.20406802
 Virial ratio                                    3.65721217
 
 !MCSCF STATE 2.2 Doublet Dipole moment          0.00000000     0.00000000     0.00000000
 Dipole moment /Debye                            0.00000000     0.00000000     0.00000000
 
 Results for state 3.2 Doublet
 =============================
 !MCSCF STATE 3.2 Doublet Energy              -294.656302216927
 Nuclear energy                                  0.00000000
 Kinetic energy                                110.88926434
 One electron energy                          -513.86037023
 Two electron energy                           219.20406802
 Virial ratio                                    3.65721217
 
 !MCSCF STATE 3.2 Doublet Dipole moment          0.00000000     0.00000000     0.00000000
 Dipole moment /Debye                            0.00000000     0.00000000     0.00000000
 
 Results for state 4.2 Doublet
 =============================
 !MCSCF STATE 4.2 Doublet Energy              -294.366233504261
 Nuclear energy                                  0.00000000
 Kinetic energy                                110.19869953
 One electron energy                          -507.66430684
 Two electron energy                           213.29807334
 Virial ratio                                    3.67123146
 
 !MCSCF STATE 4.2 Doublet Dipole moment          0.00000000     0.00000000     0.00000000
 Dipole moment /Debye                            0.00000000     0.00000000     0.00000000
 
 Results for state 5.2 Doublet
 =============================
 !MCSCF STATE 5.2 Doublet Energy              -294.366233504231
 Nuclear energy                                  0.00000000
 Kinetic energy                                110.19869953
 One electron energy                          -507.66430684
 Two electron energy                           213.29807334
 Virial ratio                                    3.67123146
 
 !MCSCF STATE 5.2 Doublet Dipole moment          0.00000000     0.00000000     0.00000000
 Dipole moment /Debye                            0.00000000     0.00000000     0.00000000
 
 Results for state 6.2 Doublet
 =============================
 !MCSCF STATE 6.2 Doublet Energy              -294.366233504210
 Nuclear energy                                  0.00000000
 Kinetic energy                                110.19869953
 One electron energy                          -507.66430684
 Two electron energy                           213.29807334
 Virial ratio                                    3.67123146
 
 !MCSCF STATE 6.2 Doublet Dipole moment          0.00000000     0.00000000     0.00000000
 Dipole moment /Debye                            0.00000000     0.00000000     0.00000000
 
 Results for state 7.2 Doublet
 =============================
 !MCSCF STATE 7.2 Doublet Energy              -294.366233504112
 Nuclear energy                                  0.00000000
 Kinetic energy                                110.19869953
 One electron energy                          -507.66430685
 Two electron energy                           213.29807335
 Virial ratio                                    3.67123146
 
 !MCSCF STATE 7.2 Doublet Dipole moment          0.00000000     0.00000000     0.00000000
 Dipole moment /Debye                            0.00000000     0.00000000     0.00000000
 
 Results for state 8.2 Doublet
 =============================
 !MCSCF STATE 8.2 Doublet Energy              -294.366233504110
 Nuclear energy                                  0.00000000
 Kinetic energy                                110.19869953
 One electron energy                          -507.66430685
 Two electron energy                           213.29807335
 Virial ratio                                    3.67123146
 
 !MCSCF STATE 8.2 Doublet Dipole moment          0.00000000     0.00000000     0.00000000
 Dipole moment /Debye                            0.00000000     0.00000000     0.00000000
 
 Results for state 9.2 Doublet
 =============================
 !MCSCF STATE 9.2 Doublet Energy              -294.359907871645
 Nuclear energy                                  0.00000000
 Kinetic energy                                110.25451355
 One electron energy                          -507.88870717
 Two electron energy                           213.52879930
 Virial ratio                                    3.66982184
 
 !MCSCF STATE 9.2 Doublet Dipole moment          0.00000000     0.00000000     0.00000000
 Dipole moment /Debye                            0.00000000     0.00000000     0.00000000
 
 Results for state 10.2 Doublet
 ==============================
 !MCSCF STATE 10.2 Doublet Energy             -294.359907871614
 Nuclear energy                                  0.00000000
 Kinetic energy                                110.25451355
 One electron energy                          -507.88870717
 Two electron energy                           213.52879930
 Virial ratio                                    3.66982184
 
 !MCSCF STATE 10.2 Doublet Dipole moment         0.00000000     0.00000000     0.00000000
 Dipole moment /Debye                            0.00000000     0.00000000     0.00000000
 
 Results for state 11.2 Doublet
 ==============================
 !MCSCF STATE 11.2 Doublet Energy             -294.359907871488
 Nuclear energy                                  0.00000000
 Kinetic energy                                110.25451355
 One electron energy                          -507.88870718
 Two electron energy                           213.52879931
 Virial ratio                                    3.66982184
 
 !MCSCF STATE 11.2 Doublet Dipole moment         0.00000000     0.00000000     0.00000000
 Dipole moment /Debye                            0.00000000     0.00000000     0.00000000
 
 Results for state 12.2 Doublet
 ==============================
 !MCSCF STATE 12.2 Doublet Energy             -294.358781180287
 Nuclear energy                                  0.00000000
 Kinetic energy                                110.19483737
 One electron energy                          -507.65302192
 Two electron energy                           213.29424074
 Virial ratio                                    3.67125746
 
 !MCSCF STATE 12.2 Doublet Dipole moment         0.00000000     0.00000000     0.00000000
 Dipole moment /Debye                            0.00000000     0.00000000     0.00000000
 
 Results for state 1.2 Quartet
 =============================
 !MCSCF STATE 1.2 Quartet Energy              -294.377615859619
 Nuclear energy                                  0.00000000
 Kinetic energy                                110.17153808
 One electron energy                          -507.57618458
 Two electron energy                           213.19856872
 Virial ratio                                    3.67199334
 
 !MCSCF STATE 1.2 Quartet Dipole moment          0.00000000     0.00000000     0.00000000
 Dipole moment /Debye                            0.00000000     0.00000000     0.00000000
 
 Results for state 2.2 Quartet
 =============================
 !MCSCF STATE 2.2 Quartet Energy              -294.377615859610
 Nuclear energy                                  0.00000000
 Kinetic energy                                110.17153808
 One electron energy                          -507.57618459
 Two electron energy                           213.19856873
 Virial ratio                                    3.67199334
 
 !MCSCF STATE 2.2 Quartet Dipole moment          0.00000000     0.00000000     0.00000000
 Dipole moment /Debye                            0.00000000     0.00000000     0.00000000
 
 Results for state 3.2 Quartet
 =============================
 !MCSCF STATE 3.2 Quartet Energy              -294.377615859559
 Nuclear energy                                  0.00000000
 Kinetic energy                                110.17153808
 One electron energy                          -507.57618459
 Two electron energy                           213.19856873
 Virial ratio                                    3.67199334
 
 !MCSCF STATE 3.2 Quartet Dipole moment          0.00000000     0.00000000     0.00000000
 Dipole moment /Debye                            0.00000000     0.00000000     0.00000000
 
 Results for state 4.2 Quartet
 =============================
 !MCSCF STATE 4.2 Quartet Energy              -294.370024946094
 Nuclear energy                                  0.00000000
 Kinetic energy                                110.18138847
 One electron energy                          -507.60917249
 Two electron energy                           213.23914754
 Virial ratio                                    3.67168556
 
 !MCSCF STATE 4.2 Quartet Dipole moment          0.00000000     0.00000000     0.00000000
 Dipole moment /Debye                            0.00000000     0.00000000     0.00000000
 
 Results for state 5.2 Quartet
 =============================
 !MCSCF STATE 5.2 Quartet Energy              -294.370024946072
 Nuclear energy                                  0.00000000
 Kinetic energy                                110.18138847
 One electron energy                          -507.60917249
 Two electron energy                           213.23914754
 Virial ratio                                    3.67168556
 
 !MCSCF STATE 5.2 Quartet Dipole moment          0.00000000     0.00000000     0.00000000
 Dipole moment /Debye                            0.00000000     0.00000000     0.00000000
 
 Results for state 6.2 Quartet
 =============================
 !MCSCF STATE 6.2 Quartet Energy              -294.370024946057
 Nuclear energy                                  0.00000000
 Kinetic energy                                110.18138848
 One electron energy                          -507.60917249
 Two electron energy                           213.23914755
 Virial ratio                                    3.67168556
 
 !MCSCF STATE 6.2 Quartet Dipole moment          0.00000000     0.00000000     0.00000000
 Dipole moment /Debye                            0.00000000     0.00000000     0.00000000
 
 Results for state 7.2 Quartet
 =============================
 !MCSCF STATE 7.2 Quartet Energy              -294.370024945978
 Nuclear energy                                  0.00000000
 Kinetic energy                                110.18138848
 One electron energy                          -507.60917250
 Two electron energy                           213.23914755
 Virial ratio                                    3.67168556
 
 !MCSCF STATE 7.2 Quartet Dipole moment          0.00000000     0.00000000     0.00000000
 Dipole moment /Debye                            0.00000000     0.00000000     0.00000000
 
 Results for state 8.2 Quartet
 =============================
 !MCSCF STATE 8.2 Quartet Energy              -294.370024945977
 Nuclear energy                                  0.00000000
 Kinetic energy                                110.18138848
 One electron energy                          -507.60917250
 Two electron energy                           213.23914755
 Virial ratio                                    3.67168556
 
 !MCSCF STATE 8.2 Quartet Dipole moment          0.00000000     0.00000000     0.00000000
 Dipole moment /Debye                            0.00000000     0.00000000     0.00000000
 
 Results for state 9.2 Quartet
 =============================
 !MCSCF STATE 9.2 Quartet Energy              -294.359201703518
 Nuclear energy                                  0.00000000
 Kinetic energy                                110.19065410
 One electron energy                          -507.63753891
 Two electron energy                           213.27833720
 Virial ratio                                    3.67136269
 
 !MCSCF STATE 9.2 Quartet Dipole moment          0.00000000     0.00000000     0.00000000
 Dipole moment /Debye                            0.00000000     0.00000000     0.00000000
 
 State-averaged charge density matrix saved on record 2140.2 (density set 1)
 
 No non-zero expectation values
 
 Expectation values for two-electron operators:
 
 ? Warning
 ? Transition properties are only calculated between states of the same symmetry
 ? The problem occurs in mu_properties_expec2

 !MCSCF expec      <1.2 Doublet|LXLX|1.2 Doublet>     0.000003003833
 !MCSCF expec      <2.2 Doublet|LXLX|2.2 Doublet>     0.999999412397
 !MCSCF expec      <3.2 Doublet|LXLX|3.2 Doublet>     0.999997583770
 !MCSCF expec      <4.2 Doublet|LXLX|4.2 Doublet>     0.026574832982
 !MCSCF expec      <5.2 Doublet|LXLX|5.2 Doublet>     1.000000004114
 !MCSCF expec      <6.2 Doublet|LXLX|6.2 Doublet>     1.000000002008
 !MCSCF expec      <7.2 Doublet|LXLX|7.2 Doublet>     3.973425304357
 !MCSCF expec      <8.2 Doublet|LXLX|8.2 Doublet>     3.999999856579
 !MCSCF expec      <9.2 Doublet|LXLX|9.2 Doublet>     0.999999999736
 !MCSCF expec    <10.2 Doublet|LXLX|10.2 Doublet>     0.999999986739
 !MCSCF expec    <11.2 Doublet|LXLX|11.2 Doublet>     0.000000013522
 !MCSCF expec    <12.2 Doublet|LXLX|12.2 Doublet>    -0.000000000003
 !MCSCF expec      <1.2 Quartet|LXLX|1.2 Quartet>     0.999999999994
 !MCSCF expec      <2.2 Quartet|LXLX|2.2 Quartet>     0.999999999741
 !MCSCF expec      <3.2 Quartet|LXLX|3.2 Quartet>    -0.000000000006
 !MCSCF expec      <4.2 Quartet|LXLX|4.2 Quartet>     0.022276153914
 !MCSCF expec      <5.2 Quartet|LXLX|5.2 Quartet>     1.000000000148
 !MCSCF expec      <6.2 Quartet|LXLX|6.2 Quartet>     1.000000000438
 !MCSCF expec      <7.2 Quartet|LXLX|7.2 Quartet>     4.000000000018
 !MCSCF expec      <8.2 Quartet|LXLX|8.2 Quartet>     3.977733501893
 !MCSCF expec      <9.2 Quartet|LXLX|9.2 Quartet>    -0.000000000003
 
 !MCSCF expec      <1.2 Doublet|LYLY|1.2 Doublet>     0.999999564265
 !MCSCF expec      <2.2 Doublet|LYLY|2.2 Doublet>     0.004538211325
 !MCSCF expec      <3.2 Doublet|LYLY|3.2 Doublet>     0.995462224408
 !MCSCF expec      <4.2 Doublet|LYLY|4.2 Doublet>     3.268128325694
 !MCSCF expec      <5.2 Doublet|LYLY|5.2 Doublet>     3.999998765596
 !MCSCF expec      <6.2 Doublet|LYLY|6.2 Doublet>     1.000001237430
 !MCSCF expec      <7.2 Doublet|LYLY|7.2 Doublet>     0.731873246115
 !MCSCF expec      <8.2 Doublet|LYLY|8.2 Doublet>     0.999998425206
 !MCSCF expec      <9.2 Doublet|LYLY|9.2 Doublet>     0.000000002620
 !MCSCF expec    <10.2 Doublet|LYLY|10.2 Doublet>     0.999999997641
 !MCSCF expec    <11.2 Doublet|LYLY|11.2 Doublet>     0.999999999736
 !MCSCF expec    <12.2 Doublet|LYLY|12.2 Doublet>    -0.000000000003
 !MCSCF expec      <1.2 Quartet|LYLY|1.2 Quartet>     0.000000017805
 !MCSCF expec      <2.2 Quartet|LYLY|2.2 Quartet>     0.999999977464
 !MCSCF expec      <3.2 Quartet|LYLY|3.2 Quartet>     1.000000000003
 !MCSCF expec      <4.2 Quartet|LYLY|4.2 Quartet>     3.246653100805
 !MCSCF expec      <5.2 Quartet|LYLY|5.2 Quartet>     3.999994943895
 !MCSCF expec      <6.2 Quartet|LYLY|6.2 Quartet>     1.000005338100
 !MCSCF expec      <7.2 Quartet|LYLY|7.2 Quartet>     1.000000000003
 !MCSCF expec      <8.2 Quartet|LYLY|8.2 Quartet>     0.753397636260
 !MCSCF expec      <9.2 Quartet|LYLY|9.2 Quartet>    -0.000000000003
 
 !MCSCF expec      <1.2 Doublet|LZLZ|1.2 Doublet>     0.999997431901
 !MCSCF expec      <2.2 Doublet|LZLZ|2.2 Doublet>     0.995462376277
 !MCSCF expec      <3.2 Doublet|LZLZ|3.2 Doublet>     0.004540191821
 !MCSCF expec      <4.2 Doublet|LZLZ|4.2 Doublet>     2.705296841349
 !MCSCF expec      <5.2 Doublet|LZLZ|5.2 Doublet>     1.000001230314
 !MCSCF expec      <6.2 Doublet|LZLZ|6.2 Doublet>     3.999998760587
 !MCSCF expec      <7.2 Doublet|LZLZ|7.2 Doublet>     1.294701449552
 !MCSCF expec      <8.2 Doublet|LZLZ|8.2 Doublet>     1.000001718240
 !MCSCF expec      <9.2 Doublet|LZLZ|9.2 Doublet>     0.999999997641
 !MCSCF expec    <10.2 Doublet|LZLZ|10.2 Doublet>     0.000000015617
 !MCSCF expec    <11.2 Doublet|LZLZ|11.2 Doublet>     0.999999986739
 !MCSCF expec    <12.2 Doublet|LZLZ|12.2 Doublet>    -0.000000000003
 !MCSCF expec      <1.2 Quartet|LZLZ|1.2 Quartet>     0.999999982202
 !MCSCF expec      <2.2 Quartet|LZLZ|2.2 Quartet>     0.000000022797
 !MCSCF expec      <3.2 Quartet|LZLZ|3.2 Quartet>     1.000000000003
 !MCSCF expec      <4.2 Quartet|LZLZ|4.2 Quartet>     2.731070745306
 !MCSCF expec      <5.2 Quartet|LZLZ|5.2 Quartet>     1.000005055982
 !MCSCF expec      <6.2 Quartet|LZLZ|6.2 Quartet>     3.999994661487
 !MCSCF expec      <7.2 Quartet|LZLZ|7.2 Quartet>     1.000000000003
 !MCSCF expec      <8.2 Quartet|LZLZ|8.2 Quartet>     1.268868861872
 !MCSCF expec      <9.2 Quartet|LZLZ|9.2 Quartet>    -0.000000000003
 
 !MCSCF expec      <1.2 Doublet|L**2|1.2 Doublet>     1.999999999999
 !MCSCF expec      <2.2 Doublet|L**2|2.2 Doublet>     1.999999999999
 !MCSCF expec      <3.2 Doublet|L**2|3.2 Doublet>     1.999999999999
 !MCSCF expec      <4.2 Doublet|L**2|4.2 Doublet>     6.000000000025
 !MCSCF expec      <5.2 Doublet|L**2|5.2 Doublet>     6.000000000025
 !MCSCF expec      <6.2 Doublet|L**2|6.2 Doublet>     6.000000000025
 !MCSCF expec      <7.2 Doublet|L**2|7.2 Doublet>     6.000000000025
 !MCSCF expec      <8.2 Doublet|L**2|8.2 Doublet>     6.000000000025
 !MCSCF expec      <9.2 Doublet|L**2|9.2 Doublet>     1.999999999997
 !MCSCF expec    <10.2 Doublet|L**2|10.2 Doublet>     1.999999999997
 !MCSCF expec    <11.2 Doublet|L**2|11.2 Doublet>     1.999999999997
 !MCSCF expec    <12.2 Doublet|L**2|12.2 Doublet>    -0.000000000010
 !MCSCF expec      <1.2 Quartet|L**2|1.2 Quartet>     2.000000000001
 !MCSCF expec      <2.2 Quartet|L**2|2.2 Quartet>     2.000000000001
 !MCSCF expec      <3.2 Quartet|L**2|3.2 Quartet>     2.000000000001
 !MCSCF expec      <4.2 Quartet|L**2|4.2 Quartet>     6.000000000025
 !MCSCF expec      <5.2 Quartet|L**2|5.2 Quartet>     6.000000000025
 !MCSCF expec      <6.2 Quartet|L**2|6.2 Quartet>     6.000000000025
 !MCSCF expec      <7.2 Quartet|L**2|7.2 Quartet>     6.000000000025
 !MCSCF expec      <8.2 Quartet|L**2|8.2 Quartet>     6.000000000025
 !MCSCF expec      <9.2 Quartet|L**2|9.2 Quartet>    -0.000000000010
 
 EXTRA SYMMETRY OF MOS IN SYMMETRY 1:   1 3 5 6 4 2 1 1 3 5   6 4 2 1 3 5 6 4 2 1   3 5 6 4 2 1 5 3 6 4   2 3 5 6 4 213101415
                                        81211 7 9 1 5 3 6 4   2 1 1
 EXTRA SYMMETRY OF MOS IN SYMMETRY 2:   2 1 3 3 1 2 3 1 2 2   1 3 9 7 810 5 6 4 2   1 3 7 9 810 5 6 4 7   9 810 5 6 4 2 1 3 9
                                        7 810 5 6 4 2 1 3 9   7 810 5 6 4 2 1 3
 
  NATURAL ORBITALS (STATE AVERAGED)
  =================================

  Orbital  Occupation    Energy    Cen Mu Typ  Coefficients
    1.1     2.00000    -7.78684     1  1  s    1.00178
    2.1     2.00000    -2.33899     1  1  d2-  1.00028
    3.1     2.00000    -2.33899     1  1  d2+  1.00028
    4.1     2.00000    -2.33899     1  1  d1-  1.00028
    5.1     2.00000    -2.33899     1  1  d1+  1.00028
    6.1     2.00000    -2.33899     1  1  d0   1.00028
    7.1     1.99963    -0.90848     1  2  s    1.01398
    1.2     2.00000    -5.61157     1  1  py   0.99980
    2.2     2.00000    -5.61157     1  1  px   0.99980
    3.2     2.00000    -5.61157     1  1  pz   0.99980
    4.2     1.60030    -0.36437     1  2  pz   1.02108
    5.2     1.60030    -0.36437     1  2  px   1.02108
    6.2     1.60030    -0.36437     1  2  py   1.02108
    7.2     0.06649     0.06387     1  2  pz  -0.48071    1  7  pz   0.62703    1  8  pz   0.55406
    8.2     0.06649     0.06387     1  2  px  -0.48071    1  7  px   0.62703    1  8  px   0.55406
    9.2     0.06649     0.06387     1  2  py  -0.48071    1  7  py   0.62703    1  8  py   0.55406
 
 Natural orbital dump (state averaged) at molpro section 2140.2 (Orbital set 2)
 
 Transform the CI vectors
 
 CI Coefficients of symmetry 2 (Doublet)
 =======================================

 State:              1               2               3               4               5               6               7
 2 2a2000       0.99848677      0.00076539      0.00155207     -0.00000000      0.00000000     -0.00000000      0.00000000
 2 22a000      -0.00065910      0.99622002     -0.06726118     -0.00000000      0.00000000     -0.00000000      0.00000000
 2 a22000      -0.00160011      0.06726005      0.99621903     -0.00000000     -0.00000000     -0.00000000      0.00000000
 2 a2a0b0      -0.00000000     -0.00000000     -0.00000000      0.65927566      0.00001822     -0.00002349      0.05391612
 2 aa200b      -0.00000000      0.00000000      0.00000000      0.28294497     -0.00000455      0.00000616      0.59790567
 2 aa20b0      -0.00003523      0.00148092      0.02193455     -0.00002172     -0.00036697     -0.57285547      0.00001616
 2 2aa0b0       0.00001451     -0.02193458      0.00148094     -0.00001685      0.57285547     -0.00036697      0.00001229
 2 a2ab00       0.00001451     -0.02193457      0.00148094      0.00001685     -0.57285545      0.00036696     -0.00001229
 2 a2a00b      -0.00003523      0.00148092      0.02193456      0.00002172      0.00036697      0.57285545     -0.00001616
 2 aa2b00      -0.02198448     -0.00001685     -0.00003417      0.00001198     -0.00001860      0.00000607     -0.00146095
 2 2aa00b       0.02198449      0.00001685      0.00003417      0.00001198     -0.00001860      0.00000607     -0.00146095
 2 2aab00      -0.00000000     -0.00000000     -0.00000000      0.37633067      0.00002277     -0.00002965     -0.54398955
 2 a2ba00      -0.00000850      0.01285164     -0.00086770     -0.00000861      0.29278853     -0.00018756      0.00000628
 2 b2a00a       0.00002064     -0.00086768     -0.01285162     -0.00001110     -0.00018756     -0.29278853      0.00000826
 2 2ba00a      -0.01288088     -0.00000987     -0.00002002     -0.00000612      0.00000951     -0.00000310      0.00074670
 2 ab2a00       0.01288088      0.00000987      0.00002002     -0.00000612      0.00000951     -0.00000310      0.00074670
 2 2ab0a0      -0.00000850      0.01285164     -0.00086770      0.00000861     -0.29278854      0.00018756     -0.00000628
 2 ba20a0       0.00002064     -0.00086768     -0.01285162      0.00001110      0.00018756      0.29278854     -0.00000826
 2 a2b0a0       0.00000000      0.00000000      0.00000000     -0.33067476     -0.00000941      0.00001214     -0.01427882
 2 b2a0a0       0.00000000      0.00000000      0.00000000     -0.32860091     -0.00000880      0.00001135     -0.03963730
 2 ab200a       0.00000000     -0.00000000     -0.00000000     -0.12997345      0.00000273     -0.00000367     -0.30439445
 2 ba200a       0.00000000     -0.00000000     -0.00000000     -0.15297152      0.00000182     -0.00000249     -0.29351122
 2 ab20a0       0.00001459     -0.00061324     -0.00908293      0.00001062      0.00017941      0.28006693     -0.00000790
 2 2ba0a0      -0.00000601      0.00908294     -0.00061325      0.00000824     -0.28006693      0.00017941     -0.00000601
 2 b2aa00      -0.00000601      0.00908294     -0.00061325     -0.00000824      0.28006693     -0.00017941      0.00000601
 2 a2b00a       0.00001459     -0.00061324     -0.00908293     -0.00001062     -0.00017941     -0.28006693      0.00000790
 2 ba2a00       0.00910361      0.00000698      0.00001415     -0.00000586      0.00000909     -0.00000297      0.00071425
 2 2ab00a      -0.00910361     -0.00000698     -0.00001415     -0.00000586      0.00000909     -0.00000297      0.00071425
 2 2baa00       0.00000000     -0.00000000      0.00000000     -0.17770322     -0.00001123      0.00001463      0.27923239
 2 2aba00       0.00000000      0.00000000      0.00000000     -0.19862745     -0.00001154      0.00001502      0.26475716
 2 22000a       0.00000629     -0.00950907      0.00064202     -0.00000000      0.00000000      0.00000000     -0.00000000
 2 2020a0      -0.00953071     -0.00000731     -0.00001481      0.00000000      0.00000000      0.00000000     -0.00000000
 2 022a00       0.00001527     -0.00064201     -0.00950906      0.00000000     -0.00000000      0.00000000      0.00000000
 2 a02020       0.00002262     -0.00095093     -0.01408472      0.00000235      0.00003968      0.06194304     -0.00000175
 2 20a020       0.00000932     -0.01408474      0.00095095     -0.00000182      0.06194304     -0.00003968      0.00000133
 2 02a200       0.00000932     -0.01408474      0.00095095      0.00000182     -0.06194304      0.00003968     -0.00000133
 2 a20002       0.00002262     -0.00095093     -0.01408472     -0.00000235     -0.00003968     -0.06194304      0.00000175
 2 0a2200      -0.01411678     -0.00001082     -0.00002194      0.00000130     -0.00000201      0.00000066     -0.00015797
 2 2a0002      -0.01411678     -0.00001082     -0.00002194     -0.00000130      0.00000201     -0.00000066      0.00015797
 
 Energy:     -294.65630222   -294.65630222   -294.65630222   -294.36623350   -294.36623350   -294.36623350   -294.36623350

 State:              8               9              10              11              12
 2 2a2000      -0.00000000      0.00000067     -0.00000473     -0.04103889      0.00000000
 2 22a000       0.00000000      0.04103889      0.00000199      0.00000067      0.00000000
 2 a22000      -0.00000000      0.00000199     -0.04103889      0.00000473     -0.00000000
 2 a2a0b0       0.00012372      0.00000000     -0.00000000     -0.00000000     -0.46808115
 2 aa200b       0.00151892     -0.00000000      0.00000000     -0.00000000      0.46808117
 2 aa20b0       0.00000610     -0.00002577      0.53045286     -0.00006109     -0.00000000
 2 2aa0b0       0.00001864      0.53045286      0.00002577      0.00000863      0.00000000
 2 a2ab00      -0.00001864      0.53045288      0.00002577      0.00000863      0.00000000
 2 a2a00b      -0.00000610     -0.00002577      0.53045288     -0.00006109     -0.00000000
 2 aa2b00       0.57285372      0.00000864     -0.00006109     -0.53045287     -0.00000000
 2 2aa00b       0.57285371     -0.00000864      0.00006109      0.53045287      0.00000000
 2 2aab00      -0.00139521     -0.00000000     -0.00000000     -0.00000000      0.46808117
 2 a2ba00       0.00000953     -0.40658829     -0.00001975     -0.00000662     -0.00000000
 2 b2a00a       0.00000312      0.00001975     -0.40658829      0.00004682      0.00000000
 2 2ba00a      -0.29278764      0.00000662     -0.00004682     -0.40658828     -0.00000000
 2 ab2a00      -0.29278764     -0.00000662      0.00004682      0.40658828      0.00000000
 2 2ab0a0      -0.00000953     -0.40658828     -0.00001975     -0.00000662     -0.00000000
 2 ba20a0      -0.00000312      0.00001975     -0.40658828      0.00004682      0.00000000
 2 a2b0a0      -0.00002950     -0.00000000      0.00000000      0.00000000      0.23404058
 2 b2a0a0      -0.00009422     -0.00000000      0.00000000      0.00000000      0.23404058
 2 ab200a      -0.00077358      0.00000000     -0.00000000      0.00000000     -0.23404058
 2 ba200a      -0.00074534      0.00000000     -0.00000000      0.00000000     -0.23404058
 2 ab20a0      -0.00000298      0.00000602     -0.12386458      0.00001426      0.00000000
 2 2ba0a0      -0.00000911     -0.12386458     -0.00000602     -0.00000202     -0.00000000
 2 b2aa00       0.00000911     -0.12386459     -0.00000602     -0.00000202     -0.00000000
 2 a2b00a       0.00000298      0.00000602     -0.12386459      0.00001426      0.00000000
 2 ba2a00      -0.28006608     -0.00000202      0.00001426      0.12386459      0.00000000
 2 2ab00a      -0.28006607      0.00000202     -0.00001426     -0.12386459     -0.00000000
 2 2baa00       0.00071584      0.00000000      0.00000000      0.00000000     -0.23404058
 2 2aba00       0.00067936      0.00000000      0.00000000      0.00000000     -0.23404058
 2 22000a       0.00000000      0.23430107      0.00001138      0.00000381     -0.00000000
 2 2020a0       0.00000000      0.00000381     -0.00002698     -0.23430107      0.00000000
 2 022a00      -0.00000000      0.00001138     -0.23430107      0.00002698     -0.00000000
 2 a02020      -0.00000066      0.00000232     -0.04774858      0.00000550      0.00000000
 2 20a020       0.00000202      0.04774858      0.00000232      0.00000078      0.00000000
 2 02a200      -0.00000202      0.04774858      0.00000232      0.00000078      0.00000000
 2 a20002       0.00000066      0.00000232     -0.04774858      0.00000550      0.00000000
 2 0a2200       0.06194286      0.00000078     -0.00000550     -0.04774858     -0.00000000
 2 2a0002      -0.06194285      0.00000078     -0.00000550     -0.04774858     -0.00000000
 
 Energy:     -294.36623350   -294.35990787   -294.35990787   -294.35990787   -294.35878118
 
 
 CI Coefficients of symmetry 2 (Quartet)
 =======================================

 State:              1               2               3               4               5               6               7
 2 a2a0a0       0.00000000     -0.00000000      0.00000000      0.80947868     -0.00000319      0.00000460      0.00000012
 2 aa200a      -0.00000000      0.00000000      0.00000000      0.35227806     -0.00000538      0.00000327      0.00000005
 2 aa2a00      -0.00000218      0.00001141      0.70354290     -0.00000011     -0.00000280     -0.00000836      0.70298931
 2 aa20a0      -0.00009387      0.70354289     -0.00001141     -0.00000390      0.00091262      0.70298871      0.00000837
 2 2aa0a0       0.70354289      0.00009387      0.00000217     -0.00000248     -0.70298872      0.00091262     -0.00000279
 2 2aa00a       0.00000218     -0.00001141     -0.70354289     -0.00000011     -0.00000280     -0.00000836      0.70298931
 2 a2aa00       0.70354288      0.00009387      0.00000217      0.00000248      0.70298873     -0.00091262      0.00000279
 2 a2a00a      -0.00009387      0.70354288     -0.00001141      0.00000390     -0.00091262     -0.70298873     -0.00000837
 2 2aaa00      -0.00000000      0.00000000      0.00000000      0.45720060      0.00000218      0.00000133      0.00000007
 2 a200aa       0.00000000     -0.00000000     -0.00000000      0.05428798     -0.00000020      0.00000030      0.00000001
 2 02aaa0       0.00000000     -0.00000000     -0.00000000      0.05397481     -0.00000022      0.00000031      0.00000001
 
 Energy:     -294.37761586   -294.37761586   -294.37761586   -294.37002495   -294.37002495   -294.37002495   -294.37002495

 State:              8               9
 2 a2a0a0       0.06057706     -0.57340686
 2 aa200a       0.73131762      0.57340688
 2 aa2a00       0.00000000     -0.00000000
 2 aa20a0      -0.00000126     -0.00000000
 2 2aa0a0      -0.00000398      0.00000000
 2 2aa00a       0.00000000      0.00000000
 2 a2aa00       0.00000398      0.00000000
 2 a2a00a       0.00000126     -0.00000000
 2 2aaa00      -0.67074056      0.57340687
 2 a200aa       0.00195851     -0.04089079
 2 02aaa0       0.00614329     -0.04089079
 
 Energy:     -294.37002495   -294.35920170
 


 **********************************************************************************************************************************
 DATASETS  * FILE   NREC   LENGTH (MB)   RECORD NAMES
              1      21       39.05       500      610      700      900      950      970     1000      129      960     1100   
                                          VAR    BASINP    GEOM    SYMINP    ZMAT    AOBASIS   BASIS     P2S    ABASIS      S 
                                         1400     1410     1420     1200     1210     1080     1700     1600     1650     1380   
                                           T        V       ECP      H0       H01     AOSYM    OPER      SMH    MOLCAS    JKOP   
                                         1700(1)
                                         OPER   

              2       5        0.83       700     1000      520     2100     2140   
                                         GEOM     BASIS   MCVARS     RHF     MCSCF   

 PROGRAMS   *        TOTAL     MULTI   RHF-SCF       INT
 CPU TIMES  *         5.36      4.04      0.11      1.02
 REAL TIME  *        10.02 SEC
 DISK USED  *        39.97 MB (local),      365.21 MB (total)
 SF USED    *        26.73 MB
 GA USED    *         0.00 MB       (max)       0.00 MB       (current)
 **********************************************************************************************************************************

 Energies and &lt;L**2&gt; values

         ENERGY     LL
    -294.6563022   2.0
    -294.6563022   2.0
    -294.6563022   2.0
    -294.3662335   6.0
    -294.3662335   6.0
    -294.3662335   6.0
    -294.3662335   6.0
    -294.3662335   6.0
    -294.3599079   2.0
    -294.3599079   2.0
    -294.3599079   2.0
    -294.3587812  -0.0
    -294.3776159   2.0
    -294.3776159   2.0
    -294.3776159   2.0
    -294.3700249   6.0
    -294.3700249   6.0
    -294.3700249   6.0
    -294.3700249   6.0
    -294.3700249   6.0
    -294.3592017  -0.0
                                                  


 PROGRAM * CI (Multireference internally contracted CI)     Authors: H.-J. Werner, P.J. Knowles, 1987


 Convergence thresholds:  THRVAR = 1.00D-08  THRDEN = 1.00D-06

 Number of optimized states: 12  Roots:   1   2   3   4   5   6   7   8   9  10  11  12
 Number of reference states: 12  Roots:   1   2   3   4   5   6   7   8   9  10  11  12

 Reference symmetry:                   2   Doublet 
 Number of electrons:                 25
 Maximum number of shells:             6
 Maximum number of spin couplings:   132

 Reference space:      252 conf      420 CSFs
 N elec internal:    15576 conf    58240 CSFs
 N-1 el internal:    19959 conf   132244 CSFs
 N-2 el internal:    14819 conf   136456 CSFs

 Number of electrons in valence space:                     25
 Maximum number of open shell orbitals in reference space:  5
 Maximum number of open shell orbitals in internal spaces: 11


 Number of closed-shell orbitals:   9 (   6   3 )
 Number of active  orbitals:        7 (   1   6 )
 Number of external orbitals:      96 (  46  50 )

 Molecular orbitals read from record     2140.2  Type=MCSCF/NATURAL (state averaged)

 Valence orbitals related to previous ones by unitary transformation. Operators transformed.


 Number of p-space configurations:  30

 Reference wavefunction optimized for reference space (refopt=1)

 State     Reference Energy 
     1      -294.65630222
     2      -294.65630222
     3      -294.65630222
     4      -294.36623350
     5      -294.36623350
     6      -294.36623350
     7      -294.36623350
     8      -294.36623350
     9      -294.35990787
    10      -294.35990787
    11      -294.35990787
    12      -294.35878118

 ?WARNING: SMALL EIGENVALUE OF PAIR OVERLAP MATRIX:  0.1053D-06

 ?WARNING: SMALL EIGENVALUE OF PAIR OVERLAP MATRIX:  0.1410D-06

 Number of blocks in overlap matrix:  1138   Smallest eigenvalue:  0.11D-06
 Number of N-2 electron functions:    2970
 Number of N-1 electron functions:  132244

 Number of internal configurations:                29358
 Number of singly external configurations:       6348776
 Number of doubly external configurations:       6847272
 Total number of contracted configurations:     13225406
 Total number of uncontracted configurations:  319907094

 Diagonal Coupling coefficients finished.               Storage:  34419695 words, CPU-Time:    177.25 seconds.
 Energy denominators for pairs finished in 1 passes.    Storage:   1758498 words, CPU-time:      0.28 seconds.

  ITER. STATE  ROOT     SQ.NORM     CORR.ENERGY   TOTAL ENERGY   ENERGY CHANGE       DEN1      VAR(S)    VAR(P)      TIME
    1     1     1     1.00000000     0.00000000  -294.65630222    -0.00000000    -0.94360765  0.27D-01  0.11D+00   190.69
    1     2     2     1.00000000     0.00000000  -294.65630222     0.00000000    -0.94384968  0.27D-01  0.11D+00   190.69
    1     3     3     1.00000000     0.00000000  -294.65630222     0.00000000    -0.94398368  0.27D-01  0.11D+00   190.69
    1     4     4     1.00000000     0.00000000  -294.36623350    -0.00000000    -0.94569639  0.47D-01  0.11D+00   190.69
    1     5     5     1.00000000     0.00000000  -294.36623350    -0.00000000    -0.94351452  0.47D-01  0.10D+00   190.69
    1     6     6     1.00000000     0.00000000  -294.36623350    -0.00000000    -0.94354564  0.47D-01  0.10D+00   190.69
    1     7     7     1.00000000     0.00000000  -294.36623350    -0.00000000    -0.94341631  0.47D-01  0.10D+00   190.69
    1     8     8     1.00000000     0.00000000  -294.36623350    -0.00000000    -0.94346860  0.47D-01  0.10D+00   190.69
    1     9     9     1.00000000     0.00000000  -294.35990787    -0.00000000    -0.95154952  0.54D-01  0.11D+00   190.69
    1    10    10     1.00000000     0.00000000  -294.35990787    -0.00000000    -0.95155777  0.54D-01  0.11D+00   190.69
    1    11    11     1.00000000     0.00000000  -294.35990787     0.00000000    -0.95155364  0.54D-01  0.11D+00   190.69
    1    12    12     1.00000000     0.00000000  -294.35878118    -0.00000000    -0.94832896  0.50D-01  0.11D+00   190.69
    2     1     1     1.09016265    -0.77742499  -295.43372721    -0.77742499    -0.01876263  0.23D-02  0.16D-02  1234.41
    2     2     2     1.09012559    -0.77738443  -295.43368664    -0.77738443    -0.01877816  0.23D-02  0.16D-02  1234.41
    2     3     3     1.09014184    -0.77734299  -295.43364520    -0.77734299    -0.01879625  0.23D-02  0.16D-02  1234.41
    2     4     4     1.10017637    -0.76738617  -295.13361967    -0.76738617    -0.01851332  0.28D-02  0.15D-02  1234.41
    2     5     5     1.10011469    -0.76735504  -295.13358854    -0.76735504    -0.01853592  0.28D-02  0.15D-02  1234.41
    2     6     6     1.10017544    -0.76733900  -295.13357250    -0.76733900    -0.01854818  0.28D-02  0.15D-02  1234.41
    2     7     7     1.10021056    -0.76733519  -295.13356870    -0.76733519    -0.01856382  0.28D-02  0.15D-02  1234.41
    2     8     8     1.10051233    -0.76713597  -295.13336948    -0.76713597    -0.01882910  0.28D-02  0.16D-02  1234.41
    2     9     9     1.10269962    -0.76685030  -295.12675817    -0.76685030    -0.01915534  0.31D-02  0.16D-02  1234.41
    2    10    10     1.10430566    -0.76666277  -295.12657064    -0.76666277    -0.02110703  0.43D-02  0.16D-02  1234.41
    2    11    11     1.10431965    -0.76665347  -295.12656134    -0.76665347    -0.02110999  0.43D-02  0.16D-02  1234.41
    2    12    12     1.10432758    -0.76775994  -295.12654112    -0.76775994    -0.02112838  0.43D-02  0.16D-02  1234.41
    3     1     1     1.08848467    -0.79618579  -295.45248801    -0.01876080    -0.00072826  0.47D-04  0.11D-03  2276.60
    3     2     2     1.08846078    -0.79617533  -295.45247754    -0.01879090    -0.00073480  0.48D-04  0.11D-03  2276.60
    3     3     3     1.08843981    -0.79616521  -295.45246743    -0.01882223    -0.00073676  0.47D-04  0.12D-03  2276.60
    3     4     4     1.09160812    -0.78558758  -295.15182108    -0.01820141    -0.00053609  0.46D-04  0.86D-04  2276.60
    3     5     5     1.09156659    -0.78558733  -295.15182084    -0.01823229    -0.00053604  0.46D-04  0.86D-04  2276.60
    3     6     6     1.09155728    -0.78558173  -295.15181524    -0.01824273    -0.00053882  0.46D-04  0.86D-04  2276.60
    3     7     7     1.09155131    -0.78557902  -295.15181252    -0.01824383    -0.00054088  0.46D-04  0.86D-04  2276.60
    3     8     8     1.09154814    -0.78557814  -295.15181165    -0.01844217    -0.00054133  0.46D-04  0.86D-04  2276.60
    3     9     9     1.09240677    -0.78716714  -295.14707501    -0.02031684    -0.00059699  0.58D-04  0.90D-04  2276.60
    3    10    10     1.09240287    -0.78716479  -295.14707266    -0.02050202    -0.00059781  0.58D-04  0.90D-04  2276.60
    3    11    11     1.09239799    -0.78716292  -295.14707080    -0.02050945    -0.00059895  0.58D-04  0.91D-04  2276.60
    3    12    12     1.09261182    -0.78689883  -295.14568001    -0.01913888    -0.00057403  0.56D-04  0.90D-04  2276.60
    4     1     1     1.09102314    -0.79707842  -295.45338064    -0.00089263    -0.00007225  0.43D-05  0.99D-05  3324.68
    4     2     2     1.09101860    -0.79707727  -295.45337948    -0.00090194    -0.00007315  0.43D-05  0.10D-04  3324.68
    4     3     3     1.09101777    -0.79707497  -295.45337719    -0.00090976    -0.00007448  0.44D-05  0.10D-04  3324.68
    4     4     4     1.09239648    -0.78626245  -295.15249596    -0.00067487    -0.00005893  0.29D-05  0.10D-04  3324.68
    4     5     5     1.09239931    -0.78626189  -295.15249540    -0.00067456    -0.00005917  0.29D-05  0.10D-04  3324.68
    4     6     6     1.09239566    -0.78626093  -295.15249443    -0.00067919    -0.00005998  0.30D-05  0.10D-04  3324.68
    4     7     7     1.09239283    -0.78626047  -295.15249397    -0.00068145    -0.00006014  0.29D-05  0.10D-04  3324.68
    4     8     8     1.09239643    -0.78626022  -295.15249373    -0.00068208    -0.00005999  0.29D-05  0.10D-04  3324.68
    4     9     9     1.09298148    -0.78788672  -295.14779459    -0.00071958    -0.00005880  0.34D-05  0.10D-04  3324.68
    4    10    10     1.09297906    -0.78788602  -295.14779389    -0.00072124    -0.00005914  0.34D-05  0.10D-04  3324.68
    4    11    11     1.09297784    -0.78788557  -295.14779344    -0.00072265    -0.00005939  0.35D-05  0.10D-04  3324.68
    4    12    12     1.09325200    -0.78763189  -295.14641307    -0.00073306    -0.00006191  0.29D-05  0.10D-04  3324.68
    5     1     1     1.09168647    -0.79716718  -295.45346939    -0.00008876    -0.00000549  0.15D-06  0.82D-06  4374.44
    5     2     2     1.09168574    -0.79716710  -295.45346931    -0.00008983    -0.00000555  0.15D-06  0.83D-06  4374.44
    5     3     3     1.09168768    -0.79716674  -295.45346896    -0.00009177    -0.00000577  0.16D-06  0.86D-06  4374.44
    5     4     4     1.09288085    -0.78634300  -295.15257651    -0.00008055    -0.00000631  0.28D-06  0.10D-05  4374.44
    5     5     5     1.09288356    -0.78634288  -295.15257639    -0.00008099    -0.00000641  0.27D-06  0.11D-05  4374.44
    5     6     6     1.09288301    -0.78634276  -295.15257627    -0.00008184    -0.00000650  0.28D-06  0.11D-05  4374.44
    5     7     7     1.09288126    -0.78634272  -295.15257623    -0.00008225    -0.00000646  0.28D-06  0.11D-05  4374.44
    5     8     8     1.09288347    -0.78634257  -295.15257608    -0.00008235    -0.00000661  0.28D-06  0.11D-05  4374.44
    5     9     9     1.09340144    -0.78796738  -295.14787525    -0.00008066    -0.00000673  0.33D-06  0.11D-05  4374.44
    5    10    10     1.09340149    -0.78796725  -295.14787512    -0.00008123    -0.00000680  0.33D-06  0.11D-05  4374.44
    5    11    11     1.09340106    -0.78796716  -295.14787503    -0.00008159    -0.00000687  0.34D-06  0.11D-05  4374.44
    5    12    12     1.09375611    -0.78771565  -295.14649683    -0.00008376    -0.00000608  0.29D-06  0.98D-06  4374.44
    6     1     1     1.09169383    -0.79717391  -295.45347613    -0.00000674    -0.00000050  0.26D-07  0.71D-07  5423.30
    6     2     2     1.09169331    -0.79717391  -295.45347612    -0.00000681    -0.00000050  0.27D-07  0.71D-07  5423.30
    6     3     3     1.09169270    -0.79717385  -295.45347607    -0.00000711    -0.00000054  0.28D-07  0.77D-07  5423.30
    6     4     4     1.09288935    -0.78635108  -295.15258459    -0.00000808    -0.00000079  0.32D-07  0.14D-06  5423.30
    6     5     5     1.09288882    -0.78635107  -295.15258457    -0.00000819    -0.00000080  0.32D-07  0.14D-06  5423.30
    6     6     6     1.09288867    -0.78635105  -295.15258456    -0.00000829    -0.00000084  0.34D-07  0.14D-06  5423.30
    6     7     7     1.09288932    -0.78635102  -295.15258453    -0.00000830    -0.00000077  0.31D-07  0.13D-06  5423.30
    6     8     8     1.09288836    -0.78635097  -295.15258448    -0.00000840    -0.00000080  0.33D-07  0.14D-06  5423.30
    6     9     9     1.09341994    -0.78797602  -295.14788389    -0.00000864    -0.00000085  0.42D-07  0.14D-06  5423.30
    6    10    10     1.09341952    -0.78797599  -295.14788387    -0.00000875    -0.00000088  0.43D-07  0.15D-06  5423.30
    6    11    11     1.09341972    -0.78797598  -295.14788385    -0.00000883    -0.00000086  0.43D-07  0.15D-06  5423.30
    6    12    12     1.09376929    -0.78772330  -295.14650448    -0.00000765    -0.00000068  0.24D-07  0.12D-06  5423.30
    7     1     1     1.09171846    -0.79717452  -295.45347674    -0.00000061    -0.00000006  0.67D-08  0.78D-08  6470.19
    7     2     2     1.09171858    -0.79717452  -295.45347674    -0.00000062    -0.00000006  0.66D-08  0.77D-08  6470.19
    7     3     3     1.09171831    -0.79717452  -295.45347673    -0.00000067    -0.00000007  0.72D-08  0.85D-08  6470.19
    7     4     4     1.09291547    -0.78635216  -295.15258567    -0.00000108    -0.00000014  0.13D-07  0.21D-07  6470.19
    7     5     5     1.09291538    -0.78635213  -295.15258564    -0.00000106    -0.00000013  0.12D-07  0.20D-07  6470.19
    7     6     6     1.09291548    -0.78635213  -295.15258564    -0.00000108    -0.00000013  0.12D-07  0.19D-07  6470.19
    7     7     7     1.09291564    -0.78635204  -295.15258554    -0.00000102    -0.00000013  0.11D-07  0.19D-07  6470.19
    7     8     8     1.09291545    -0.78635203  -295.15258553    -0.00000105    -0.00000013  0.12D-07  0.19D-07  6470.19
    7     9     9     1.09344956    -0.78797714  -295.14788501    -0.00000112    -0.00000015  0.15D-07  0.22D-07  6470.19
    7    10    10     1.09344961    -0.78797713  -295.14788500    -0.00000113    -0.00000014  0.14D-07  0.21D-07  6470.19
    7    11    11     1.09344951    -0.78797711  -295.14788498    -0.00000112    -0.00000014  0.14D-07  0.21D-07  6470.19
    7    12    12     1.09379483    -0.78772420  -295.14650538    -0.00000089    -0.00000011  0.93D-08  0.16D-07  6470.19
    8     1     1     1.09172203    -0.79717460  -295.45347682    -0.00000007    -0.00000001  0.39D-09  0.12D-08  7514.74
    8     2     2     1.09172210    -0.79717460  -295.45347682    -0.00000008    -0.00000001  0.37D-09  0.12D-08  7514.74
    8     3     3     1.09172218    -0.79717460  -295.45347681    -0.00000008    -0.00000001  0.36D-09  0.11D-08  7514.74
    8     4     4     1.09291533    -0.78635235  -295.15258585    -0.00000018    -0.00000002  0.10D-08  0.39D-08  7514.74
    8     5     5     1.09291541    -0.78635230  -295.15258581    -0.00000017    -0.00000002  0.96D-09  0.36D-08  7514.74
    8     6     6     1.09291547    -0.78635230  -295.15258580    -0.00000017    -0.00000002  0.94D-09  0.35D-08  7514.74
    8     7     7     1.09291546    -0.78635220  -295.15258570    -0.00000016    -0.00000002  0.90D-09  0.33D-08  7514.74
    8     8     8     1.09291535    -0.78635219  -295.15258570    -0.00000017    -0.00000002  0.95D-09  0.35D-08  7514.74
    8     9     9     1.09344640    -0.78797733  -295.14788520    -0.00000019    -0.00000003  0.13D-08  0.41D-08  7514.74
    8    10    10     1.09344653    -0.78797731  -295.14788518    -0.00000018    -0.00000002  0.12D-08  0.39D-08  7514.74
    8    11    11     1.09344644    -0.78797729  -295.14788516    -0.00000018    -0.00000003  0.13D-08  0.40D-08  7514.74
    8    12    12     1.09379463    -0.78772433  -295.14650551    -0.00000013    -0.00000002  0.83D-09  0.26D-08  7514.74


 =====================================
 Analysis of CPU times by interactions
 =====================================

       I      S      P

 I   0.4%
 S   0.3%   7.2%
 P   0.3%  54.8%  30.5%

 Initialization:   2.4%
 Other:            4.1%

 Total CPU:     7514.7 seconds
 =====================================



 Wavefunction saved on  5203.2

 Reference coefficients greater than 0.0500000
 =============================================
 222222222222/000           0.1045053  -0.0563014   0.9488679   0.0000000   0.0000000  -0.0000001  -0.0000000   0.0000000
                           -0.0000795   0.0220166  -0.0004075   0.0000000
 22222222222/2000          -0.4817219   0.8197824   0.1016974  -0.0000000   0.0000000  -0.0000000   0.0000000   0.0000000
                           -0.0001573   0.0004069   0.0220161   0.0000000
 2222222222/22000           0.8194292   0.4891099  -0.0612278   0.0000003   0.0000000  -0.0000000  -0.0000000   0.0000000
                           -0.0220197  -0.0000824  -0.0001558  -0.0000000
 2222222222//200\           0.0000000  -0.0000000  -0.0000000  -0.0059929  -0.0018692   0.0006125  -0.0255352   0.7742543
                            0.0000006   0.0000001   0.0000000  -0.5480006
 22222222222//\00           0.0000000   0.0000000   0.0000000  -0.0050053   0.0004283   0.0033045   0.6832606  -0.3650791
                            0.0000004   0.0000001  -0.0000000  -0.5479983
 2222222222/2/00\           0.0107398   0.0064105  -0.0008025  -0.6705933  -0.0035008   0.0180943  -0.0079228  -0.0054745
                            0.6221071   0.0023272   0.0044026   0.0000007
 2222222222//20\0           0.0107397   0.0064104  -0.0008025   0.6705839   0.0035006  -0.0180943   0.0079229   0.0054744
                            0.6221172   0.0023269   0.0044027   0.0000005
 2222222222//2\00           0.0063136  -0.0107443  -0.0013329  -0.0007729   0.6633987   0.1001183  -0.0000971   0.0015132
                           -0.0044448   0.0114958   0.6220076  -0.0000000
 22222222222//00\          -0.0063136   0.0107443   0.0013329  -0.0007729   0.6633943   0.1001181  -0.0000974   0.0015131
                            0.0044451  -0.0114959  -0.6220123  -0.0000002
 2222222222/2/\00          -0.0013697   0.0007379  -0.0124362  -0.0184617   0.1000572  -0.6631430   0.0034022   0.0007355
                           -0.0022454   0.6220202  -0.0115123   0.0000001
 22222222222//0\0          -0.0013697   0.0007379  -0.0124362   0.0184620  -0.1000569   0.6631406  -0.0034023  -0.0007355
                           -0.0022451   0.6220228  -0.0115119   0.0000001
 2222222222/2/0\0          -0.0000000  -0.0000000  -0.0000000  -0.0109979  -0.0014408   0.0039170   0.6577211   0.4091757
                           -0.0000006  -0.0000001  -0.0000002   0.5480017
 2222222222022/00          -0.0090732  -0.0054157   0.0006780   0.0000014   0.0000000   0.0000000  -0.0000000   0.0000000
                           -0.2216611  -0.0008291  -0.0015687  -0.0000002
 222222222222000/          -0.0011572   0.0006234  -0.0105065   0.0000000   0.0000001  -0.0000005  -0.0000000   0.0000000
                           -0.0008000   0.2216286  -0.0041018   0.0000000
 22222222222020/0           0.0053340  -0.0090772  -0.0011261  -0.0000000   0.0000009   0.0000001   0.0000000   0.0000000
                           -0.0015838   0.0040960   0.2216248   0.0000000
 2222222222/\20/0           0.0026100   0.0015579  -0.0001950   0.0086416   0.0000451  -0.0002332   0.0001021   0.0000705
                            0.1898801   0.0007103   0.0013438   0.0000002
 2222222222/2\00/           0.0026100   0.0015579  -0.0001950  -0.0086442  -0.0000452   0.0002332  -0.0001021  -0.0000706
                            0.1898800   0.0007103   0.0013438   0.0000002
 2222222222/2\/00           0.0003329  -0.0001793   0.0030222   0.0002379  -0.0012896   0.0085471  -0.0000438  -0.0000095
                            0.0006853  -0.1898522   0.0035137  -0.0000000
 22222222222/\0/0           0.0003329  -0.0001793   0.0030222  -0.0002380   0.0012895  -0.0085463   0.0000439   0.0000095
                            0.0006853  -0.1898522   0.0035137  -0.0000000
 2222222222/\2/00          -0.0015343   0.0026110   0.0003239   0.0000100  -0.0085507  -0.0012904   0.0000012  -0.0000195
                            0.0013567  -0.0035087  -0.1898487  -0.0000000
 22222222222/\00/          -0.0015343   0.0026111   0.0003239  -0.0000100   0.0085493   0.0012903  -0.0000013   0.0000195
                            0.0013567  -0.0035088  -0.1898487  -0.0000000
 2222222222///0\\           0.0098250   0.0058644  -0.0007341  -0.0000005  -0.0000000   0.0000000   0.0000000  -0.0000000
                            0.0702828   0.0002629   0.0004974   0.0000001
 2222222222///\\0           0.0012530  -0.0006751   0.0113769  -0.0000000  -0.0000000   0.0000001   0.0000000  -0.0000000
                            0.0002537  -0.0702725   0.0013006  -0.0000000
 2222222222///\0\           0.0057758  -0.0098292  -0.0012193  -0.0000000   0.0000002   0.0000000   0.0000000   0.0000000
                           -0.0005022   0.0012987   0.0702711   0.0000000
 2222222222/20002          -0.0103084  -0.0061530   0.0007702   0.0604018   0.0003153  -0.0016298   0.0007136   0.0004931
                           -0.0470928  -0.0001762  -0.0003333  -0.0000001
 2222222222/02020          -0.0103084  -0.0061530   0.0007702  -0.0604013  -0.0003153   0.0016298  -0.0007136  -0.0004931
                           -0.0470939  -0.0001761  -0.0003333  -0.0000000
 22222222220/2200           0.0060600  -0.0103128  -0.0012793  -0.0000696   0.0597539   0.0090179  -0.0000087   0.0001363
                           -0.0003365   0.0008702   0.0470852  -0.0000000
 22222222222/0002           0.0060600  -0.0103127  -0.0012793   0.0000696  -0.0597535  -0.0090179   0.0000088  -0.0001363
                           -0.0003365   0.0008702   0.0470856   0.0000000
 222222222202/200          -0.0013147   0.0007083  -0.0119367  -0.0016629   0.0090124  -0.0597308   0.0003064   0.0000662
                           -0.0001700   0.0470862  -0.0008715   0.0000000
 222222222220/020          -0.0013147   0.0007083  -0.0119367   0.0016629  -0.0090124   0.0597307  -0.0003065  -0.0000662
                           -0.0001700   0.0470864  -0.0008714   0.0000000
 2222222222/020/\          -0.0000000  -0.0000000  -0.0000000   0.0004486   0.0001367  -0.0000504   0.0007594  -0.0563069
                           -0.0000000  -0.0000000  -0.0000000   0.0385491
 22222222220/2/0\          -0.0000000   0.0000000   0.0000000  -0.0004225  -0.0001350   0.0000386  -0.0029522   0.0562343
                            0.0000000  -0.0000000  -0.0000000  -0.0385489
 2222222222//\002          -0.0000000  -0.0000000  -0.0000000  -0.0004281  -0.0001335   0.0000437  -0.0018242   0.0553039
                            0.0000000   0.0000000   0.0000000  -0.0379750

 Coefficients of fixed reference functions:
 ==========================================

 State      Coefficients
 1          -0.482026    0.104571    0.819946    0.000000   -0.000000   -0.000000   -0.000000    0.000000    0.001874   -0.014697
            -0.008640   -0.000000
 2           0.820299   -0.056337    0.489418   -0.000000    0.000000   -0.000000   -0.000000   -0.000000   -0.001010   -0.008773
             0.014704   -0.000000
 3           0.101761    0.949466   -0.061266   -0.000000    0.000000    0.000000   -0.000000   -0.000000    0.017019    0.001098
             0.001824   -0.000000
 4           0.000000   -0.000000   -0.000000   -0.013478    0.026321    0.956073   -0.001799   -0.001102    0.000000   -0.000007
            -0.000000    0.000000
 5          -0.000000   -0.000000   -0.000000   -0.001641   -0.142654    0.004991   -0.001776    0.945819    0.000000   -0.000000
             0.000003    0.000000
 6          -0.000000    0.000000   -0.000000    0.004976    0.945456   -0.025797   -0.001522    0.142741   -0.000002   -0.000000
             0.000000    0.000000
 7          -0.000000    0.000000    0.000000    0.850283   -0.004851    0.011296   -0.437974   -0.000139   -0.000000    0.000000
             0.000000   -0.000002
 8          -0.000000    0.000000   -0.000000    0.437908   -0.001049    0.007805    0.850367    0.002157    0.000000   -0.000000
             0.000000    0.000000
 9           0.000124    0.000063    0.017362   -0.000000    0.000000    0.000007    0.000000    0.000000   -0.003451    0.956093
            -0.006831   -0.000001
 10         -0.000321   -0.017359    0.000065    0.000000    0.000002   -0.000000   -0.000000   -0.000000    0.955954    0.003576
             0.017667   -0.000000
 11         -0.017359    0.000321    0.000123   -0.000000    0.000000    0.000000    0.000000   -0.000003   -0.017692    0.006766
             0.955936   -0.000000
 12         -0.000000   -0.000000    0.000000    0.000002   -0.000000   -0.000000   -0.000001   -0.000000    0.000000    0.000001
             0.000000    0.956149

 Coefficients of rotated reference functions:
 ============================================

 State      Coefficients
 1           0.957021    0.000000   -0.000000    0.000000    0.000000    0.000000    0.000000    0.000000    0.000096   -0.000011
             0.000057    0.000000
 2           0.000000    0.957021   -0.000000    0.000000   -0.000000   -0.000000    0.000000    0.000000    0.000058    0.000005
            -0.000096    0.000000
 3          -0.000000   -0.000000    0.957021   -0.000000   -0.000000   -0.000000    0.000000    0.000000   -0.000007   -0.000111
            -0.000010   -0.000000
 4           0.000000    0.000000   -0.000000    0.956532    0.000000   -0.000000    0.000000    0.000000    0.000000   -0.000000
             0.000000   -0.000000
 5           0.000000   -0.000000   -0.000000    0.000000    0.956532    0.000000   -0.000000    0.000000    0.000000    0.000000
             0.000000   -0.000000
 6           0.000000   -0.000000   -0.000000   -0.000000    0.000000    0.956532   -0.000000    0.000000   -0.000000    0.000000
             0.000000   -0.000000
 7           0.000000    0.000000    0.000000    0.000000   -0.000000   -0.000000    0.956532    0.000000    0.000000    0.000000
            -0.000000   -0.000000
 8           0.000000    0.000000    0.000000    0.000000    0.000000    0.000000    0.000000    0.956532    0.000000   -0.000000
            -0.000000   -0.000000
 9           0.000096    0.000058   -0.000007    0.000000    0.000000   -0.000000    0.000000    0.000000    0.956282    0.000000
             0.000000    0.000000
 10         -0.000011    0.000005   -0.000111   -0.000000    0.000000    0.000000    0.000000   -0.000000    0.000000    0.956282
             0.000000    0.000000
 11          0.000057   -0.000096   -0.000010    0.000000    0.000000    0.000000   -0.000000   -0.000000    0.000000    0.000000
             0.956282    0.000000
 12          0.000000    0.000000   -0.000000   -0.000000   -0.000000   -0.000000   -0.000000   -0.000000    0.000000    0.000000
             0.000000    0.956149


 RESULTS FOR STATE 1.2
 =====================

 Maximum overlap with reference state  3

 Coefficient of reference function:   C(0) = 0.81994571 (fixed)   0.95706186 (relaxed)   0.95702082 (rotated)

 Energy contributions of configuration classes

 CLASS          SQ.NORM        ECORR1        ECORR2
 +++++++++++++++++++++++++++++++++++++++++++++++++++
 Internals    0.00010397   -0.00009423   -0.69696932
 Singles      0.01058195   -0.03628162   -0.04095806
 Pairs        0.08114962    0.00000000   -0.05924723
 Total        1.09183554   -0.03637585   -0.79717460
 +++++++++++++++++++++++++++++++++++++++++++++++++++


 Reference energy                    -294.65620577
 Nuclear energy                         0.00000000
 Kinetic energy                       111.43381949
 One electron energy                 -513.40288562
 Two electron energy                  217.94940881
 Virial quotient                       -2.65138069
 Correlation energy                    -0.79727105
 !MRCI STATE 1.2 Energy              -295.453476816618

 Properties without orbital relaxation:

 !MRCI STATE 1.2 Dipole moment          0.00000000     0.00000000     0.00000000
 Dipole moment /Debye                   0.00000000     0.00000000     0.00000000

 Cluster corrected energies          -295.52669463 (Davidson, fixed reference)
 Cluster corrected energies          -295.52661999 (Davidson, relaxed reference)
 Cluster corrected energies          -295.52669463 (Davidson, rotated reference)

 Cluster corrected energies          -295.52610037 (Pople, fixed reference)
 Cluster corrected energies          -295.52602033 (Pople, relaxed reference)
 Cluster corrected energies          -295.52610037 (Pople, rotated reference)



 RESULTS FOR STATE 2.2
 =====================

 Maximum overlap with reference state  1

 Coefficient of reference function:   C(0) = 0.82029909 (fixed)   0.95706182 (relaxed)   0.95702079 (rotated)

 Energy contributions of configuration classes

 CLASS          SQ.NORM        ECORR1        ECORR2
 +++++++++++++++++++++++++++++++++++++++++++++++++++
 Internals    0.00010397   -0.00009423   -0.69696919
 Singles      0.01058199   -0.03628170   -0.04095810
 Pairs        0.08114965    0.00000000   -0.05924731
 Total        1.09183561   -0.03637593   -0.79717460
 +++++++++++++++++++++++++++++++++++++++++++++++++++


 Reference energy                    -294.65620577
 Nuclear energy                         0.00000000
 Kinetic energy                       111.43381985
 One electron energy                 -513.40288402
 Two electron energy                  217.94940721
 Virial quotient                       -2.65138068
 Correlation energy                    -0.79727105
 !MRCI STATE 2.2 Energy              -295.453476816354

 Properties without orbital relaxation:

 !MRCI STATE 2.2 Dipole moment          0.00000000     0.00000000     0.00000000
 Dipole moment /Debye                   0.00000000     0.00000000     0.00000000

 Cluster corrected energies          -295.52669469 (Davidson, fixed reference)
 Cluster corrected energies          -295.52662005 (Davidson, relaxed reference)
 Cluster corrected energies          -295.52669469 (Davidson, rotated reference)

 Cluster corrected energies          -295.52610043 (Pople, fixed reference)
 Cluster corrected energies          -295.52602039 (Pople, relaxed reference)
 Cluster corrected energies          -295.52610043 (Pople, rotated reference)



 RESULTS FOR STATE 3.2
 =====================

 Maximum overlap with reference state  2

 Coefficient of reference function:   C(0) = 0.94946595 (fixed)   0.95706179 (relaxed)   0.95702075 (rotated)

 Energy contributions of configuration classes

 CLASS          SQ.NORM        ECORR1        ECORR2
 +++++++++++++++++++++++++++++++++++++++++++++++++++
 Internals    0.00010397   -0.00009423   -0.69696909
 Singles      0.01058202   -0.03628176   -0.04095812
 Pairs        0.08114970   -0.00000000   -0.05924739
 Total        1.09183569   -0.03637598   -0.79717460
 +++++++++++++++++++++++++++++++++++++++++++++++++++


 Reference energy                    -294.65620577
 Nuclear energy                         0.00000000
 Kinetic energy                       111.43382084
 One electron energy                 -513.40288292
 Two electron energy                  217.94940611
 Virial quotient                       -2.65138065
 Correlation energy                    -0.79727105
 !MRCI STATE 3.2 Energy              -295.453476814968

 Properties without orbital relaxation:

 !MRCI STATE 3.2 Dipole moment          0.00000000     0.00000000     0.00000000
 Dipole moment /Debye                   0.00000000     0.00000000     0.00000000

 Cluster corrected energies          -295.52669475 (Davidson, fixed reference)
 Cluster corrected energies          -295.52662011 (Davidson, relaxed reference)
 Cluster corrected energies          -295.52669475 (Davidson, rotated reference)

 Cluster corrected energies          -295.52610050 (Pople, fixed reference)
 Cluster corrected energies          -295.52602046 (Pople, relaxed reference)
[...]
   27    3.2  1.5  1.5   0.001%   0.006%   0.039%   0.032%   0.644%   0.161%   5.834%  10.385%   0.003%   1.325%
   28    4.2  1.5  1.5   0.016%   0.043%   0.088%   0.027%   0.062%   1.504%   0.677%   0.185%   0.008%   0.243%
   29    5.2  1.5  1.5   0.046%   0.181%   0.023%   0.086%   1.493%   0.054%   0.024%   0.310%   0.003%   1.582%
   30    6.2  1.5  1.5   0.022%   0.076%   0.051%   0.055%   1.199%   0.328%   0.086%   0.147%   0.007%   1.516%
   31    7.2  1.5  1.5   7.433%   1.130%   0.375%   0.432%   0.202%   0.721%   0.181%   0.110%  19.219%   0.039%
   32    8.2  1.5  1.5   2.460%   0.372%   0.435%   0.519%   0.152%   0.613%   0.434%   0.242%   7.683%   0.018%
   33    9.2  1.5  1.5   0.001%   0.000%  10.375%  12.382%   0.331%   1.321%   0.000%   0.000%   0.000%   0.000%
   34    1.2  1.5  0.5   0.000%   0.000%   0.007%   0.011%   0.210%   0.049%   7.973%  13.665%   0.002%   0.007%
   35    2.2  1.5  0.5   0.010%   0.001%   0.626%   0.743%   0.115%   0.479%   3.254%   2.118%   5.452%   0.013%
   36    3.2  1.5  0.5   0.019%   0.003%   0.186%   0.221%   0.318%   1.263%   3.476%   1.961%   5.009%   0.013%
   37    4.2  1.5  0.5   0.399%   0.859%   0.343%   1.212%   0.100%   0.005%   0.057%   0.035%   0.059%   3.538%
   38    5.2  1.5  0.5   0.233%   0.397%   1.210%   0.345%   0.004%   0.108%   0.386%   0.215%   0.799%   0.468%
   39    6.2  1.5  0.5   0.111%   0.027%   0.739%   0.822%   0.028%   0.084%   0.423%   0.261%   0.646%   0.000%
   40    7.2  1.5  0.5   0.390%   2.536%   0.489%   0.459%   0.614%   0.159%   0.247%   0.399%   0.014%   7.424%
   41    8.2  1.5  0.5   0.933%   6.199%   0.433%   0.358%   0.727%   0.183%   0.106%   0.185%   0.044%  17.028%
   42    9.2  1.5  0.5   0.000%   0.000%   0.900%   0.745%  18.259%   4.586%   0.000%   0.001%   0.000%   0.000%
   43    1.2  1.5 -0.5   0.000%   0.000%   0.011%   0.007%   0.049%   0.210%  13.665%   7.973%   0.007%   0.002%
   44    2.2  1.5 -0.5   0.001%   0.010%   0.743%   0.626%   0.479%   0.115%   2.118%   3.254%   0.013%   5.452%
   45    3.2  1.5 -0.5   0.003%   0.019%   0.221%   0.186%   1.263%   0.318%   1.961%   3.476%   0.013%   5.009%
   46    4.2  1.5 -0.5   0.859%   0.399%   1.212%   0.343%   0.005%   0.100%   0.035%   0.057%   3.538%   0.059%
   47    5.2  1.5 -0.5   0.397%   0.233%   0.345%   1.210%   0.108%   0.004%   0.215%   0.386%   0.468%   0.799%
   48    6.2  1.5 -0.5   0.027%   0.111%   0.822%   0.739%   0.084%   0.028%   0.261%   0.423%   0.000%   0.646%
   49    7.2  1.5 -0.5   2.536%   0.390%   0.459%   0.489%   0.159%   0.614%   0.399%   0.247%   7.424%   0.014%
   50    8.2  1.5 -0.5   6.199%   0.933%   0.358%   0.433%   0.183%   0.727%   0.185%   0.106%  17.028%   0.044%
   51    9.2  1.5 -0.5   0.000%   0.000%   0.745%   0.900%   4.586%  18.259%   0.001%   0.000%   0.000%   0.000%
   52    1.2  1.5 -1.5   0.001%   0.007%   1.287%   1.066%   0.135%   0.029%   0.004%   0.002%   0.023%   6.980%
   53    2.2  1.5 -1.5   0.004%   0.001%   0.019%   0.038%   0.159%   0.650%  10.423%   5.856%   1.182%   0.010%
   54    3.2  1.5 -1.5   0.006%   0.001%   0.032%   0.039%   0.161%   0.644%  10.385%   5.834%   1.325%   0.003%
   55    4.2  1.5 -1.5   0.043%   0.016%   0.027%   0.088%   1.504%   0.062%   0.185%   0.677%   0.243%   0.008%
   56    5.2  1.5 -1.5   0.181%   0.046%   0.086%   0.023%   0.054%   1.493%   0.310%   0.024%   1.582%   0.003%
   57    6.2  1.5 -1.5   0.076%   0.022%   0.055%   0.051%   0.328%   1.199%   0.147%   0.086%   1.516%   0.007%
   58    7.2  1.5 -1.5   1.130%   7.433%   0.432%   0.375%   0.721%   0.202%   0.110%   0.181%   0.039%  19.219%
   59    8.2  1.5 -1.5   0.372%   2.460%   0.519%   0.435%   0.613%   0.152%   0.242%   0.434%   0.018%   7.683%
   60    9.2  1.5 -1.5   0.000%   0.001%  12.382%  10.375%   1.321%   0.331%   0.000%   0.000%   0.000%   0.000%

   Nr   State  S   Sz      41       42       43       44       45       46       47       48       49       50

    1    1.2  0.5  0.5   0.000%   0.000%   0.000%   0.000%   0.004%   0.012%   0.000%   0.003%   0.002%   0.004%
    2    2.2  0.5  0.5   0.000%   0.000%   0.000%   0.000%   0.011%   0.001%   0.002%   0.005%   0.004%   0.003%
    3    3.2  0.5  0.5   0.000%   0.000%   0.000%   0.000%   0.001%   0.001%   0.003%   0.014%   0.002%   0.007%
    4    4.2  0.5  0.5   2.011%   3.202%   0.944%   0.106%   0.014%   0.009%   0.252%   0.050%   0.310%   0.072%
    5    5.2  0.5  0.5   1.852%   1.179%   0.270%   2.192%   0.054%   0.087%   0.026%   0.134%   0.443%   2.174%
    6    6.2  0.5  0.5   0.082%   0.023%   0.536%   4.371%   0.100%   0.157%   0.005%   0.017%   0.194%   0.900%
    7    7.2  0.5  0.5   0.050%   0.078%  10.208%   1.254%   0.087%   0.056%   0.007%   0.001%   0.929%   0.186%
    8    8.2  0.5  0.5   4.422%   7.072%   0.118%   0.014%   0.004%   0.002%   0.160%   0.032%   1.306%   0.271%
    9    9.2  0.5  0.5   0.000%   0.000%   0.001%   0.000%  11.695%   7.165%   1.056%   0.194%   2.446%   0.488%
   10   10.2  0.5  0.5   0.003%   0.002%   0.000%   0.002%   0.541%   0.879%   3.044%  15.227%   0.892%   4.329%
   11   11.2  0.5  0.5   0.000%   0.000%   0.000%   0.003%   3.502%   5.811%   1.737%   8.849%   0.726%   3.644%
   12   12.2  0.5  0.5   0.001%   0.001%   0.001%   0.000%   0.001%   0.001%   0.001%   0.000%  16.299%   3.330%
   13    1.2  0.5 -0.5   0.000%   0.000%   0.000%   0.000%   0.012%   0.004%   0.003%   0.000%   0.004%   0.002%
   14    2.2  0.5 -0.5   0.000%   0.000%   0.000%   0.000%   0.001%   0.011%   0.005%   0.002%   0.003%   0.004%
   15    3.2  0.5 -0.5   0.000%   0.000%   0.000%   0.000%   0.001%   0.001%   0.014%   0.003%   0.007%   0.002%
   16    4.2  0.5 -0.5   3.202%   2.011%   0.106%   0.944%   0.009%   0.014%   0.050%   0.252%   0.072%   0.310%
   17    5.2  0.5 -0.5   1.179%   1.852%   2.192%   0.270%   0.087%   0.054%   0.134%   0.026%   2.174%   0.443%
   18    6.2  0.5 -0.5   0.023%   0.082%   4.371%   0.536%   0.157%   0.100%   0.017%   0.005%   0.900%   0.194%
   19    7.2  0.5 -0.5   0.078%   0.050%   1.254%  10.208%   0.056%   0.087%   0.001%   0.007%   0.186%   0.929%
   20    8.2  0.5 -0.5   7.072%   4.422%   0.014%   0.118%   0.002%   0.004%   0.032%   0.160%   0.271%   1.306%
   21    9.2  0.5 -0.5   0.000%   0.000%   0.000%   0.001%   7.165%  11.695%   0.194%   1.056%   0.488%   2.446%
   22   10.2  0.5 -0.5   0.002%   0.003%   0.002%   0.000%   0.879%   0.541%  15.227%   3.044%   4.329%   0.892%
   23   11.2  0.5 -0.5   0.000%   0.000%   0.003%   0.000%   5.811%   3.502%   8.849%   1.737%   3.644%   0.726%
   24   12.2  0.5 -0.5   0.001%   0.001%   0.000%   0.001%   0.001%   0.001%   0.000%   0.001%   3.330%  16.299%
   25    1.2  1.5  1.5   0.579%   0.306%   0.019%   0.081%   0.001%   0.002%   0.007%   0.033%   0.036%   0.139%
   26    2.2  1.5  1.5   2.038%   3.339%   3.778%   0.461%   0.011%   0.007%   0.000%   0.000%   1.551%   0.325%
   27    3.2  1.5  1.5   3.660%   5.835%   0.049%   0.006%   0.006%   0.004%   0.004%   0.001%   1.578%   0.322%
   28    4.2  1.5  1.5   2.331%   0.578%   1.557%   3.158%   9.382%   3.365%   0.004%   0.776%   2.502%   6.770%
   29    5.2  1.5  1.5   4.659%  10.062%   3.752%   1.539%   3.605%   9.445%   0.835%   0.006%   1.270%   2.174%
   30    6.2  1.5  1.5   2.185%   3.415%  15.177%   1.761%   8.328%   4.962%   0.652%   0.087%   1.975%   0.408%
   31    7.2  1.5  1.5   0.784%   0.561%   0.226%   2.747%   2.536%   4.600%   1.016%   5.329%   0.464%   2.471%
   32    8.2  1.5  1.5   1.928%   1.219%   0.239%   1.877%   2.470%   3.896%   1.180%   5.924%   1.256%   6.100%
   33    9.2  1.5  1.5   0.004%   0.003%   0.000%   0.003%   0.025%   0.039%   0.193%   0.966%   0.161%   0.787%
   34    1.2  1.5  0.5   0.649%   1.033%   9.037%   1.165%   0.010%   0.007%   0.002%   0.000%   0.237%   0.052%
   35    2.2  1.5  0.5   0.021%   0.020%   0.445%   3.074%   0.002%   0.003%   0.005%   0.025%   0.041%   0.184%
   36    3.2  1.5  0.5   1.332%   0.834%   0.187%   1.529%   0.008%   0.012%   0.001%   0.007%   0.000%   0.001%
   37    4.2  1.5  0.5   8.626%  11.277%   1.653%   2.733%   0.235%   0.574%  13.108%   0.093%   0.196%   0.805%
   38    5.2  1.5  0.5   0.815%   3.092%   2.580%   6.461%   0.540%   0.189%   0.087%  12.800%   1.098%   5.460%
   39    6.2  1.5  0.5   1.401%   1.005%   0.882%   7.830%   0.279%   0.573%   1.950%  10.689%   1.117%   6.176%
   40    7.2  1.5  0.5   1.666%   2.488%   1.415%   0.118%   3.963%   2.388%   6.010%   1.015%   5.692%   1.037%
   41    8.2  1.5  0.5   0.874%   1.403%   3.969%   0.467%   4.323%   2.705%   5.254%   1.065%   2.427%   0.488%
   42    9.2  1.5  0.5   0.001%   0.002%   0.005%   0.001%   0.808%   0.505%   0.046%   0.009%   4.765%   0.976%
   43    1.2  1.5 -0.5   1.033%   0.649%   1.165%   9.037%   0.007%   0.010%   0.000%   0.002%   0.052%   0.237%
   44    2.2  1.5 -0.5   0.020%   0.021%   3.074%   0.445%   0.003%   0.002%   0.025%   0.005%   0.184%   0.041%
   45    3.2  1.5 -0.5   0.834%   1.332%   1.529%   0.187%   0.012%   0.008%   0.007%   0.001%   0.001%   0.000%
   46    4.2  1.5 -0.5  11.277%   8.626%   2.733%   1.653%   0.574%   0.235%   0.093%  13.108%   0.805%   0.196%
   47    5.2  1.5 -0.5   3.092%   0.815%   6.461%   2.580%   0.189%   0.540%  12.800%   0.087%   5.460%   1.098%
   48    6.2  1.5 -0.5   1.005%   1.401%   7.830%   0.882%   0.573%   0.279%  10.689%   1.950%   6.176%   1.117%
   49    7.2  1.5 -0.5   2.488%   1.666%   0.118%   1.415%   2.388%   3.963%   1.015%   6.010%   1.037%   5.692%
   50    8.2  1.5 -0.5   1.403%   0.874%   0.467%   3.969%   2.705%   4.323%   1.065%   5.254%   0.488%   2.427%
   51    9.2  1.5 -0.5   0.002%   0.001%   0.001%   0.005%   0.505%   0.808%   0.009%   0.046%   0.976%   4.765%
   52    1.2  1.5 -1.5   0.306%   0.579%   0.081%   0.019%   0.002%   0.001%   0.033%   0.007%   0.139%   0.036%
   53    2.2  1.5 -1.5   3.339%   2.038%   0.461%   3.778%   0.007%   0.011%   0.000%   0.000%   0.325%   1.551%
   54    3.2  1.5 -1.5   5.835%   3.660%   0.006%   0.049%   0.004%   0.006%   0.001%   0.004%   0.322%   1.578%
   55    4.2  1.5 -1.5   0.578%   2.331%   3.158%   1.557%   3.365%   9.382%   0.776%   0.004%   6.770%   2.502%
   56    5.2  1.5 -1.5  10.062%   4.659%   1.539%   3.752%   9.445%   3.605%   0.006%   0.835%   2.174%   1.270%
   57    6.2  1.5 -1.5   3.415%   2.185%   1.761%  15.177%   4.962%   8.328%   0.087%   0.652%   0.408%   1.975%
   58    7.2  1.5 -1.5   0.561%   0.784%   2.747%   0.226%   4.600%   2.536%   5.329%   1.016%   2.471%   0.464%
   59    8.2  1.5 -1.5   1.219%   1.928%   1.877%   0.239%   3.896%   2.470%   5.924%   1.180%   6.100%   1.256%
   60    9.2  1.5 -1.5   0.003%   0.004%   0.003%   0.000%   0.039%   0.025%   0.966%   0.193%   0.787%   0.161%

   Nr   State  S   Sz      51       52       53       54       55       56       57       58       59       60

    1    1.2  0.5  0.5   0.000%   0.001%   0.002%   0.000%   0.014%   0.000%   0.000%   0.000%   0.000%   0.000%
    2    2.2  0.5  0.5   0.000%   0.000%   0.000%   0.002%   0.000%   0.014%   0.000%   0.000%   0.000%   0.000%
    3    3.2  0.5  0.5   0.001%   0.000%   0.000%   0.000%   0.004%   0.011%   0.000%   0.000%   0.000%   0.000%
    4    4.2  0.5  0.5   0.146%   5.062%   8.641%   2.315%   0.000%   0.000%   4.346%   7.635%   0.151%   0.726%
    5    5.2  0.5  0.5   3.051%   0.061%   2.312%   8.579%   0.000%   0.001%   4.137%   2.229%   5.678%   0.809%
    6    6.2  0.5  0.5  15.049%   0.293%   0.030%   0.234%   0.000%   0.000%   0.578%   0.449%  10.362%   1.460%
    7    7.2  0.5  0.5   0.269%  15.803%   0.018%   0.004%   0.000%   0.000%   0.238%   0.423%   1.501%  10.848%
    8    8.2  0.5  0.5   0.004%   0.212%  12.091%   3.204%   0.000%   0.000%   4.420%   7.941%   0.080%   0.581%
    9    9.2  0.5  0.5   0.022%   1.199%   0.935%   0.255%   6.372%   2.680%   0.278%   0.527%   1.413%   9.689%
   10   10.2  0.5  0.5   0.356%   0.006%   0.001%   0.004%   2.682%   6.576%   6.976%   3.908%   0.676%   0.097%
   11   11.2  0.5  0.5   0.020%   0.001%   0.232%   0.846%   2.719%   6.445%   3.781%   2.109%   5.115%   0.769%
   12   12.2  0.5  0.5   0.022%   1.232%   1.948%   0.519%  23.990%   9.816%   0.000%   0.000%   0.000%   0.000%
   13    1.2  0.5 -0.5   0.001%   0.000%   0.000%   0.002%   0.000%   0.014%   0.000%   0.000%   0.000%   0.000%
   14    2.2  0.5 -0.5   0.000%   0.000%   0.002%   0.000%   0.014%   0.000%   0.000%   0.000%   0.000%   0.000%
   15    3.2  0.5 -0.5   0.000%   0.001%   0.000%   0.000%   0.011%   0.004%   0.000%   0.000%   0.000%   0.000%
   16    4.2  0.5 -0.5   5.062%   0.146%   2.315%   8.641%   0.000%   0.000%   7.635%   4.346%   0.726%   0.151%
   17    5.2  0.5 -0.5   0.061%   3.051%   8.579%   2.312%   0.001%   0.000%   2.229%   4.137%   0.809%   5.678%
   18    6.2  0.5 -0.5   0.293%  15.049%   0.234%   0.030%   0.000%   0.000%   0.449%   0.578%   1.460%  10.362%
   19    7.2  0.5 -0.5  15.803%   0.269%   0.004%   0.018%   0.000%   0.000%   0.423%   0.238%  10.848%   1.501%
   20    8.2  0.5 -0.5   0.212%   0.004%   3.204%  12.091%   0.000%   0.000%   7.941%   4.420%   0.581%   0.080%
   21    9.2  0.5 -0.5   1.199%   0.022%   0.255%   0.935%   2.680%   6.372%   0.527%   0.278%   9.689%   1.413%
   22   10.2  0.5 -0.5   0.006%   0.356%   0.004%   0.001%   6.576%   2.682%   3.908%   6.976%   0.097%   0.676%
   23   11.2  0.5 -0.5   0.001%   0.020%   0.846%   0.232%   6.445%   2.719%   2.109%   3.781%   0.769%   5.115%
   24   12.2  0.5 -0.5   1.232%   0.022%   0.519%   1.948%   9.816%  23.990%   0.000%   0.000%   0.000%   0.000%
   25    1.2  1.5  1.5   2.418%   0.038%   1.144%   4.351%   0.000%   0.000%   7.920%   4.488%   0.796%   0.094%
   26    2.2  1.5  1.5   0.015%   1.173%   0.228%   0.043%   0.954%   0.391%   0.135%   0.166%   0.503%   3.701%
   27    3.2  1.5  1.5   0.021%   1.201%   0.166%   0.045%   0.946%   0.387%   0.111%   0.196%   0.519%   3.681%
   28    4.2  1.5  1.5   0.353%   0.084%   0.130%   0.839%   0.992%   5.017%   0.166%   0.011%   2.470%   0.009%
   29    5.2  1.5  1.5   0.098%   0.251%   0.457%   0.089%   2.047%   0.198%   0.015%   0.174%   0.005%   2.569%
   30    6.2  1.5  1.5   0.005%   0.352%   0.311%   0.083%   1.108%   0.472%   0.053%   0.128%   0.350%   2.251%
   31    7.2  1.5  1.5   0.084%   0.001%   0.102%   0.354%   0.605%   1.357%   0.797%   0.434%   1.241%   0.209%
   32    8.2  1.5  1.5   0.375%   0.007%   0.128%   0.486%   1.371%   3.374%   0.935%   0.519%   1.038%   0.143%
   33    9.2  1.5  1.5  13.041%   0.240%   6.179%  23.150%   0.000%   0.000%   8.514%   4.774%   0.826%   0.121%
   34    1.2  1.5  0.5   0.014%   0.897%   0.453%   0.150%   1.301%   0.554%   0.020%   0.069%   0.150%   1.222%
   35    2.2  1.5  0.5   0.558%   0.007%   1.252%   4.596%   0.153%   0.321%   4.487%   2.485%   2.908%   0.382%
   36    3.2  1.5  0.5   6.484%   0.119%   0.019%   0.073%   0.130%   0.317%   1.288%   0.729%   7.221%   1.031%
   37    4.2  1.5  0.5   0.062%   0.015%   0.118%   0.023%   0.182%   0.488%   0.214%   2.397%   0.002%   0.177%
   38    5.2  1.5  0.5   0.431%   0.005%   0.069%   0.503%   1.293%   3.096%   2.370%   0.198%   0.176%   0.001%
   39    6.2  1.5  0.5   0.315%   0.005%   0.263%   0.890%   1.558%   3.448%   1.706%   0.905%   0.152%   0.032%
   40    7.2  1.5  0.5   0.007%   0.493%   0.844%   0.248%   3.204%   1.454%   0.491%   0.990%   0.157%   1.063%
   41    8.2  1.5  0.5   0.005%   0.288%   0.206%   0.056%   1.382%   0.576%   0.435%   0.763%   0.182%   1.271%
   42    9.2  1.5  0.5   0.491%  27.235%   7.733%   2.051%   0.000%   0.000%   0.333%   0.607%   1.660%  11.731%
   43    1.2  1.5 -0.5   0.897%   0.014%   0.150%   0.453%   0.554%   1.301%   0.069%   0.020%   1.222%   0.150%
   44    2.2  1.5 -0.5   0.007%   0.558%   4.596%   1.252%   0.321%   0.153%   2.485%   4.487%   0.382%   2.908%
   45    3.2  1.5 -0.5   0.119%   6.484%   0.073%   0.019%   0.317%   0.130%   0.729%   1.288%   1.031%   7.221%
   46    4.2  1.5 -0.5   0.015%   0.062%   0.023%   0.118%   0.488%   0.182%   2.397%   0.214%   0.177%   0.002%
   47    5.2  1.5 -0.5   0.005%   0.431%   0.503%   0.069%   3.096%   1.293%   0.198%   2.370%   0.001%   0.176%
   48    6.2  1.5 -0.5   0.005%   0.315%   0.890%   0.263%   3.448%   1.558%   0.905%   1.706%   0.032%   0.152%
   49    7.2  1.5 -0.5   0.493%   0.007%   0.248%   0.844%   1.454%   3.204%   0.990%   0.491%   1.063%   0.157%
   50    8.2  1.5 -0.5   0.288%   0.005%   0.056%   0.206%   0.576%   1.382%   0.763%   0.435%   1.271%   0.182%
   51    9.2  1.5 -0.5  27.235%   0.491%   2.051%   7.733%   0.000%   0.000%   0.607%   0.333%  11.731%   1.660%
   52    1.2  1.5 -1.5   0.038%   2.418%   4.351%   1.144%   0.000%   0.000%   4.488%   7.920%   0.094%   0.796%
   53    2.2  1.5 -1.5   1.173%   0.015%   0.043%   0.228%   0.391%   0.954%   0.166%   0.135%   3.701%   0.503%
   54    3.2  1.5 -1.5   1.201%   0.021%   0.045%   0.166%   0.387%   0.946%   0.196%   0.111%   3.681%   0.519%
   55    4.2  1.5 -1.5   0.084%   0.353%   0.839%   0.130%   5.017%   0.992%   0.011%   0.166%   0.009%   2.470%
   56    5.2  1.5 -1.5   0.251%   0.098%   0.089%   0.457%   0.198%   2.047%   0.174%   0.015%   2.569%   0.005%
   57    6.2  1.5 -1.5   0.352%   0.005%   0.083%   0.311%   0.472%   1.108%   0.128%   0.053%   2.251%   0.350%
   58    7.2  1.5 -1.5   0.001%   0.084%   0.354%   0.102%   1.357%   0.605%   0.434%   0.797%   0.209%   1.241%
   59    8.2  1.5 -1.5   0.007%   0.375%   0.486%   0.128%   3.374%   1.371%   0.519%   0.935%   0.143%   1.038%
   60    9.2  1.5 -1.5   0.240%  13.041%  23.150%   6.179%   0.000%   0.000%   4.774%   8.514%   0.121%   0.826%


 Property matrices transformed in SO basis (not sym. adapted)
 ============================================================

 No matrix element <i|DMX|i> larger than 5E-7
 No matrix element <i|DMX|1> larger than 5E-7

 No matrix element <i|DMY|i> larger than 5E-7
 No matrix element <i|DMY|1> larger than 5E-7

 No matrix element <i|DMZ|i> larger than 5E-7
 No matrix element <i|DMZ|1> larger than 5E-7


 **********************************************************************************************************************************
 DATASETS  * FILE   NREC   LENGTH (MB)   RECORD NAMES
              1      21       39.05       500      610      700      900      950      970     1000      129      960     1100   
                                          VAR    BASINP    GEOM    SYMINP    ZMAT    AOBASIS   BASIS     P2S    ABASIS      S 
                                         1400     1410     1420     1200     1210     1080     1700     1600     1650     1380   
                                           T        V       ECP      H0       H01     AOSYM    OPER      SMH    MOLCAS    JKOP   
                                         1700(1)
                                         OPER   

              2       7     1944.75       700     1000      520     2100     2140     5203     5303   
                                         GEOM     BASIS   MCVARS     RHF     MCSCF    MRCI     MRCI   

 PROGRAMS   *        TOTAL        CI        CI        CI     MULTI   RHF-SCF       INT
 CPU TIMES  *    284323.58 270553.34   4272.30   9492.54      4.04      0.11      1.02
 REAL TIME  *    286289.00 SEC
 DISK USED  *         1.94 GB (local),       15.54 GB (total)
 SF USED    *        12.77 GB
 GA USED    *         0.00 MB       (max)       0.00 MB       (current)
 **********************************************************************************************************************************

 CI/USERDEF energy=   -295.200677681921

              CI              CI           MULTI         RHF-SCF
   -295.14632469   -295.14650551   -294.35920170   -294.74654372
 **********************************************************************************************************************************
 Molpro calculation terminated with 1 warning(s)
