
 Working directory              : /wrk/irikura/molpro.AwBP1KcgcR/
 Global scratch directory       : /wrk/irikura/molpro.AwBP1KcgcR/
 Wavefunction directory         : /home/irikura/wfu/
 Main file repository           : /wrk/irikura/molpro.AwBP1KcgcR/

 id        : nistki

 Nodes            nprocs
 pn112695.nist.gov   12
 GA implementation: MPI file
 GA implementation (serial work in mppx): MPI file

 Using customized tuning parameters: mindgm=1; mindgv=20; mindgc=4; mindgr=1; noblas=0; minvec=7
 default implementation of scratch files=sf  


 Variables initialized (1040), CPU time= 0.01 sec
 ***,I SO-CI
                                                                                 ! active space (7/7)
                                                                                 ! additional diffuse spdf functions
 memory,4000,M;
 
 gprint,orbitals,civector;
                                                                                 !gthresh,energy=1.d-10,coeff=1.d-8;
 
 symmetry,xyz
 geometry={I};
 
 basis={
 ecp,i,ECP28MDF;
 spdfg,i,aug-cc-pwCVTZ-PP;C; spdf,1,even,nprim=1,ratio=3.0;
 }
 
 {rhf;wf,charge=-1}
 
 NDOUB=12
 NQUAR=9
 
 {multi
     occ,7,9
     closed,6,3
     wf,charge=0,sym=2,spin=1;state,NDOUB;
     wf,charge=0,sym=2,spin=3;state,NQUAR;
     expec2,lxx,lyy,lzz;
 }
 table, energy, ll
 title, Energies and &lt;L**2&gt; values
 
 core,0,0
 
 {ci;wf,sym=2,spin=1;state,NDOUB; save,5203.2}
 hlsdiag = energd4
 {ci;wf,sym=2,spin=3;state,NQUAR; save,5303.2}
 hlsdiag(NDOUB+1) = energd4
 
 table,hlsdiag
 
 {ci;hlsmat,ecp,5203.2,5303.2;print,vls=0,hls=0}                                 !compute and diagonalize SO matrix
 Commands initialized (846), CPU time= 0.02 sec, 717 directives.
 Default parameters read. Elapsed time= 0.19 sec

 Checking input...
 Passed
1


                                         ***  PROGRAM SYSTEM MOLPRO  ***
                                       Copyright, TTI GmbH Stuttgart, 2015
                                    Version 2023.2 linked Fri Sep 22 03:27:09 2023


 **********************************************************************************************************************************
 LABEL *   I SO-CI                                                                                                                                                       
  (32 PROC) 64 bit mpp version                                                           DATE: 05-Oct-24          TIME: 12:34:49  
 **********************************************************************************************************************************

 SHA1:             3c61bfe44d37c8635c785372c339f5cbdd4e4b59
 **********************************************************************************************************************************

 Memory per process:      4000 MW
 Total memory per node:  48000 MW

 GA preallocation disabled
 GA check disabled

 Variable memory set to 4000.0 MW


 ZSYMEL=XYZ

 SETTING BASIS          =    USERDEF


 Recomputing integrals since basis changed


 Using spherical harmonics

 Library entry I    ECP ECP28MDF                 selected for group  1
 Library entry I      S AUG-CC-PWCVTZ-PP     selected for orbital group  1
 Even tempered I  S diffuse               selected for group 1    nprim= 1    centre=  0.014    ratio= 3.000    dratio= 1.000
 Library entry I      P AUG-CC-PWCVTZ-PP     selected for orbital group  1
 Even tempered I  P diffuse               selected for group 1    nprim= 1    centre=  0.012    ratio= 3.000    dratio= 1.000
 Library entry I      D AUG-CC-PWCVTZ-PP     selected for orbital group  1
 Even tempered I  D diffuse               selected for group 1    nprim= 1    centre=  0.026    ratio= 3.000    dratio= 1.000
 Library entry I      F AUG-CC-PWCVTZ-PP     selected for orbital group  1
 Even tempered I  F diffuse               selected for group 1    nprim= 1    centre=  0.062    ratio= 3.000    dratio= 1.000
 Library entry I      G AUG-CC-PWCVTZ-PP     selected for orbital group  1


 PROGRAM * SEWARD (Integral evaluation for generally contracted gaussian basis sets)     Author: Roland Lindh, 1990

 Geometry written to block  1 of record 700

 Orientation using atomic masses  
 Molecule type: Atom
 User-specified symmetry elements: XYZ
 Symmetry elements: XYZ
 Rotational constants:       0.0000000      0.0000000      0.0000000 GHz  (calculated with average atomic masses)

 Point group  Ci  



 ATOMIC COORDINATES

 NR  ATOM    CHARGE       X              Y              Z

   1  I      25.00    0.000000000    0.000000000    0.000000000

 NUCLEAR CHARGE:                   25
 NUMBER OF PRIMITIVE AOS:         204
 NUMBER OF SYMMETRY AOS:          170
 NUMBER OF CONTRACTIONS:          112   (   53Ag  +   59Au  )
 NUMBER OF INNER CORE ORBITALS:     0   (    0Ag  +    0Au  )
 NUMBER OF OUTER CORE ORBITALS:     9   (    6Ag  +    3Au  )
 NUMBER OF VALENCE ORBITALS:        4   (    1Ag  +    3Au  )


 LX: Ag           LY: Ag           LZ: Ag 


 NUCLEAR REPULSION ENERGY    0.00000000

 EXTRA SYMMETRY OF AOS IN SYMMETRY 1:   1 1 1 1 1 1 1 1 1 2   3 4 5 6 2 3 4 5 6 2   3 4 5 6 2 3 4 5 6 2   3 4 5 6 2 3 4 5 6 2
                                        3 4 5 6 7 8 9101112  131415
 EXTRA SYMMETRY OF AOS IN SYMMETRY 2:   1 2 3 1 2 3 1 2 3 1   2 3 1 2 3 1 2 3 1 2   3 1 2 3 4 5 6 7 8 9  10 4 5 6 7 8 910 4 5
                                        6 7 8 910 4 5 6 7 8   910 4 5 6 7 8 910


 Eigenvalues of metric

         1 0.169E-04 0.125E-02 0.515E-02 0.515E-02 0.515E-02 0.515E-02 0.515E-02 0.549E-02
         2 0.573E-02 0.573E-02 0.573E-02 0.118E-01 0.118E-01 0.118E-01 0.908E-01 0.908E-01


 Contracted 2-electron integrals neglected if value below      1.0D-12
 AO integral compression algorithm  1   Integral accuracy      1.0D-12

     28.836 MB (compressed) written to integral file ( 17.5%)

     Node minimum: 1.573 MB, node maximum: 3.670 MB


 NUMBER OF SORTED TWO-ELECTRON INTEGRALS:     847287.     BUFFER LENGTH:  32768
 NUMBER OF SEGMENTS:   1  SEGMENT LENGTH:     847287      RECORD LENGTH: 524288

 Memory used in sort:       1.40 MW

 SORT1 READ    21109381. AND WROTE      166541. INTEGRALS IN      1 RECORDS. CPU TIME:     0.10 SEC, REAL TIME:     0.10 SEC
 SORT2 READ     2032599. AND WROTE    10190541. INTEGRALS IN    120 RECORDS. CPU TIME:     0.02 SEC, REAL TIME:     0.03 SEC

 Node minimum:      845957.  Node maximum:      852384. integrals

 OPERATOR DM      FOR CENTER  0  COORDINATES:    0.000000    0.000000    0.000000


 **********************************************************************************************************************************
 DATASETS  * FILE   NREC   LENGTH (MB)   RECORD NAMES
              1      19       28.94       500      610      700      900      950      970     1000      129      960     1100   
                                          VAR    BASINP    GEOM    SYMINP    ZMAT    AOBASIS   BASIS     P2S    ABASIS      S 
                                         1400     1410     1420     1200     1210     1080     1700     1600     1650   
                                           T        V       ECP      H0       H01     AOSYM    OPER      SMH    MOLCAS    

 PROGRAMS   *        TOTAL       INT
 CPU TIMES  *         1.47      1.17
 REAL TIME  *         3.35 SEC
 DISK USED  *        29.28 MB (local),      413.43 MB (total)
 GA USED    *         0.00 MB       (max)       0.00 MB       (current)
 **********************************************************************************************************************************


 Program * Restricted Hartree-Fock

 Orbital guess generated from atomic densities.

 Initial occupancy:   7   6

 NELEC=   26   SYM=1   MS2= 0   THRE=1.0D-08   THRD=3.2D-06   THRG=3.2D-06  HFMA2=F  DIIS_START=2   DIIS_MAX=10   DIIS_INCORE=F

 Level shifts:    0.00 (CLOSED)    0.00 (OPEN)    0.30 (GAP_MIN)

 ITER           ETOT              DE          GRAD        DDIFF     DIIS  NEXP   TIME(IT)  TIME(TOT)  DIAG
   1     -294.71863326    -294.71863326     0.00D+00     0.13D+00     0     0       0.01      0.02    start
   2     -294.74411714      -0.02548388     0.46D-02     0.13D-01     1     0       0.00      0.02    diag
   3     -294.74616668      -0.00204954     0.26D-02     0.21D-02     2     0       0.01      0.03    diag
   4     -294.74648011      -0.00031343     0.44D-03     0.85D-03     3     0       0.00      0.03    diag
   5     -294.74653920      -0.00005909     0.14D-03     0.53D-03     4     0       0.01      0.04    diag
   6     -294.74654357      -0.00000437     0.33D-04     0.18D-03     5     0       0.00      0.04    diag
   7     -294.74654371      -0.00000014     0.45D-05     0.24D-04     6     0       0.01      0.05    diag
   8     -294.74654372      -0.00000001     0.98D-06     0.95D-05     7     0       0.00      0.05    fixocc
   9     -294.74654372      -0.00000000     0.70D-07     0.30D-06     8     0       0.01      0.06    diag
  10     -294.74654372      -0.00000000     0.13D-07     0.34D-07     0     0       0.00      0.06    diag/orth

 Final occupancy:   7   6

 !RHF STATE 1.1 Energy               -294.746543715315
  RHF One-electron energy            -520.925437582748
  RHF Two-electron energy             226.178893867433
  RHF Kinetic energy                  110.887384553766
  RHF Nuclear energy                    0.000000000000
  RHF Virial quotient                  -2.658071023151

 !RHF STATE 1.1 Dipole moment           0.00000000     0.00000000     0.00000000
 Dipole moment /Debye                   0.00000000     0.00000000     0.00000000

 ELECTRON ORBITALS
 =================

  Orbital  Occupation    Energy    Cen Mu Typ  Coefficients
    1.1     2.00000    -7.45092     1  1  s    1.00263
    2.1     2.00000    -2.00367     1  1  d0   0.99954
    3.1     2.00000    -2.00367     1  1  d1-  0.99832
    4.1     2.00000    -2.00367     1  1  d2-  0.34112    1  1  d1+  0.72848    1  1  d2+  0.59330
    5.1     2.00000    -2.00367     1  1  d1+ -0.63678    1  1  d2+  0.76866
    6.1     2.00000    -2.00367     1  1  d2-  0.93922
    7.1     2.00000    -0.60771     1  2  s    0.97222
    1.2     2.00000    -5.27630     1  1  pz   0.99607
    2.2     2.00000    -5.27630     1  1  px   1.00022
    3.2     2.00000    -5.27630     1  1  py   0.99607
    4.2     2.00000    -0.12598     1  2  py   0.87696
    5.2     2.00000    -0.12598     1  2  px   0.87696
    6.2     2.00000    -0.12598     1  2  pz   0.87696


 HOMO      6.2    -0.125977 =      -3.4280eV
 LUMO      7.2     0.121193 =       3.2978eV
 LUMO-HOMO         0.247170 =       6.7258eV

 Orbitals saved in record  2100.2


 **********************************************************************************************************************************
 DATASETS  * FILE   NREC   LENGTH (MB)   RECORD NAMES
              1      19       28.94       500      610      700      900      950      970     1000      129      960     1100   
                                          VAR    BASINP    GEOM    SYMINP    ZMAT    AOBASIS   BASIS     P2S    ABASIS      S 
                                         1400     1410     1420     1200     1210     1080     1700     1600     1650   
                                           T        V       ECP      H0       H01     AOSYM    OPER      SMH    MOLCAS    

              2       4        0.48       700     1000      520     2100   
                                         GEOM     BASIS   MCVARS     RHF  

 PROGRAMS   *        TOTAL   RHF-SCF       INT
 CPU TIMES  *         1.53      0.06      1.17
 REAL TIME  *         4.27 SEC
 DISK USED  *        29.93 MB (local),      421.17 MB (total)
 GA USED    *         0.00 MB       (max)       0.00 MB       (current)
 **********************************************************************************************************************************
 SETTING NDOUB          =        12.00000000                                  
 SETTING NQUAR          =         9.00000000                                  

 PROGRAM * MULTI (Direct Multiconfiguration SCF)       Authors: P.J. Knowles, H.-J. Werner (1984)
                                                                D.A. Kreplin, P.J. Knowles, H.-J. Werner (2019)

 Number of closed-shell orbitals:   9 (    6    3)
 Number of active  orbitals:        7 (    1    6)
 Number of external orbitals:      96 (   46   50)

 State symmetry 1

 Number of active electrons:   7    Spin symmetry=Doublet   Space symmetry=2
 Number of states:            12
 Number of CSFs:             420   (600 determinants, 1225 intermediate states)

 State symmetry 2

 Number of active electrons:   7    Spin symmetry=Quartet   Space symmetry=2
 Number of states:             9
 Number of CSFs:             168   (180 determinants, 441 intermediate states)

 Molecular orbitals read from record     2100.2  Type=RHF/CANONICAL  
 *** IN SYMMETRY 1 ORBITAL  2 SYMMETRY CONTAMINATION OF 0.194D-04 HAS BEEN REMOVED
 *** IN SYMMETRY 1 ORBITAL  3 SYMMETRY CONTAMINATION OF 0.701D-01 HAS BEEN REMOVED
 *** IN SYMMETRY 1 ORBITAL  4 SYMMETRY CONTAMINATION OF 0.563D+00 HAS BEEN REMOVED
 *** IN SYMMETRY 1 ORBITAL  5 SYMMETRY CONTAMINATION OF 0.479D+00 HAS BEEN REMOVED
 *** IN SYMMETRY 1 ORBITAL  6 SYMMETRY CONTAMINATION OF 0.345D+00 HAS BEEN REMOVED

 EXTRA SYMMETRY OF MOS IN SYMMETRY 1:   1 2 6 4 5 3 1 1 2 3   5 4 6 1 2 3 5 6 4 1   2 3 5 4 6 1 2 5 3 6   4 2 3 5 6 4 8121514
                                        711 91310 1 2 5 3 6   4 1 1
 *** IN SYMMETRY 2 ORBITAL  1 SYMMETRY CONTAMINATION OF 0.837D-01 HAS BEEN REMOVED
 *** IN SYMMETRY 2 ORBITAL  3 SYMMETRY CONTAMINATION OF 0.837D-01 HAS BEEN REMOVED
 *** IN SYMMETRY 2 ORBITAL  4 SYMMETRY CONTAMINATION OF 0.218D-03 HAS BEEN REMOVED
 *** IN SYMMETRY 2 ORBITAL  5 SYMMETRY CONTAMINATION OF 0.350D-04 HAS BEEN REMOVED
 *** IN SYMMETRY 2 ORBITAL  6 SYMMETRY CONTAMINATION OF 0.199D-03 HAS BEEN REMOVED
 *** IN SYMMETRY 2 ORBITAL  7 SYMMETRY CONTAMINATION OF 0.476D-04 HAS BEEN REMOVED
 *** IN SYMMETRY 2 ORBITAL  8 SYMMETRY CONTAMINATION OF 0.189D-04 HAS BEEN REMOVED
 *** IN SYMMETRY 2 ORBITAL  9 SYMMETRY CONTAMINATION OF 0.593D-04 HAS BEEN REMOVED
 EXTRA SYMMETRY OF MOS IN SYMMETRY 2:   3 1 2 2 1 3 3 1 2 3   1 2 810 6 4 5 9 7 1   2 310 8 6 5 4 9 7 6   4 5 7 9 810 3 1 2 7
                                        9 6 4 510 8 1 2 3 6   7 9 4 5 810 2 1 3

 Wavefunction dump at record             2140.2

 Convergence thresholds  0.10E-04 (gradient)  0.10E-05 (energy)

 Weight factors for state symmetry  1:    0.04762   0.04762   0.04762   0.04762   0.04762   0.04762   0.04762   0.04762
                                          0.04762   0.04762   0.04762   0.04762
 Weight factors for state symmetry  2:    0.04762   0.04762   0.04762   0.04762   0.04762   0.04762   0.04762   0.04762
                                          0.04762
 
 Number of orbital rotations:  796  ( 24 closed/active, 426 closed/virtual, 0 active/active, 346 active/virtual )
 Total number of variables:    9616
 
 Second-order MCSCF: L-BFGS accelerated
 
 ITER  MIC  NCI  NEG     ENERGY(VAR)    ENERGY(PROJ) ENERGY CHANGE       GRAD(0)  GRAD(ORB)   GRAD(CI)      STEP      TIME
   1    7   23    0   -294.30614990    -294.44373901   -0.13758912    0.39259614 0.00164276 0.00158064  0.87E+00      1.36
   2    8   24    0   -294.40942432    -294.41827709   -0.00885277    0.26109115 0.00003913 0.00005506  0.22E+00      3.18
   3    7   19    0   -294.41833180    -294.41833304   -0.00000123    0.00276635 0.00000002 0.00000005  0.94E-03      4.67
   4   24   48    0   -294.41833304    -294.41833304   -0.00000000    0.00000093 0.00000002 0.00000000  0.41E-06      7.99

 CONVERGENCE REACHED!  Final gradient:    0.00000018 ( 0.18E-06)
                       Final energy:   -294.41833304
 
 Results for state 1.2 Doublet
 =============================
 !MCSCF STATE 1.2 Doublet Energy              -294.640689662282
 Nuclear energy                                  0.00000000
 Kinetic energy                                111.40408225
 One electron energy                          -515.24905956
 Two electron energy                           220.60836990
 Virial ratio                                    3.64479258
 
 !MCSCF STATE 1.2 Doublet Dipole moment          0.00000000     0.00000000     0.00000000
 Dipole moment /Debye                            0.00000000     0.00000000     0.00000000
 
 Results for state 2.2 Doublet
 =============================
 !MCSCF STATE 2.2 Doublet Energy              -294.640689662279
 Nuclear energy                                  0.00000000
 Kinetic energy                                111.40408224
 One electron energy                          -515.24905956
 Two electron energy                           220.60836989
 Virial ratio                                    3.64479258
 
 !MCSCF STATE 2.2 Doublet Dipole moment          0.00000000     0.00000000     0.00000000
 Dipole moment /Debye                            0.00000000     0.00000000     0.00000000
 
 Results for state 3.2 Doublet
 =============================
 !MCSCF STATE 3.2 Doublet Energy              -294.640689662242
 Nuclear energy                                  0.00000000
 Kinetic energy                                111.40408225
 One electron energy                          -515.24905956
 Two electron energy                           220.60836990
 Virial ratio                                    3.64479258
 
 !MCSCF STATE 3.2 Doublet Dipole moment          0.00000000     0.00000000     0.00000000
 Dipole moment /Debye                            0.00000000     0.00000000     0.00000000
 
 Results for state 4.2 Doublet
 =============================
 !MCSCF STATE 4.2 Doublet Energy              -294.381193594966
 Nuclear energy                                  0.00000000
 Kinetic energy                                110.50404898
 One electron energy                          -508.05504467
 Two electron energy                           213.67385108
 Virial ratio                                    3.66398559
 
 !MCSCF STATE 4.2 Doublet Dipole moment          0.00000000     0.00000000     0.00000000
 Dipole moment /Debye                            0.00000000     0.00000000     0.00000000
 
 Results for state 5.2 Doublet
 =============================
 !MCSCF STATE 5.2 Doublet Energy              -294.381193594962
 Nuclear energy                                  0.00000000
 Kinetic energy                                110.50404898
 One electron energy                          -508.05504467
 Two electron energy                           213.67385108
 Virial ratio                                    3.66398559
 
 !MCSCF STATE 5.2 Doublet Dipole moment          0.00000000     0.00000000     0.00000000
 Dipole moment /Debye                            0.00000000     0.00000000     0.00000000
 
 Results for state 6.2 Doublet
 =============================
 !MCSCF STATE 6.2 Doublet Energy              -294.381193594956
 Nuclear energy                                  0.00000000
 Kinetic energy                                110.50404898
 One electron energy                          -508.05504467
 Two electron energy                           213.67385108
 Virial ratio                                    3.66398559
 
 !MCSCF STATE 6.2 Doublet Dipole moment          0.00000000     0.00000000     0.00000000
 Dipole moment /Debye                            0.00000000     0.00000000     0.00000000
 
 Results for state 7.2 Doublet
 =============================
 !MCSCF STATE 7.2 Doublet Energy              -294.381193594955
 Nuclear energy                                  0.00000000
 Kinetic energy                                110.50404898
 One electron energy                          -508.05504467
 Two electron energy                           213.67385107
 Virial ratio                                    3.66398559
 
 !MCSCF STATE 7.2 Doublet Dipole moment          0.00000000     0.00000000     0.00000000
 Dipole moment /Debye                            0.00000000     0.00000000     0.00000000
 
 Results for state 8.2 Doublet
 =============================
 !MCSCF STATE 8.2 Doublet Energy              -294.381193594953
 Nuclear energy                                  0.00000000
 Kinetic energy                                110.50404898
 One electron energy                          -508.05504467
 Two electron energy                           213.67385108
 Virial ratio                                    3.66398559
 
 !MCSCF STATE 8.2 Doublet Dipole moment          0.00000000     0.00000000     0.00000000
 Dipole moment /Debye                            0.00000000     0.00000000     0.00000000
 
 Results for state 9.2 Doublet
 =============================
 !MCSCF STATE 9.2 Doublet Energy              -294.375936387259
 Nuclear energy                                  0.00000000
 Kinetic energy                                110.50195168
 One electron energy                          -508.04842114
 Two electron energy                           213.67248475
 Virial ratio                                    3.66398857
 
 !MCSCF STATE 9.2 Doublet Dipole moment          0.00000000     0.00000000     0.00000000
 Dipole moment /Debye                            0.00000000     0.00000000     0.00000000
 
 Results for state 10.2 Doublet
 ==============================
 !MCSCF STATE 10.2 Doublet Energy             -294.375386792853
 Nuclear energy                                  0.00000000
 Kinetic energy                                110.58054609
 One electron energy                          -508.38307570
 Two electron energy                           214.00768891
 Virial ratio                                    3.66209019
 
 !MCSCF STATE 10.2 Doublet Dipole moment         0.00000000     0.00000000     0.00000000
 Dipole moment /Debye                            0.00000000     0.00000000     0.00000000
 
 Results for state 11.2 Doublet
 ==============================
 !MCSCF STATE 11.2 Doublet Energy             -294.375386792848
 Nuclear energy                                  0.00000000
 Kinetic energy                                110.58054609
 One electron energy                          -508.38307570
 Two electron energy                           214.00768891
 Virial ratio                                    3.66209019
 
 !MCSCF STATE 11.2 Doublet Dipole moment         0.00000000     0.00000000     0.00000000
 Dipole moment /Debye                            0.00000000     0.00000000     0.00000000
 
 Results for state 12.2 Doublet
 ==============================
 !MCSCF STATE 12.2 Doublet Energy             -294.375386792844
 Nuclear energy                                  0.00000000
 Kinetic energy                                110.58054609
 One electron energy                          -508.38307570
 Two electron energy                           214.00768891
 Virial ratio                                    3.66209019
 
 !MCSCF STATE 12.2 Doublet Dipole moment         0.00000000     0.00000000     0.00000000
 Dipole moment /Debye                            0.00000000     0.00000000     0.00000000
 
 Results for state 1.2 Quartet
 =============================
 !MCSCF STATE 1.2 Quartet Energy              -294.387822461317
 Nuclear energy                                  0.00000000
 Kinetic energy                                110.48913036
 One electron energy                          -508.00272773
 Two electron energy                           213.61490527
 Virial ratio                                    3.66440528
 
 !MCSCF STATE 1.2 Quartet Dipole moment          0.00000000     0.00000000     0.00000000
 Dipole moment /Debye                            0.00000000     0.00000000     0.00000000
 
 Results for state 2.2 Quartet
 =============================
 !MCSCF STATE 2.2 Quartet Energy              -294.387822461306
 Nuclear energy                                  0.00000000
 Kinetic energy                                110.48913036
 One electron energy                          -508.00272773
 Two electron energy                           213.61490527
 Virial ratio                                    3.66440528
 
 !MCSCF STATE 2.2 Quartet Dipole moment          0.00000000     0.00000000     0.00000000
 Dipole moment /Debye                            0.00000000     0.00000000     0.00000000
 
 Results for state 3.2 Quartet
 =============================
 !MCSCF STATE 3.2 Quartet Energy              -294.387822461305
 Nuclear energy                                  0.00000000
 Kinetic energy                                110.48913036
 One electron energy                          -508.00272773
 Two electron energy                           213.61490527
 Virial ratio                                    3.66440528
 
 !MCSCF STATE 3.2 Quartet Dipole moment          0.00000000     0.00000000     0.00000000
 Dipole moment /Debye                            0.00000000     0.00000000     0.00000000
 
 Results for state 4.2 Quartet
 =============================
 !MCSCF STATE 4.2 Quartet Energy              -294.383039501572
 Nuclear energy                                  0.00000000
 Kinetic energy                                110.49456657
 One electron energy                          -508.02235316
 Two electron energy                           213.63931365
 Virial ratio                                    3.66423091
 
 !MCSCF STATE 4.2 Quartet Dipole moment          0.00000000     0.00000000     0.00000000
 Dipole moment /Debye                            0.00000000     0.00000000     0.00000000
 
 Results for state 5.2 Quartet
 =============================
 !MCSCF STATE 5.2 Quartet Energy              -294.383039501572
 Nuclear energy                                  0.00000000
 Kinetic energy                                110.49456657
 One electron energy                          -508.02235316
 Two electron energy                           213.63931365
 Virial ratio                                    3.66423091
 
 !MCSCF STATE 5.2 Quartet Dipole moment          0.00000000     0.00000000     0.00000000
 Dipole moment /Debye                            0.00000000     0.00000000     0.00000000
 
 Results for state 6.2 Quartet
 =============================
 !MCSCF STATE 6.2 Quartet Energy              -294.383039501563
 Nuclear energy                                  0.00000000
 Kinetic energy                                110.49456657
 One electron energy                          -508.02235315
 Two electron energy                           213.63931365
 Virial ratio                                    3.66423091
 
 !MCSCF STATE 6.2 Quartet Dipole moment          0.00000000     0.00000000     0.00000000
 Dipole moment /Debye                            0.00000000     0.00000000     0.00000000
 
 Results for state 7.2 Quartet
 =============================
 !MCSCF STATE 7.2 Quartet Energy              -294.383039501562
 Nuclear energy                                  0.00000000
 Kinetic energy                                110.49456657
 One electron energy                          -508.02235316
 Two electron energy                           213.63931365
 Virial ratio                                    3.66423091
 
 !MCSCF STATE 7.2 Quartet Dipole moment          0.00000000     0.00000000     0.00000000
 Dipole moment /Debye                            0.00000000     0.00000000     0.00000000
 
 Results for state 8.2 Quartet
 =============================
 !MCSCF STATE 8.2 Quartet Energy              -294.383039501559
 Nuclear energy                                  0.00000000
 Kinetic energy                                110.49456657
 One electron energy                          -508.02235316
 Two electron energy                           213.63931365
 Virial ratio                                    3.66423091
 
 !MCSCF STATE 8.2 Quartet Dipole moment          0.00000000     0.00000000     0.00000000
 Dipole moment /Debye                            0.00000000     0.00000000     0.00000000
 
 Results for state 9.2 Quartet
 =============================
 !MCSCF STATE 9.2 Quartet Energy              -294.376195164375
 Nuclear energy                                  0.00000000
 Kinetic energy                                110.49949805
 One electron energy                          -508.03860192
 Two electron energy                           213.66240675
 Virial ratio                                    3.66405007
 
 !MCSCF STATE 9.2 Quartet Dipole moment          0.00000000     0.00000000     0.00000000
 Dipole moment /Debye                            0.00000000     0.00000000     0.00000000
 
 State-averaged charge density matrix saved on record 2140.2 (density set 1)
 
 No non-zero expectation values
 
 Expectation values for two-electron operators:
 
 ? Warning
 ? Transition properties are only calculated between states of the same symmetry
 ? The problem occurs in mu_properties_expec2

 !MCSCF expec      <1.2 Doublet|LXLX|1.2 Doublet>     0.999999905539
 !MCSCF expec      <2.2 Doublet|LXLX|2.2 Doublet>     0.999999999581
 !MCSCF expec      <3.2 Doublet|LXLX|3.2 Doublet>     0.000000094877
 !MCSCF expec      <4.2 Doublet|LXLX|4.2 Doublet>     0.651525828456
 !MCSCF expec      <5.2 Doublet|LXLX|5.2 Doublet>     1.000001106305
 !MCSCF expec      <6.2 Doublet|LXLX|6.2 Doublet>     3.348410001958
 !MCSCF expec      <7.2 Doublet|LXLX|7.2 Doublet>     1.000065375921
 !MCSCF expec      <8.2 Doublet|LXLX|8.2 Doublet>     3.999997687384
 !MCSCF expec      <9.2 Doublet|LXLX|9.2 Doublet>    -0.000000000002
 !MCSCF expec    <10.2 Doublet|LXLX|10.2 Doublet>     0.999999357380
 !MCSCF expec    <11.2 Doublet|LXLX|11.2 Doublet>     0.000000702720
 !MCSCF expec    <12.2 Doublet|LXLX|12.2 Doublet>     0.999999939899
 !MCSCF expec      <1.2 Quartet|LXLX|1.2 Quartet>     0.999999999979
 !MCSCF expec      <2.2 Quartet|LXLX|2.2 Quartet>     0.999999999992
 !MCSCF expec      <3.2 Quartet|LXLX|3.2 Quartet>    -0.000000000004
 !MCSCF expec      <4.2 Quartet|LXLX|4.2 Quartet>     0.799280267522
 !MCSCF expec      <5.2 Quartet|LXLX|5.2 Quartet>     1.000000009060
 !MCSCF expec      <6.2 Quartet|LXLX|6.2 Quartet>     1.000000014112
 !MCSCF expec      <7.2 Quartet|LXLX|7.2 Quartet>     4.000000000011
 !MCSCF expec      <8.2 Quartet|LXLX|8.2 Quartet>     3.200384015560
 !MCSCF expec      <9.2 Quartet|LXLX|9.2 Quartet>    -0.000000000003
 
 !MCSCF expec      <1.2 Doublet|LYLY|1.2 Doublet>     0.999983633399
 !MCSCF expec      <2.2 Doublet|LYLY|2.2 Doublet>     0.000016366967
 !MCSCF expec      <3.2 Doublet|LYLY|3.2 Doublet>     0.999999999631
 !MCSCF expec      <4.2 Doublet|LYLY|4.2 Doublet>     1.395092454180
 !MCSCF expec      <5.2 Doublet|LYLY|5.2 Doublet>     0.999999117717
 !MCSCF expec      <6.2 Doublet|LYLY|6.2 Doublet>     2.604939278266
 !MCSCF expec      <7.2 Doublet|LYLY|7.2 Doublet>     3.999961403524
 !MCSCF expec      <8.2 Doublet|LYLY|8.2 Doublet>     1.000007746337
 !MCSCF expec      <9.2 Doublet|LYLY|9.2 Doublet>    -0.000000000002
 !MCSCF expec    <10.2 Doublet|LYLY|10.2 Doublet>     0.999999999667
 !MCSCF expec    <11.2 Doublet|LYLY|11.2 Doublet>     0.999999939892
 !MCSCF expec    <12.2 Doublet|LYLY|12.2 Doublet>     0.000000060439
 !MCSCF expec      <1.2 Quartet|LYLY|1.2 Quartet>     0.999999992572
 !MCSCF expec      <2.2 Quartet|LYLY|2.2 Quartet>     0.000000018853
 !MCSCF expec      <3.2 Quartet|LYLY|3.2 Quartet>     1.000000000002
 !MCSCF expec      <4.2 Quartet|LYLY|4.2 Quartet>     1.215187073378
 !MCSCF expec      <5.2 Quartet|LYLY|5.2 Quartet>     1.000024176933
 !MCSCF expec      <6.2 Quartet|LYLY|6.2 Quartet>     3.999974040226
 !MCSCF expec      <7.2 Quartet|LYLY|7.2 Quartet>     1.000000000002
 !MCSCF expec      <8.2 Quartet|LYLY|8.2 Quartet>     2.785199119430
 !MCSCF expec      <9.2 Quartet|LYLY|9.2 Quartet>    -0.000000000003
 
 !MCSCF expec      <1.2 Doublet|LZLZ|1.2 Doublet>     0.000016461059
 !MCSCF expec      <2.2 Doublet|LZLZ|2.2 Doublet>     0.999983633449
 !MCSCF expec      <3.2 Doublet|LZLZ|3.2 Doublet>     0.999999905489
 !MCSCF expec      <4.2 Doublet|LZLZ|4.2 Doublet>     3.953381717378
 !MCSCF expec      <5.2 Doublet|LZLZ|5.2 Doublet>     3.999999775993
 !MCSCF expec      <6.2 Doublet|LZLZ|6.2 Doublet>     0.046650719790
 !MCSCF expec      <7.2 Doublet|LZLZ|7.2 Doublet>     0.999973220570
 !MCSCF expec      <8.2 Doublet|LZLZ|8.2 Doublet>     0.999994566293
 !MCSCF expec      <9.2 Doublet|LZLZ|9.2 Doublet>    -0.000000000002
 !MCSCF expec    <10.2 Doublet|LZLZ|10.2 Doublet>     0.000000642951
 !MCSCF expec    <11.2 Doublet|LZLZ|11.2 Doublet>     0.999999357387
 !MCSCF expec    <12.2 Doublet|LZLZ|12.2 Doublet>     0.999999999660
 !MCSCF expec      <1.2 Quartet|LZLZ|1.2 Quartet>     0.000000007448
 !MCSCF expec      <2.2 Quartet|LZLZ|2.2 Quartet>     0.999999981155
 !MCSCF expec      <3.2 Quartet|LZLZ|3.2 Quartet>     1.000000000002
 !MCSCF expec      <4.2 Quartet|LZLZ|4.2 Quartet>     3.985532659114
 !MCSCF expec      <5.2 Quartet|LZLZ|5.2 Quartet>     3.999975814021
 !MCSCF expec      <6.2 Quartet|LZLZ|6.2 Quartet>     1.000025945677
 !MCSCF expec      <7.2 Quartet|LZLZ|7.2 Quartet>     1.000000000002
 !MCSCF expec      <8.2 Quartet|LZLZ|8.2 Quartet>     0.014416865026
 !MCSCF expec      <9.2 Quartet|LZLZ|9.2 Quartet>    -0.000000000003
 
 !MCSCF expec      <1.2 Doublet|L**2|1.2 Doublet>     1.999999999997
 !MCSCF expec      <2.2 Doublet|L**2|2.2 Doublet>     1.999999999997
 !MCSCF expec      <3.2 Doublet|L**2|3.2 Doublet>     1.999999999997
 !MCSCF expec      <4.2 Doublet|L**2|4.2 Doublet>     6.000000000015
 !MCSCF expec      <5.2 Doublet|L**2|5.2 Doublet>     6.000000000015
 !MCSCF expec      <6.2 Doublet|L**2|6.2 Doublet>     6.000000000015
 !MCSCF expec      <7.2 Doublet|L**2|7.2 Doublet>     6.000000000015
 !MCSCF expec      <8.2 Doublet|L**2|8.2 Doublet>     6.000000000015
 !MCSCF expec      <9.2 Doublet|L**2|9.2 Doublet>    -0.000000000007
 !MCSCF expec    <10.2 Doublet|L**2|10.2 Doublet>     1.999999999998
 !MCSCF expec    <11.2 Doublet|L**2|11.2 Doublet>     1.999999999998
 !MCSCF expec    <12.2 Doublet|L**2|12.2 Doublet>     1.999999999998
 !MCSCF expec      <1.2 Quartet|L**2|1.2 Quartet>     2.000000000000
 !MCSCF expec      <2.2 Quartet|L**2|2.2 Quartet>     2.000000000000
 !MCSCF expec      <3.2 Quartet|L**2|3.2 Quartet>     2.000000000000
 !MCSCF expec      <4.2 Quartet|L**2|4.2 Quartet>     6.000000000015
 !MCSCF expec      <5.2 Quartet|L**2|5.2 Quartet>     6.000000000015
 !MCSCF expec      <6.2 Quartet|L**2|6.2 Quartet>     6.000000000015
 !MCSCF expec      <7.2 Quartet|L**2|7.2 Quartet>     6.000000000015
 !MCSCF expec      <8.2 Quartet|L**2|8.2 Quartet>     6.000000000015
 !MCSCF expec      <9.2 Quartet|L**2|9.2 Quartet>    -0.000000000008
 
 EXTRA SYMMETRY OF MOS IN SYMMETRY 1:   1 6 3 5 2 4 1 1 6 3   5 2 4 1 6 3 5 2 4 1   6 3 5 2 4 1 6 5 3 2   4 6 3 5 2 411131014
                                       15 812 7 9 1 6 3 5 2   4 1 1
 EXTRA SYMMETRY OF MOS IN SYMMETRY 2:   2 3 1 1 3 2 1 3 2 2   3 1 5 7 9 810 6 4 2   3 1 5 7 9 810 6 4 5   7 910 8 6 4 2 3 1 5
                                        9 7 810 6 4 2 3 1 5   9 7 810 6 4 2 3 1
 
  NATURAL ORBITALS (STATE AVERAGED)
  =================================

  Orbital  Occupation    Energy    Cen Mu Typ  Coefficients
    1.1     2.00000    -7.93349     1  1  s    1.00117
    2.1     2.00000    -2.48500     1  1  d1-  1.00109
    3.1     2.00000    -2.48500     1  1  d2-  1.00109
    4.1     2.00000    -2.48500     1  1  d2+  1.00109
    5.1     2.00000    -2.48500     1  1  d0   1.00109
    6.1     2.00000    -2.48500     1  1  d1+  1.00109
    7.1     1.99982    -1.02816     1  2  s    1.04199
    1.2     2.00000    -5.75774     1  1  py   0.99950
    2.2     2.00000    -5.75774     1  1  pz   0.99950
    3.2     2.00000    -5.75774     1  1  px   0.99950
    4.2     1.38044    -0.44690     1  2  px   1.11549
    5.2     1.38044    -0.44690     1  2  pz   1.11549
    6.2     1.38043    -0.44690     1  2  py   1.11549
    7.2     0.28629     0.00889     1  7  px   0.36377    1  8  px   0.79173
    8.2     0.28629     0.00889     1  7  pz   0.36377    1  8  pz   0.79173
    9.2     0.28629     0.00889     1  7  py   0.36377    1  8  py   0.79173
 
 Natural orbital dump (state averaged) at molpro section 2140.2 (Orbital set 2)
 
 Transform the CI vectors
 
 CI Coefficients of symmetry 2 (Doublet)
 =======================================

 State:              1               2               3               4               5               6               7
 2 a22000      -0.00030403     -0.00002024      0.98920583     -0.00000000     -0.00000000      0.00000000     -0.00000000
 2 22a000      -0.00400190      0.98919779      0.00001901      0.00000000     -0.00000000      0.00000000      0.00000003
 2 2a2000       0.98919774      0.00400189      0.00030411     -0.00000000     -0.00000008      0.00000000     -0.00000000
 2 a2a0b0       0.00000000     -0.00000000      0.00000000      0.07194177      0.00008781      0.66249391     -0.00350662
 2 2aab00      -0.00000000      0.00000000      0.00000000      0.60971629     -0.00112808      0.26894545     -0.00143739
 2 2aa00b       0.07500672      0.00030345      0.00002306      0.00115688      0.57711827     -0.00020160      0.00003420
 2 aa2b00      -0.07500663     -0.00030345     -0.00002306      0.00115688      0.57711827     -0.00020160      0.00003420
 2 aa20b0      -0.00002305     -0.00000153      0.07500728     -0.00022313     -0.00012673      0.00155398     -0.00004700
 2 a2a00b      -0.00002305     -0.00000153      0.07500733      0.00022313      0.00012673     -0.00155398      0.00004700
 2 2aa0b0       0.00030345     -0.07500667     -0.00000144      0.00001369     -0.00003317      0.00305330      0.57711140
 2 a2ab00       0.00030345     -0.07500664     -0.00000144     -0.00001369      0.00003317     -0.00305330     -0.57711140
 2 aa200b       0.00000000     -0.00000000      0.00000000     -0.53777452      0.00121589      0.39354846     -0.00206922
 2 a2ba00      -0.00005286      0.01306521      0.00000025      0.00000691     -0.00001676      0.00154235      0.29152392
 2 2ab0a0      -0.00005286      0.01306522      0.00000025     -0.00000691      0.00001676     -0.00154235     -0.29152392
 2 ab2a00       0.01306521      0.00005286      0.00000402     -0.00058439     -0.29152739      0.00010184     -0.00001728
 2 2ba00a      -0.01306521     -0.00005286     -0.00000402     -0.00058439     -0.29152739      0.00010184     -0.00001728
 2 b2a00a       0.00000402      0.00000027     -0.01306532     -0.00011271     -0.00006402      0.00078498     -0.00002374
 2 ba20a0       0.00000402      0.00000027     -0.01306532      0.00011271      0.00006402     -0.00078498      0.00002374
 2 b2a0a0      -0.00000000      0.00000000      0.00000000     -0.03006908     -0.00005596     -0.33188782      0.00175656
 2 a2b0a0       0.00000000      0.00000000     -0.00000000     -0.04187270     -0.00003185     -0.33060609      0.00175006
 2 2baa00       0.00000000     -0.00000000     -0.00000000     -0.30725403      0.00057075     -0.12904125      0.00069002
 2 2aba00       0.00000000     -0.00000000     -0.00000000     -0.30246226      0.00055734     -0.13990420      0.00074737
 2 2ab00a      -0.06194151     -0.00025059     -0.00001904     -0.00057249     -0.28559088      0.00009976     -0.00001693
 2 ba2a00       0.06194142      0.00025059      0.00001904     -0.00057249     -0.28559088      0.00009976     -0.00001693
 2 a2b00a       0.00001904      0.00000127     -0.06194201     -0.00011042     -0.00006271      0.00076900     -0.00002326
 2 ab20a0       0.00001904      0.00000127     -0.06194196      0.00011042      0.00006271     -0.00076900      0.00002326
 2 2ba0a0      -0.00025059      0.06194146      0.00000119     -0.00000677      0.00001642     -0.00151095     -0.28558748
 2 b2aa00      -0.00025059      0.06194142      0.00000119      0.00000677     -0.00001642      0.00151095      0.28558748
 2 ab200a       0.00000000      0.00000000      0.00000000      0.27239318     -0.00061329     -0.19198362      0.00100918
 2 ba200a      -0.00000000      0.00000000     -0.00000000      0.26538133     -0.00060259     -0.20156484      0.00106004
 2 22000a      -0.00017357      0.04290418      0.00000082      0.00000000     -0.00000000     -0.00000000     -0.00000000
 2 2020a0       0.04290413      0.00017357      0.00001319      0.00000000      0.00000000     -0.00000000      0.00000000
 2 022a00      -0.00001319     -0.00000088      0.04290444      0.00000000      0.00000000     -0.00000000      0.00000000
 
 Energy:     -294.64068966   -294.64068966   -294.64068966   -294.38119359   -294.38119359   -294.38119359   -294.38119359

 State:              8               9              10              11              12
 2 a22000      -0.00000005     -0.00000000      0.00009047     -0.11285352      0.00002767
 2 22a000      -0.00000000      0.00000000      0.00000206      0.00002767      0.11285348
 2 2a2000       0.00000000      0.00000000     -0.11285349     -0.00009047      0.00000208
 2 a2a0b0       0.00175633     -0.47128806     -0.00000000      0.00000000      0.00000000
 2 2aab00       0.00048881      0.47128806      0.00000000     -0.00000000     -0.00000000
 2 2aa00b      -0.00012772     -0.00000000      0.55924223      0.00044831     -0.00001031
 2 aa2b00      -0.00012772      0.00000000     -0.55924224     -0.00044831      0.00001031
 2 aa20b0      -0.57711733      0.00000000     -0.00044831      0.55924222     -0.00013710
 2 a2a00b       0.57711733      0.00000000     -0.00044831      0.55924222     -0.00013710
 2 2aa0b0      -0.00003878      0.00000000      0.00001020      0.00013711      0.55924240
 2 a2ab00       0.00003878      0.00000000      0.00001020      0.00013711      0.55924241
 2 aa200b       0.00126752      0.47128806     -0.00000000     -0.00000000     -0.00000000
 2 a2ba00      -0.00001959     -0.00000000     -0.00000662     -0.00008899     -0.36298557
 2 2ab0a0       0.00001959     -0.00000000     -0.00000662     -0.00008899     -0.36298557
 2 ab2a00       0.00006452     -0.00000000      0.36298547      0.00029098     -0.00000669
 2 2ba00a       0.00006452      0.00000000     -0.36298547     -0.00029098      0.00000669
 2 b2a00a      -0.29152691     -0.00000000      0.00029098     -0.36298546      0.00008899
 2 ba20a0       0.29152691     -0.00000000      0.00029098     -0.36298546      0.00008899
 2 b2a0a0      -0.00088217      0.23564403      0.00000000     -0.00000000     -0.00000000
 2 a2b0a0      -0.00087416      0.23564403      0.00000000     -0.00000000     -0.00000000
 2 2baa00      -0.00022885     -0.23564403     -0.00000000      0.00000000      0.00000000
 2 2aba00      -0.00025996     -0.23564403     -0.00000000      0.00000000      0.00000000
 2 2ab00a       0.00006320      0.00000000     -0.19625677     -0.00015733      0.00000362
 2 ba2a00       0.00006320     -0.00000000      0.19625678      0.00015733     -0.00000362
 2 a2b00a      -0.28559042     -0.00000000      0.00015733     -0.19625676      0.00004811
 2 ab20a0       0.28559042     -0.00000000      0.00015733     -0.19625677      0.00004811
 2 2ba0a0       0.00001919     -0.00000000     -0.00000358     -0.00004812     -0.19625683
 2 b2aa00      -0.00001919     -0.00000000     -0.00000358     -0.00004812     -0.19625683
 2 ab200a      -0.00062221     -0.23564403      0.00000000      0.00000000      0.00000000
 2 ba200a      -0.00064531     -0.23564403      0.00000000      0.00000000      0.00000000
 2 22000a       0.00000000      0.00000000      0.00000249      0.00003346      0.13648953
 2 2020a0      -0.00000000      0.00000000     -0.13648948     -0.00010941      0.00000252
 2 022a00       0.00000000     -0.00000000      0.00010941     -0.13648947      0.00003346
 
 Energy:     -294.38119359   -294.37593639   -294.37538679   -294.37538679   -294.37538679
 
 
 CI Coefficients of symmetry 2 (Quartet)
 =======================================

 State:              1               2               3               4               5               6               7
 2 a2a0a0       0.00000000     -0.00000000      0.00000000      0.04909645     -0.00016773     -0.00006051      0.00000018
 2 2aaa00      -0.00000000      0.00000000     -0.00000000      0.73026064     -0.00221603      0.00000949      0.00000265
 2 aa20a0      -0.00000337     -0.00000226      0.70700444     -0.00000246      0.00003592     -0.00000370      0.70699534
 2 2aa0a0       0.00006094      0.70700444      0.00000226      0.00004258      0.00200688     -0.70699249     -0.00000381
 2 a2a00a      -0.00000337     -0.00000226      0.70700443      0.00000246     -0.00003592      0.00000370     -0.70699535
 2 2aa00a      -0.70700443      0.00006094     -0.00000337      0.00213693      0.70698927      0.00200700     -0.00003590
 2 aa2a00       0.70700443     -0.00006094      0.00000337      0.00213693      0.70698927      0.00200700     -0.00003590
 2 a2aa00       0.00006094      0.70700443      0.00000226     -0.00004258     -0.00200688      0.70699250      0.00000381
 2 aa200a      -0.00000000      0.00000000     -0.00000000     -0.68116418      0.00204830     -0.00006999     -0.00000247
 
 Energy:     -294.38782246   -294.38782246   -294.38782246   -294.38303950   -294.38303950   -294.38303950   -294.38303950

 State:              8               9
 2 a2a0a0       0.81489022     -0.57716950
 2 2aaa00       0.36492609      0.57716950
 2 aa20a0       0.00000000      0.00000000
 2 2aa0a0      -0.00005465     -0.00000000
 2 a2a00a      -0.00000000     -0.00000000
 2 2aa00a       0.00001692     -0.00000000
 2 aa2a00       0.00001692      0.00000000
 2 a2aa00       0.00005465     -0.00000000
 2 aa200a       0.44996413      0.57716950
 
 Energy:     -294.38303950   -294.37619516
 


 **********************************************************************************************************************************
 DATASETS  * FILE   NREC   LENGTH (MB)   RECORD NAMES
              1      21       39.05       500      610      700      900      950      970     1000      129      960     1100   
                                          VAR    BASINP    GEOM    SYMINP    ZMAT    AOBASIS   BASIS     P2S    ABASIS      S 
                                         1400     1410     1420     1200     1210     1080     1700     1600     1650     1380   
                                           T        V       ECP      H0       H01     AOSYM    OPER      SMH    MOLCAS    JKOP   
                                         1700(1)
                                         OPER   

              2       5        0.83       700     1000      520     2100     2140   
                                         GEOM     BASIS   MCVARS     RHF     MCSCF   

 PROGRAMS   *        TOTAL     MULTI   RHF-SCF       INT
 CPU TIMES  *         7.36      5.82      0.06      1.17
 REAL TIME  *        13.41 SEC
 DISK USED  *        39.97 MB (local),      541.67 MB (total)
 SF USED    *        26.63 MB
 GA USED    *         0.00 MB       (max)       0.00 MB       (current)
 **********************************************************************************************************************************

 Energies and &lt;L**2&gt; values

         ENERGY     LL
    -294.6406897   2.0
    -294.6406897   2.0
    -294.6406897   2.0
    -294.3811936   6.0
    -294.3811936   6.0
    -294.3811936   6.0
    -294.3811936   6.0
    -294.3811936   6.0
    -294.3759364  -0.0
    -294.3753868   2.0
    -294.3753868   2.0
    -294.3753868   2.0
    -294.3878225   2.0
    -294.3878225   2.0
    -294.3878225   2.0
    -294.3830395   6.0
    -294.3830395   6.0
    -294.3830395   6.0
    -294.3830395   6.0
    -294.3830395   6.0
    -294.3761952  -0.0
                                                  


 PROGRAM * CI (Multireference internally contracted CI)     Authors: H.-J. Werner, P.J. Knowles, 1987


 Convergence thresholds:  THRVAR = 1.00D-08  THRDEN = 1.00D-06

 Number of optimized states: 12  Roots:   1   2   3   4   5   6   7   8   9  10  11  12
 Number of reference states: 12  Roots:   1   2   3   4   5   6   7   8   9  10  11  12

 Reference symmetry:                   2   Doublet 
 Number of electrons:                 25
 Maximum number of shells:             6
 Maximum number of spin couplings:   132

 Reference space:      252 conf      420 CSFs
 N elec internal:    15576 conf    58240 CSFs
 N-1 el internal:    19959 conf   132244 CSFs
 N-2 el internal:    14819 conf   136456 CSFs

 Number of electrons in valence space:                     25
 Maximum number of open shell orbitals in reference space:  5
 Maximum number of open shell orbitals in internal spaces: 11


 Number of closed-shell orbitals:   9 (   6   3 )
 Number of active  orbitals:        7 (   1   6 )
 Number of external orbitals:      96 (  46  50 )

 Molecular orbitals read from record     2140.2  Type=MCSCF/NATURAL (state averaged)

 Valence orbitals related to previous ones by unitary transformation. Operators transformed.


 Number of p-space configurations:  30

 Reference wavefunction optimized for reference space (refopt=1)

 State     Reference Energy 
     1      -294.64068966
     2      -294.64068966
     3      -294.64068966
     4      -294.38119359
     5      -294.38119359
     6      -294.38119359
     7      -294.38119359
     8      -294.38119359
     9      -294.37593639
    10      -294.37538679
    11      -294.37538679
    12      -294.37538679

 ?WARNING: SMALL EIGENVALUE OF PAIR OVERLAP MATRIX:  0.1470D-06

 ?WARNING: SMALL EIGENVALUE OF PAIR OVERLAP MATRIX:  0.8294D-07

 Number of blocks in overlap matrix:  1176   Smallest eigenvalue:  0.83D-07
 Number of N-2 electron functions:    2960
 Number of N-1 electron functions:  132244

 Number of internal configurations:                29358
 Number of singly external configurations:       6348776
 Number of doubly external configurations:       6824096
 Total number of contracted configurations:     13202230
 Total number of uncontracted configurations:  319907094

 Diagonal Coupling coefficients finished.               Storage:  34375919 words, CPU-Time:    154.73 seconds.
 Energy denominators for pairs finished in 1 passes.    Storage:   1756068 words, CPU-time:      0.30 seconds.

  ITER. STATE  ROOT     SQ.NORM     CORR.ENERGY   TOTAL ENERGY   ENERGY CHANGE       DEN1      VAR(S)    VAR(P)      TIME
    1     1     1     1.00000000     0.00000000  -294.64068966     0.00000000    -0.97756745  0.50D-01  0.11D+00   165.82
    1     2     2     1.00000000     0.00000000  -294.64068966     0.00000000    -0.97766553  0.50D-01  0.11D+00   165.82
    1     3     3     1.00000000     0.00000000  -294.64068966     0.00000000    -0.97773411  0.50D-01  0.11D+00   165.82
    1     4     4     1.00000000     0.00000000  -294.38119359     0.00000000    -0.94437044  0.34D-01  0.11D+00   165.82
    1     5     5     1.00000000     0.00000000  -294.38119359     0.00000000    -0.94250463  0.34D-01  0.11D+00   165.82
    1     6     6     1.00000000     0.00000000  -294.38119359     0.00000000    -0.94477499  0.34D-01  0.11D+00   165.82
    1     7     7     1.00000000     0.00000000  -294.38119359     0.00000000    -0.94261210  0.34D-01  0.11D+00   165.82
    1     8     8     1.00000000     0.00000000  -294.38119359     0.00000000    -0.94269436  0.34D-01  0.11D+00   165.82
    1     9     9     1.00000000     0.00000000  -294.37593639     0.00000000    -0.94551066  0.34D-01  0.11D+00   165.82
    1    10    10     1.00000000     0.00000000  -294.37538679     0.00000000    -0.95134471  0.42D-01  0.11D+00   165.82
    1    11    11     1.00000000     0.00000000  -294.37538679    -0.00000000    -0.95140911  0.42D-01  0.11D+00   165.82
    1    12    12     1.00000000     0.00000000  -294.37538679    -0.00000000    -0.95122609  0.41D-01  0.11D+00   165.82
    2     1     1     1.10197359    -0.78001625  -295.42070592    -0.78001625    -0.02540399  0.54D-02  0.19D-02   944.51
    2     2     2     1.10191843    -0.77999006  -295.42067972    -0.77999006    -0.02539038  0.54D-02  0.19D-02   944.51
    2     3     3     1.10187829    -0.77990014  -295.42058980    -0.77990014    -0.02546972  0.54D-02  0.19D-02   944.51
    2     4     4     1.09201736    -0.76148498  -295.14267858    -0.76148498    -0.01858200  0.21D-02  0.16D-02   944.51
    2     5     5     1.09200007    -0.76145267  -295.14264627    -0.76145267    -0.01860455  0.21D-02  0.16D-02   944.51
    2     6     6     1.09207872    -0.76141445  -295.14260804    -0.76141445    -0.01866128  0.21D-02  0.16D-02   944.51
    2     7     7     1.09229858    -0.76116236  -295.14235595    -0.76116236    -0.01894125  0.21D-02  0.16D-02   944.51
    2     8     8     1.09246301    -0.76106480  -295.14225839    -0.76106480    -0.01907343  0.21D-02  0.17D-02   944.51
    2     9     9     1.09288615    -0.76160147  -295.13753786    -0.76160147    -0.01910895  0.21D-02  0.17D-02   944.51
    2    10    10     1.09615695    -0.76127576  -295.13666255    -0.76127576    -0.02094904  0.36D-02  0.16D-02   944.51
    2    11    11     1.09621200    -0.76127194  -295.13665874    -0.76127194    -0.02096179  0.36D-02  0.16D-02   944.51
    2    12    12     1.09623844    -0.76124098  -295.13662777    -0.76124098    -0.02099909  0.36D-02  0.16D-02   944.51
    3     1     1     1.09184518    -0.80512485  -295.44581451    -0.02510860    -0.00097221  0.80D-04  0.14D-03  1719.56
    3     2     2     1.09180569    -0.80511694  -295.44580661    -0.02512689    -0.00097574  0.80D-04  0.14D-03  1719.56
    3     3     3     1.09177236    -0.80509812  -295.44578778    -0.02519798    -0.00098783  0.81D-04  0.14D-03  1719.56
    3     4     4     1.08597892    -0.77928907  -295.16048266    -0.01780409    -0.00048250  0.32D-04  0.75D-04  1719.56
    3     5     5     1.08597368    -0.77928451  -295.16047811    -0.01783184    -0.00048646  0.33D-04  0.76D-04  1719.56
    3     6     6     1.08595938    -0.77928291  -295.16047651    -0.01786846    -0.00048631  0.32D-04  0.76D-04  1719.56
    3     7     7     1.08598687    -0.77927691  -295.16047051    -0.01811456    -0.00049101  0.32D-04  0.77D-04  1719.56
    3     8     8     1.08597131    -0.77927181  -295.16046540    -0.01820701    -0.00049394  0.32D-04  0.78D-04  1719.56
    3     9     9     1.08698900    -0.78067595  -295.15661233    -0.01907448    -0.00054847  0.53D-04  0.80D-04  1719.56
    3    10    10     1.08698965    -0.78122425  -295.15661104    -0.01994849    -0.00054989  0.53D-04  0.80D-04  1719.56
    3    11    11     1.08697680    -0.78122154  -295.15660833    -0.01994959    -0.00055074  0.53D-04  0.80D-04  1719.56
    3    12    12     1.08632989    -0.78046574  -295.15585253    -0.01922476    -0.00051985  0.36D-04  0.83D-04  1719.56
    4     1     1     1.09367387    -0.80625361  -295.44694327    -0.00112876    -0.00008573  0.49D-05  0.13D-04  2498.93
    4     2     2     1.09366878    -0.80625342  -295.44694308    -0.00113647    -0.00008612  0.49D-05  0.13D-04  2498.93
    4     3     3     1.09365380    -0.80625062  -295.44694028    -0.00115249    -0.00008811  0.51D-05  0.13D-04  2498.93
    4     4     4     1.08685180    -0.77987476  -295.16106836    -0.00058570    -0.00005080  0.20D-05  0.90D-05  2498.93
    4     5     5     1.08684354    -0.77987468  -295.16106827    -0.00059017    -0.00005135  0.20D-05  0.91D-05  2498.93
    4     6     6     1.08684905    -0.77987409  -295.16106768    -0.00059117    -0.00005120  0.20D-05  0.91D-05  2498.93
    4     7     7     1.08684811    -0.77987383  -295.16106742    -0.00059691    -0.00005150  0.20D-05  0.91D-05  2498.93
    4     8     8     1.08683774    -0.77987327  -295.16106687    -0.00060146    -0.00005212  0.20D-05  0.92D-05  2498.93
    4     9     9     1.08752583    -0.78131967  -295.15725606    -0.00064373    -0.00005119  0.25D-05  0.91D-05  2498.93
    4    10    10     1.08752464    -0.78186921  -295.15725600    -0.00064496    -0.00005122  0.25D-05  0.92D-05  2498.93
    4    11    11     1.08752054    -0.78186850  -295.15725529    -0.00064696    -0.00005162  0.25D-05  0.92D-05  2498.93
    4    12    12     1.08721382    -0.78110656  -295.15649336    -0.00064083    -0.00005477  0.22D-05  0.94D-05  2498.93
    5     1     1     1.09453725    -0.80635998  -295.44704964    -0.00010637    -0.00000729  0.21D-06  0.11D-05  3274.05
    5     2     2     1.09453907    -0.80635988  -295.44704954    -0.00010646    -0.00000734  0.21D-06  0.11D-05  3274.05
    5     3     3     1.09453561    -0.80635971  -295.44704937    -0.00010909    -0.00000748  0.21D-06  0.12D-05  3274.05
    5     4     4     1.08732938    -0.77994523  -295.16113883    -0.00007047    -0.00000549  0.25D-06  0.88D-06  3274.05
    5     5     5     1.08732870    -0.77994493  -295.16113852    -0.00007025    -0.00000565  0.26D-06  0.91D-06  3274.05
    5     6     6     1.08733352    -0.77994485  -295.16113844    -0.00007076    -0.00000566  0.25D-06  0.91D-06  3274.05
    5     7     7     1.08733273    -0.77994476  -295.16113836    -0.00007094    -0.00000573  0.26D-06  0.92D-06  3274.05
    5     8     8     1.08733251    -0.77994472  -295.16113831    -0.00007145    -0.00000572  0.26D-06  0.92D-06  3274.05
    5     9     9     1.08793964    -0.78139038  -295.15732677    -0.00007071    -0.00000612  0.30D-06  0.10D-05  3274.05
    5    10    10     1.08793976    -0.78193996  -295.15732676    -0.00007075    -0.00000612  0.30D-06  0.10D-05  3274.05
    5    11    11     1.08793993    -0.78193984  -295.15732663    -0.00007134    -0.00000618  0.30D-06  0.10D-05  3274.05
    5    12    12     1.08773031    -0.78118085  -295.15656764    -0.00007429    -0.00000540  0.25D-06  0.85D-06  3274.05
    6     1     1     1.09458911    -0.80636882  -295.44705848    -0.00000884    -0.00000069  0.42D-07  0.99D-07  4047.34
    6     2     2     1.09458980    -0.80636880  -295.44705846    -0.00000892    -0.00000071  0.44D-07  0.10D-06  4047.34
    6     3     3     1.09458794    -0.80636878  -295.44705844    -0.00000907    -0.00000072  0.44D-07  0.10D-06  4047.34
    6     4     4     1.08735483    -0.77995203  -295.16114563    -0.00000680    -0.00000063  0.26D-07  0.11D-06  4047.34
    6     5     5     1.08735483    -0.77995196  -295.16114555    -0.00000703    -0.00000067  0.29D-07  0.11D-06  4047.34
    6     6     6     1.08735446    -0.77995195  -295.16114555    -0.00000710    -0.00000068  0.30D-07  0.12D-06  4047.34
    6     7     7     1.08735524    -0.77995194  -295.16114553    -0.00000717    -0.00000066  0.28D-07  0.11D-06  4047.34
    6     8     8     1.08735468    -0.77995191  -295.16114550    -0.00000719    -0.00000068  0.30D-07  0.12D-06  4047.34
    6     9     9     1.08797179    -0.78139814  -295.15733453    -0.00000776    -0.00000074  0.33D-07  0.13D-06  4047.34
    6    10    10     1.08797175    -0.78194770  -295.15733450    -0.00000774    -0.00000074  0.33D-07  0.13D-06  4047.34
    6    11    11     1.08797159    -0.78194769  -295.15733449    -0.00000785    -0.00000075  0.33D-07  0.13D-06  4047.34
    6    12    12     1.08775991    -0.78118746  -295.15657425    -0.00000661    -0.00000058  0.23D-07  0.10D-06  4047.34
    7     1     1     1.09462275    -0.80636965  -295.44705931    -0.00000083    -0.00000009  0.80D-08  0.12D-07  4822.65
    7     2     2     1.09462289    -0.80636965  -295.44705931    -0.00000085    -0.00000009  0.81D-08  0.12D-07  4822.65
    7     3     3     1.09462238    -0.80636964  -295.44705930    -0.00000086    -0.00000009  0.82D-08  0.12D-07  4822.65
    7     4     4     1.08737822    -0.77995286  -295.16114646    -0.00000083    -0.00000011  0.94D-08  0.16D-07  4822.65
    7     5     5     1.08737803    -0.77995285  -295.16114644    -0.00000089    -0.00000012  0.10D-07  0.17D-07  4822.65
    7     6     6     1.08737811    -0.77995284  -295.16114644    -0.00000089    -0.00000012  0.10D-07  0.17D-07  4822.65
    7     7     7     1.08737814    -0.77995280  -295.16114640    -0.00000086    -0.00000012  0.11D-07  0.17D-07  4822.65
    7     8     8     1.08737842    -0.77995279  -295.16114638    -0.00000088    -0.00000011  0.94D-08  0.16D-07  4822.65
    7     9     9     1.08799759    -0.78139909  -295.15733548    -0.00000095    -0.00000012  0.12D-07  0.18D-07  4822.65
    7    10    10     1.08799752    -0.78194867  -295.15733546    -0.00000096    -0.00000013  0.12D-07  0.19D-07  4822.65
    7    11    11     1.08799748    -0.78194865  -295.15733544    -0.00000096    -0.00000012  0.11D-07  0.18D-07  4822.65
    7    12    12     1.08778304    -0.78118821  -295.15657500    -0.00000075    -0.00000009  0.80D-08  0.14D-07  4822.65
    8     1     1     1.09462509    -0.80636975  -295.44705941    -0.00000010    -0.00000001  0.57D-09  0.17D-08  5603.19
    8     2     2     1.09462509    -0.80636975  -295.44705941    -0.00000010    -0.00000001  0.58D-09  0.17D-08  5603.19
    8     3     3     1.09462493    -0.80636974  -295.44705941    -0.00000011    -0.00000001  0.59D-09  0.18D-08  5603.19
    8     4     4     1.08737670    -0.77995300  -295.16114660    -0.00000014    -0.00000002  0.76D-09  0.30D-08  5603.19
    8     5     5     1.08737660    -0.77995299  -295.16114659    -0.00000015    -0.00000002  0.83D-09  0.33D-08  5603.19
    8     6     6     1.08737664    -0.77995299  -295.16114659    -0.00000015    -0.00000002  0.82D-09  0.33D-08  5603.19
    8     7     7     1.08737653    -0.77995295  -295.16114655    -0.00000015    -0.00000002  0.86D-09  0.34D-08  5603.19
    8     8     8     1.08737661    -0.77995292  -295.16114652    -0.00000014    -0.00000002  0.75D-09  0.30D-08  5603.19
    8     9     9     1.08799417    -0.78139925  -295.15733564    -0.00000016    -0.00000002  0.10D-08  0.36D-08  5603.19
    8    10    10     1.08799410    -0.78194883  -295.15733562    -0.00000016    -0.00000002  0.11D-08  0.37D-08  5603.19
    8    11    11     1.08799415    -0.78194881  -295.15733560    -0.00000016    -0.00000002  0.10D-08  0.36D-08  5603.19
    8    12    12     1.08778169    -0.78118832  -295.15657512    -0.00000012    -0.00000001  0.67D-09  0.24D-08  5603.19


 =====================================
 Analysis of CPU times by interactions
 =====================================

       I      S      P

 I   0.4%
 S   0.4%   7.0%
 P   0.3%  54.8%  29.4%

 Initialization:   2.8%
 Other:            5.0%

 Total CPU:     5603.2 seconds
 =====================================



 Wavefunction saved on  5203.2

 Reference coefficients greater than 0.0500000
 =============================================
 222222222222/000           0.0056119   0.0056930   0.9491396  -0.0000000   0.0000000  -0.0000000   0.0000000  -0.0000000
                           -0.0012614   0.0776191  -0.0003066   0.0000000
 2222222222/22000          -0.0217807   0.9489069  -0.0055628   0.0000000  -0.0000000   0.0000000  -0.0000001   0.0000000
                           -0.0776198  -0.0012619  -0.0001296  -0.0000000
 22222222222/2000           0.9489066   0.0217470  -0.0057409  -0.0000000   0.0000003   0.0000001   0.0000000  -0.0000000
                            0.0001346  -0.0003044  -0.0776294  -0.0000000
 22222222222//\00          -0.0000000  -0.0000000   0.0000000   0.7767033   0.0090700  -0.0748679   0.0076935   0.0591329
                           -0.0000002  -0.0000003  -0.0000003   0.5533907
 2222222222/2/0\0           0.0000000  -0.0000000  -0.0000000   0.3375681   0.0064455  -0.0305215   0.0017529   0.7053917
                            0.0000004   0.0000003   0.0000001  -0.5533958
 2222222222/2/00\          -0.0015237   0.0663843  -0.0003892  -0.0079673  -0.0029061  -0.0120849   0.6776166   0.0016324
                            0.6592437   0.0107178   0.0011007   0.0000003
 2222222222//20\0          -0.0015237   0.0663842  -0.0003892   0.0079671   0.0029063   0.0120847  -0.6776152  -0.0016325
                            0.6592450   0.0107180   0.0011006   0.0000004
 22222222222//00\           0.0663843   0.0015214  -0.0004016   0.0124791   0.6455521   0.2059959   0.0065963  -0.0029738
                           -0.0011429   0.0025857   0.6593294   0.0000001
 2222222222//2\00          -0.0663842  -0.0015214   0.0004016   0.0124790   0.6455577   0.2059977   0.0065965  -0.0029739
                            0.0011427  -0.0025858  -0.6593232  -0.0000004
 22222222222//0\0          -0.0003926  -0.0003983  -0.0664005   0.0642950  -0.2063222   0.6423010   0.0113289  -0.0011199
                           -0.0107133   0.6592410  -0.0026040   0.0000004
 2222222222/2/\00          -0.0003926  -0.0003983  -0.0664004  -0.0642951   0.2063227  -0.6423024  -0.0113287   0.0011198
                           -0.0107136   0.6592394  -0.0026040   0.0000003
 2222222222//200\          -0.0000000  -0.0000000   0.0000000  -0.4391370  -0.0026242   0.0443466  -0.0059405   0.6462725
                           -0.0000002  -0.0000002  -0.0000002   0.5533845
 22222222222020/0           0.0385397   0.0008832  -0.0002332  -0.0000000   0.0000006   0.0000002   0.0000000  -0.0000000
                            0.0002221  -0.0005026  -0.1281502  -0.0000000
 2222222222022/00          -0.0008846   0.0385397  -0.0002259   0.0000000  -0.0000000   0.0000000  -0.0000002   0.0000000
                           -0.1281344  -0.0020832  -0.0002139  -0.0000001
 222222222222000/           0.0002279   0.0002312   0.0385493   0.0000000   0.0000000  -0.0000001   0.0000000  -0.0000000
                           -0.0020823   0.1281335  -0.0005061   0.0000001
 2222222222/\2/00          -0.0317076  -0.0007267   0.0001918  -0.0000753  -0.0038956  -0.0012431  -0.0000398   0.0000180
                           -0.0001928   0.0004363   0.1112541   0.0000000
 22222222222/\00/          -0.0317075  -0.0007267   0.0001918   0.0000753   0.0038947   0.0012428   0.0000398  -0.0000179
                           -0.0001928   0.0004363   0.1112540   0.0000000
 2222222222/\20/0           0.0007278  -0.0317075   0.0001859   0.0000481   0.0000175   0.0000729  -0.0040883  -0.0000099
                            0.1112402   0.0018085   0.0001857   0.0000001
 2222222222/2\00/           0.0007278  -0.0317076   0.0001859  -0.0000481  -0.0000175  -0.0000729   0.0040884   0.0000098
                            0.1112399   0.0018085   0.0001857   0.0000001
 2222222222/2\/00          -0.0001875  -0.0001902  -0.0317152   0.0003880  -0.0012450   0.0038759   0.0000683  -0.0000068
                            0.0018078  -0.1112398   0.0004394  -0.0000001
 22222222222/\0/0          -0.0001875  -0.0001902  -0.0317152  -0.0003879   0.0012449  -0.0038755  -0.0000684   0.0000068
                            0.0018078  -0.1112393   0.0004394  -0.0000001

 Coefficients of fixed reference functions:
 ==========================================

 State      Coefficients
 1           0.955033    0.005648   -0.021921    0.000000    0.000000    0.000000   -0.000000   -0.000000   -0.000000   -0.029125
             0.000669    0.000172
 2           0.021887    0.005730    0.955034   -0.000000   -0.000000   -0.000000   -0.000000    0.000000   -0.000000   -0.000667
            -0.029125    0.000175
 3          -0.005778    0.955268   -0.005599    0.000000    0.000000    0.000000    0.000000   -0.000000    0.000000    0.000176
             0.000171    0.029132
 4           0.000000    0.000000   -0.000000    0.903215    0.017656    0.308399    0.090969   -0.011273   -0.000001    0.000000
            -0.000000   -0.000000
 5          -0.000000   -0.000000    0.000000    0.009153    0.913377    0.006858   -0.291920   -0.004112    0.000000   -0.000004
             0.000000    0.000000
 6          -0.000000    0.000000   -0.000000   -0.088186    0.291459   -0.027103    0.908774   -0.017098    0.000000   -0.000001
            -0.000000   -0.000001
 7          -0.000000   -0.000000    0.000000    0.009832    0.009333    0.000986    0.016029    0.958739    0.000000   -0.000000
             0.000001    0.000000
 8           0.000000    0.000000   -0.000000   -0.309624   -0.004208    0.907595   -0.001584    0.002310    0.000008    0.000000
            -0.000000   -0.000000
 9          -0.000054    0.000504    0.031022    0.000000   -0.000000    0.000000    0.000000   -0.000001   -0.000000   -0.001661
             0.958056   -0.015569
 10          0.000122   -0.031022    0.000504   -0.000000   -0.000000    0.000000    0.000001   -0.000000   -0.000000    0.003758
             0.015576    0.958050
 11          0.031026    0.000123    0.000052   -0.000000    0.000004   -0.000000   -0.000000    0.000000   -0.000000    0.958175
             0.001599   -0.003784
 12          0.000000   -0.000000    0.000000    0.000004   -0.000000   -0.000007    0.000000   -0.000000    0.958791    0.000000
             0.000000    0.000000

 Coefficients of rotated reference functions:
 ============================================

 State      Coefficients
 1           0.955745   -0.000000    0.000000    0.000000    0.000000    0.000000   -0.000000   -0.000000   -0.000022   -0.000002
             0.000900    0.000000
 2          -0.000000    0.955745    0.000000   -0.000000    0.000000   -0.000000    0.000000    0.000000    0.000900    0.000009
             0.000022    0.000000
 3           0.000000    0.000000    0.955745    0.000000   -0.000000    0.000000   -0.000000    0.000000    0.000009   -0.000900
            -0.000002   -0.000000
 4           0.000000   -0.000000    0.000000    0.958969    0.000000    0.000000   -0.000000    0.000000    0.000000   -0.000000
             0.000000    0.000000
 5           0.000000    0.000000   -0.000000    0.000000    0.958969    0.000000   -0.000000   -0.000000   -0.000000    0.000000
             0.000000   -0.000000
 6           0.000000   -0.000000    0.000000    0.000000    0.000000    0.958969   -0.000000   -0.000000    0.000000   -0.000000
             0.000000   -0.000000
 7          -0.000000    0.000000   -0.000000   -0.000000   -0.000000   -0.000000    0.958969    0.000000    0.000000   -0.000000
             0.000000    0.000000
 8          -0.000000    0.000000    0.000000    0.000000   -0.000000   -0.000000    0.000000    0.958969    0.000000    0.000000
            -0.000000   -0.000000
 9          -0.000022    0.000900    0.000009    0.000000   -0.000000    0.000000    0.000000    0.000000    0.958685   -0.000000
            -0.000000    0.000000
 10         -0.000002    0.000009   -0.000900   -0.000000    0.000000   -0.000000   -0.000000    0.000000   -0.000000    0.958685
            -0.000000   -0.000000
 11          0.000900    0.000022   -0.000002    0.000000    0.000000    0.000000    0.000000   -0.000000   -0.000000   -0.000000
             0.958685    0.000000
 12          0.000000    0.000000   -0.000000    0.000000   -0.000000   -0.000000    0.000000   -0.000000    0.000000   -0.000000
             0.000000    0.958791


 RESULTS FOR STATE 1.2
 =====================

 Coefficient of reference function:   C(0) = 0.95503344 (fixed)   0.95579502 (relaxed)   0.95574540 (rotated)

 Energy contributions of configuration classes

 CLASS          SQ.NORM        ECORR1        ECORR2
 +++++++++++++++++++++++++++++++++++++++++++++++++++
 Internals    0.00011552   -0.00006986   -0.70027395
 Singles      0.01297066   -0.03963625   -0.04576226
 Pairs        0.08166536   -0.00020067   -0.06033354
 Total        1.09475154   -0.03990678   -0.80636975
 +++++++++++++++++++++++++++++++++++++++++++++++++++


 Reference energy                    -294.64042768
 Nuclear energy                         0.00000000
 Kinetic energy                       111.61459383
 One electron energy                 -514.04229221
 Two electron energy                  218.59523279
 Virial quotient                       -2.64702893
 Correlation energy                    -0.80663173
 !MRCI STATE 1.2 Energy              -295.447059413696

 Properties without orbital relaxation:

 !MRCI STATE 1.2 Dipole moment          0.00000000     0.00000000     0.00000000
 Dipole moment /Debye                   0.00000000     0.00000000     0.00000000

 Cluster corrected energies          -295.52348901 (Davidson, fixed reference)
 Cluster corrected energies          -295.52339732 (Davidson, relaxed reference)
 Cluster corrected energies          -295.52348901 (Davidson, rotated reference)

 Cluster corrected energies          -295.52306467 (Pople, fixed reference)
 Cluster corrected energies          -295.52296585 (Pople, relaxed reference)
 Cluster corrected energies          -295.52306467 (Pople, rotated reference)



 RESULTS FOR STATE 2.2
 =====================

 Maximum overlap with reference state  3

 Coefficient of reference function:   C(0) = 0.95503374 (fixed)   0.95579502 (relaxed)   0.95574541 (rotated)

 Energy contributions of configuration classes

 CLASS          SQ.NORM        ECORR1        ECORR2
 +++++++++++++++++++++++++++++++++++++++++++++++++++
 Internals    0.00011552   -0.00006986   -0.70027129
 Singles      0.01297068   -0.03963626   -0.04576228
 Pairs        0.08166534   -0.00020357   -0.06033618
 Total        1.09475153   -0.03990969   -0.80636975
 +++++++++++++++++++++++++++++++++++++++++++++++++++


 Reference energy                    -294.64042768
 Nuclear energy                         0.00000000
 Kinetic energy                       111.61458990
 One electron energy                 -514.04228589
 Two electron energy                  218.59522648
 Virial quotient                       -2.64702903
 Correlation energy                    -0.80663173
 !MRCI STATE 2.2 Energy              -295.447059412433

 Properties without orbital relaxation:

 !MRCI STATE 2.2 Dipole moment          0.00000000     0.00000000     0.00000000
 Dipole moment /Debye                   0.00000000     0.00000000     0.00000000

 Cluster corrected energies          -295.52348901 (Davidson, fixed reference)
 Cluster corrected energies          -295.52339732 (Davidson, relaxed reference)
 Cluster corrected energies          -295.52348901 (Davidson, rotated reference)

 Cluster corrected energies          -295.52306467 (Pople, fixed reference)
 Cluster corrected energies          -295.52296585 (Pople, relaxed reference)
 Cluster corrected energies          -295.52306467 (Pople, rotated reference)



 RESULTS FOR STATE 3.2
 =====================

 Maximum overlap with reference state  2

 Coefficient of reference function:   C(0) = 0.95526788 (fixed)   0.95579509 (relaxed)   0.95574547 (rotated)

 Energy contributions of configuration classes

 CLASS          SQ.NORM        ECORR1        ECORR2
 +++++++++++++++++++++++++++++++++++++++++++++++++++
 Internals    0.00011552   -0.00006986   -0.66945560
 Singles      0.01297063   -0.03963619   -0.04576223
 Pairs        0.08166523   -0.03393927   -0.09115192
 Total        1.09475138   -0.07364532   -0.80636974
 +++++++++++++++++++++++++++++++++++++++++++++++++++


 Reference energy                    -294.64042768
 Nuclear energy                         0.00000000
 Kinetic energy                       111.61458982
 One electron energy                 -514.04228720
 Two electron energy                  218.59522779
 Virial quotient                       -2.64702903
 Correlation energy                    -0.80663173
 !MRCI STATE 3.2 Energy              -295.447059407024

 Properties without orbital relaxation:

 !MRCI STATE 3.2 Dipole moment          0.00000000     0.00000000     0.00000000
 Dipole moment /Debye                   0.00000000     0.00000000     0.00000000

 Cluster corrected energies          -295.52348887 (Davidson, fixed reference)
 Cluster corrected energies          -295.52339719 (Davidson, relaxed reference)
 Cluster corrected energies          -295.52348887 (Davidson, rotated reference)

 Cluster corrected energies          -295.52306453 (Pople, fixed reference)
 Cluster corrected energies          -295.52296570 (Pople, relaxed reference)
 Cluster corrected energies          -295.52306453 (Pople, rotated reference)



 RESULTS FOR STATE 4.2
 =====================

 Coefficient of reference function:   C(0) = 0.90321507 (fixed)   0.95897455 (relaxed)   0.95896906 (rotated)

 Energy contributions of configuration classes

 CLASS          SQ.NORM        ECORR1        ECORR2
 +++++++++++++++++++++++++++++++++++++++++++++++++++
 Internals    0.00002484   -0.00007419   -0.67252136
 Singles      0.01414912   -0.04867023   -0.05491058
 Pairs        0.07322975    0.00000007   -0.05252106
 Total        1.08740371   -0.04874434   -0.77995300
 +++++++++++++++++++++++++++++++++++++++++++++++++++


 Reference energy                    -294.38119359
 Nuclear energy                         0.00000000
 Kinetic energy                       111.17212073
 One electron energy                 -507.85144226
 Two electron energy                  212.69029566
 Virial quotient                       -2.65499250
 Correlation energy                    -0.77995300
 !MRCI STATE 4.2 Energy              -295.161146595376

 Properties without orbital relaxation:

 !MRCI STATE 4.2 Dipole moment          0.00000000     0.00000000     0.00000000
 Dipole moment /Debye                   0.00000000     0.00000000     0.00000000

 Cluster corrected energies          -295.22931738 (Davidson, fixed reference)
 Cluster corrected energies          -295.22930768 (Davidson, relaxed reference)
 Cluster corrected energies          -295.22931738 (Davidson, rotated reference)

 Cluster corrected energies          -295.22849989 (Pople, fixed reference)
 Cluster corrected energies          -295.22848956 (Pople, relaxed reference)
 Cluster corrected energies          -295.22849989 (Pople, rotated reference)



 RESULTS FOR STATE 5.2
 =====================

 Coefficient of reference function:   C(0) = 0.91337669 (fixed)   0.95897459 (relaxed)   0.95896910 (rotated)

 Energy contributions of configuration classes

 CLASS          SQ.NORM        ECORR1        ECORR2
 +++++++++++++++++++++++++++++++++++++++++++++++++++
 Internals    0.00002484   -0.00007419   -0.67252099
 Singles      0.01414916   -0.04867026   -0.05491061
 Pairs        0.07322961   -0.00000035   -0.05252139
 Total        1.08740361   -0.04874480   -0.77995299
 +++++++++++++++++++++++++++++++++++++++++++++++++++


 Reference energy                    -294.38119359
 Nuclear energy                         0.00000000
 Kinetic energy                       111.17211799
 One electron energy                 -507.85144629
 Two electron energy                  212.69029970
 Virial quotient                       -2.65499256
 Correlation energy                    -0.77995299
 !MRCI STATE 5.2 Energy              -295.161146589695

 Properties without orbital relaxation:

 !MRCI STATE 5.2 Dipole moment          0.00000000     0.00000000     0.00000000
 Dipole moment /Debye                   0.00000000     0.00000000     0.00000000

 Cluster corrected energies          -295.22931730 (Davidson, fixed reference)
 Cluster corrected energies          -295.22930759 (Davidson, relaxed reference)
 Cluster corrected energies          -295.22931730 (Davidson, rotated reference)

 Cluster corrected energies          -295.22849980 (Pople, fixed reference)
 Cluster corrected energies          -295.22848948 (Pople, relaxed reference)
 Cluster corrected energies          -295.22849980 (Pople, rotated reference)



 RESULTS FOR STATE 6.2
 =====================

 Maximum overlap with reference state  7

 Coefficient of reference function:   C(0) = 0.90877381 (fixed)   0.95897457 (relaxed)   0.95896909 (rotated)

 Energy contributions of configuration classes

 CLASS          SQ.NORM        ECORR1        ECORR2
 +++++++++++++++++++++++++++++++++++++++++++++++++++
 Internals    0.00002484   -0.00007419   -0.67252215
 Singles      0.01414917   -0.04867020   -0.05491057
 Pairs        0.07322964    0.00000088   -0.05252027
 Total        1.08740365   -0.04874351   -0.77995299
 +++++++++++++++++++++++++++++++++++++++++++++++++++


 Reference energy                    -294.38119359
 Nuclear energy                         0.00000000
[...]
   27    3.2  1.5  1.5   0.234%   0.007%   0.949%   0.002%   1.833%   0.028%   0.005%   0.000%   6.643%   0.038%
   28    4.2  1.5  1.5   0.027%   0.776%   0.002%   0.618%   0.004%   0.310%   0.272%   0.000%   0.018%   2.487%
   29    5.2  1.5  1.5   0.013%   0.381%   0.002%   0.622%   0.005%   0.311%   0.271%   0.000%   0.012%   1.923%
   30    6.2  1.5  1.5   0.030%   0.001%   0.618%   0.002%   0.312%   0.005%   0.001%   1.087%   0.007%   0.000%
   31    7.2  1.5  1.5   0.397%   0.013%   0.820%   0.002%   0.125%   0.002%   0.001%   1.027%   1.280%   0.008%
   32    8.2  1.5  1.5   8.329%   0.281%   0.128%   0.000%   0.804%   0.013%   0.000%   0.061%  24.371%   0.158%
   33    9.2  1.5  1.5   0.000%   0.000%   8.973%   0.024%  17.419%   0.283%   0.000%   0.000%   0.000%   0.000%
   34    1.2  1.5  0.5   0.193%   0.007%   2.156%   0.006%   0.022%   0.000%   0.002%   5.690%   5.269%   0.035%
   35    2.2  1.5  0.5   0.155%   0.005%   0.123%   0.000%   2.029%   0.033%   0.007%   5.692%   4.699%   0.029%
   36    3.2  1.5  0.5   0.000%   0.003%   0.001%   0.208%   0.003%   0.103%  22.741%   0.010%   0.001%   0.018%
   37    4.2  1.5  0.5   0.352%   0.013%   0.315%   0.001%   0.612%   0.010%   0.000%   0.821%   0.885%   0.006%
   38    5.2  1.5  0.5   0.100%   0.005%   0.314%   0.001%   0.609%   0.012%   0.000%   0.815%   0.573%   0.004%
   39    6.2  1.5  0.5   0.028%   0.791%   0.001%   0.315%   0.012%   0.609%   0.000%   0.000%   0.017%   2.786%
   40    7.2  1.5  0.5   0.270%   8.004%   0.000%   0.129%   0.013%   0.802%   0.063%   0.000%   0.158%  24.144%
   41    8.2  1.5  0.5   0.022%   0.656%   0.002%   0.817%   0.002%   0.126%   1.029%   0.001%   0.011%   1.692%
   42    9.2  1.5  0.5   0.000%   0.000%   0.054%  17.641%   0.127%   8.877%   0.000%   0.000%   0.000%   0.000%
   43    1.2  1.5 -0.5   0.007%   0.193%   0.006%   2.156%   0.000%   0.022%   5.690%   0.002%   0.035%   5.269%
   44    2.2  1.5 -0.5   0.005%   0.155%   0.000%   0.123%   0.033%   2.029%   5.692%   0.007%   0.029%   4.699%
   45    3.2  1.5 -0.5   0.003%   0.000%   0.208%   0.001%   0.103%   0.003%   0.010%  22.741%   0.018%   0.001%
   46    4.2  1.5 -0.5   0.013%   0.352%   0.001%   0.315%   0.010%   0.612%   0.821%   0.000%   0.006%   0.885%
   47    5.2  1.5 -0.5   0.005%   0.100%   0.001%   0.314%   0.012%   0.609%   0.815%   0.000%   0.004%   0.573%
   48    6.2  1.5 -0.5   0.791%   0.028%   0.315%   0.001%   0.609%   0.012%   0.000%   0.000%   2.786%   0.017%
   49    7.2  1.5 -0.5   8.004%   0.270%   0.129%   0.000%   0.802%   0.013%   0.000%   0.063%  24.144%   0.158%
   50    8.2  1.5 -0.5   0.656%   0.022%   0.817%   0.002%   0.126%   0.002%   0.001%   1.029%   1.692%   0.011%
   51    9.2  1.5 -0.5   0.000%   0.000%  17.641%   0.054%   8.877%   0.127%   0.000%   0.000%   0.000%   0.000%
   52    1.2  1.5 -1.5   0.047%   0.002%   0.616%   0.002%   0.310%   0.005%   0.010%  17.049%   1.603%   0.012%
   53    2.2  1.5 -1.5   0.067%   0.002%   0.627%   0.001%   0.314%   0.003%   0.010%  17.068%   1.801%   0.008%
   54    3.2  1.5 -1.5   0.007%   0.234%   0.002%   0.949%   0.028%   1.833%   0.000%   0.005%   0.038%   6.643%
   55    4.2  1.5 -1.5   0.776%   0.027%   0.618%   0.002%   0.310%   0.004%   0.000%   0.272%   2.487%   0.018%
   56    5.2  1.5 -1.5   0.381%   0.013%   0.622%   0.002%   0.311%   0.005%   0.000%   0.271%   1.923%   0.012%
   57    6.2  1.5 -1.5   0.001%   0.030%   0.002%   0.618%   0.005%   0.312%   1.087%   0.001%   0.000%   0.007%
   58    7.2  1.5 -1.5   0.013%   0.397%   0.002%   0.820%   0.002%   0.125%   1.027%   0.001%   0.008%   1.280%
   59    8.2  1.5 -1.5   0.281%   8.329%   0.000%   0.128%   0.013%   0.804%   0.061%   0.000%   0.158%  24.371%
   60    9.2  1.5 -1.5   0.000%   0.000%   0.024%   8.973%   0.283%  17.419%   0.000%   0.000%   0.000%   0.000%

   Nr   State  S   Sz      41       42       43       44       45       46       47       48       49       50

    1    1.2  0.5  0.5   0.000%   0.000%   0.000%   0.000%   0.012%   0.000%   0.000%   0.002%   0.000%   0.000%
    2    2.2  0.5  0.5   0.000%   0.000%   0.000%   0.000%   0.000%   0.000%   0.013%   0.000%   0.000%   0.000%
    3    3.2  0.5  0.5   0.000%   0.000%   0.000%   0.000%   0.000%   0.008%   0.006%   0.000%   0.000%   0.000%
    4    4.2  0.5  0.5   1.934%   8.728%   0.195%   0.619%   0.048%   0.041%   0.107%   3.593%   7.687%   7.162%
    5    5.2  0.5  0.5   1.802%   1.707%   0.057%   1.570%   0.434%   0.129%   0.043%   3.236%   9.062%   4.041%
    6    6.2  0.5  0.5   2.417%   1.815%   0.466%   0.257%   0.005%   1.469%   2.232%   0.126%   1.289%   7.603%
    7    7.2  0.5  0.5   0.177%   0.051%   5.374%   0.002%   0.045%   3.669%   0.127%   0.020%   0.424%   0.271%
    8    8.2  0.5  0.5   0.165%   0.558%   0.008%  10.804%   3.703%   0.042%   0.009%   0.047%   0.130%   0.171%
    9    9.2  0.5  0.5   0.000%   0.000%   0.000%   0.000%   0.030%   0.653%  17.296%   0.552%   0.051%   0.049%
   10   10.2  0.5  0.5   0.000%   0.000%   0.000%   0.000%   0.157%  10.464%   7.518%   0.317%   0.023%   0.022%
   11   11.2  0.5  0.5   0.000%   0.000%   0.000%   0.000%  16.292%   0.156%   0.043%   2.000%   0.004%   0.003%
   12   12.2  0.5  0.5   0.000%   0.000%   0.000%   0.000%   0.000%   0.000%   0.000%   0.000%   0.000%   0.000%
   13    1.2  0.5 -0.5   0.000%   0.000%   0.000%   0.000%   0.000%   0.012%   0.002%   0.000%   0.000%   0.000%
   14    2.2  0.5 -0.5   0.000%   0.000%   0.000%   0.000%   0.000%   0.000%   0.000%   0.013%   0.000%   0.000%
   15    3.2  0.5 -0.5   0.000%   0.000%   0.000%   0.000%   0.008%   0.000%   0.000%   0.006%   0.000%   0.000%
   16    4.2  0.5 -0.5   8.728%   1.934%   0.619%   0.195%   0.041%   0.048%   3.593%   0.107%   7.162%   7.687%
   17    5.2  0.5 -0.5   1.707%   1.802%   1.570%   0.057%   0.129%   0.434%   3.236%   0.043%   4.041%   9.062%
   18    6.2  0.5 -0.5   1.815%   2.417%   0.257%   0.466%   1.469%   0.005%   0.126%   2.232%   7.603%   1.289%
   19    7.2  0.5 -0.5   0.051%   0.177%   0.002%   5.374%   3.669%   0.045%   0.020%   0.127%   0.271%   0.424%
   20    8.2  0.5 -0.5   0.558%   0.165%  10.804%   0.008%   0.042%   3.703%   0.047%   0.009%   0.171%   0.130%
   21    9.2  0.5 -0.5   0.000%   0.000%   0.000%   0.000%   0.653%   0.030%   0.552%  17.296%   0.049%   0.051%
   22   10.2  0.5 -0.5   0.000%   0.000%   0.000%   0.000%  10.464%   0.157%   0.317%   7.518%   0.022%   0.023%
   23   11.2  0.5 -0.5   0.000%   0.000%   0.000%   0.000%   0.156%  16.292%   2.000%   0.043%   0.003%   0.004%
   24   12.2  0.5 -0.5   0.000%   0.000%   0.000%   0.000%   0.000%   0.000%   0.000%   0.000%   0.000%   0.000%
   25    1.2  1.5  1.5   1.518%   6.857%   0.108%   0.988%   0.148%   0.001%   0.000%   0.020%   0.145%   0.145%
   26    2.2  1.5  1.5   0.655%   2.134%   0.043%   6.420%   0.156%   0.002%   0.001%   0.019%   0.131%   0.174%
   27    3.2  1.5  1.5   0.589%   0.132%   0.633%   0.011%   0.002%   0.056%   0.438%   0.016%   4.583%   4.254%
   28    4.2  1.5  1.5   0.132%   2.619%   0.013%  19.297%  10.861%   0.107%   0.032%   1.340%   0.041%   0.040%
   29    5.2  1.5  1.5   3.906%  15.902%   0.284%   2.591%  10.765%   0.136%   0.028%   1.351%   0.046%   0.043%
   30    6.2  1.5  1.5   1.802%   0.281%   3.126%   0.017%   0.137%  10.762%   1.343%   0.028%   0.037%   0.039%
   31    7.2  1.5  1.5   0.854%   0.168%   4.394%   0.010%   0.127%  12.003%   0.130%   0.013%   0.001%   0.002%
   32    8.2  1.5  1.5   3.120%   0.737%   1.239%   0.054%   0.030%   0.109%  11.750%   0.395%   0.460%   0.435%
   33    9.2  1.5  1.5   0.000%   0.000%   0.000%   0.000%   0.001%   0.036%   0.313%   0.011%  19.311%  18.140%
   34    1.2  1.5  0.5   2.745%   0.550%   0.417%   0.037%   0.004%   0.344%   0.055%   0.003%   0.630%   0.555%
   35    2.2  1.5  0.5   0.140%   0.038%   4.146%   0.007%   0.001%   0.096%   0.290%   0.008%   2.772%   2.698%
   36    3.2  1.5  0.5   0.728%   4.045%   0.062%   7.235%   0.052%   0.001%   0.000%   0.006%   0.062%   0.039%
   37    4.2  1.5  0.5   4.435%   0.735%   5.557%   0.058%   0.052%   1.319%  10.526%   0.380%   0.438%   0.410%
   38    5.2  1.5  0.5   2.832%   0.651%   7.577%   0.058%   0.055%   1.303%  10.582%   0.349%   0.419%   0.404%
   39    6.2  1.5  0.5   3.439%  13.329%   0.213%  11.247%   1.330%   0.056%   0.353%  10.599%   0.423%   0.441%
   40    7.2  1.5  0.5   0.860%   3.800%   0.054%   0.644%   0.108%   0.030%   0.396%  11.759%   0.439%   0.465%
   41    8.2  1.5  0.5   0.148%   0.765%   0.010%   4.093%  12.001%   0.131%   0.013%   0.126%   0.003%   0.002%
   42    9.2  1.5  0.5   0.000%   0.000%   0.000%   0.000%   0.316%   0.003%   0.001%   0.040%   1.918%   1.861%
   43    1.2  1.5 -0.5   0.550%   2.745%   0.037%   0.417%   0.344%   0.004%   0.003%   0.055%   0.555%   0.630%
   44    2.2  1.5 -0.5   0.038%   0.140%   0.007%   4.146%   0.096%   0.001%   0.008%   0.290%   2.698%   2.772%
   45    3.2  1.5 -0.5   4.045%   0.728%   7.235%   0.062%   0.001%   0.052%   0.006%   0.000%   0.039%   0.062%
   46    4.2  1.5 -0.5   0.735%   4.435%   0.058%   5.557%   1.319%   0.052%   0.380%  10.526%   0.410%   0.438%
   47    5.2  1.5 -0.5   0.651%   2.832%   0.058%   7.577%   1.303%   0.055%   0.349%  10.582%   0.404%   0.419%
   48    6.2  1.5 -0.5  13.329%   3.439%  11.247%   0.213%   0.056%   1.330%  10.599%   0.353%   0.441%   0.423%
   49    7.2  1.5 -0.5   3.800%   0.860%   0.644%   0.054%   0.030%   0.108%  11.759%   0.396%   0.465%   0.439%
   50    8.2  1.5 -0.5   0.765%   0.148%   4.093%   0.010%   0.131%  12.001%   0.126%   0.013%   0.002%   0.003%
   51    9.2  1.5 -0.5   0.000%   0.000%   0.000%   0.000%   0.003%   0.316%   0.040%   0.001%   1.861%   1.918%
   52    1.2  1.5 -1.5   6.857%   1.518%   0.988%   0.108%   0.001%   0.148%   0.020%   0.000%   0.145%   0.145%
   53    2.2  1.5 -1.5   2.134%   0.655%   6.420%   0.043%   0.002%   0.156%   0.019%   0.001%   0.174%   0.131%
   54    3.2  1.5 -1.5   0.132%   0.589%   0.011%   0.633%   0.056%   0.002%   0.016%   0.438%   4.254%   4.583%
   55    4.2  1.5 -1.5   2.619%   0.132%  19.297%   0.013%   0.107%  10.861%   1.340%   0.032%   0.040%   0.041%
   56    5.2  1.5 -1.5  15.902%   3.906%   2.591%   0.284%   0.136%  10.765%   1.351%   0.028%   0.043%   0.046%
   57    6.2  1.5 -1.5   0.281%   1.802%   0.017%   3.126%  10.762%   0.137%   0.028%   1.343%   0.039%   0.037%
   58    7.2  1.5 -1.5   0.168%   0.854%   0.010%   4.394%  12.003%   0.127%   0.013%   0.130%   0.002%   0.001%
   59    8.2  1.5 -1.5   0.737%   3.120%   0.054%   1.239%   0.109%   0.030%   0.395%  11.750%   0.435%   0.460%
   60    9.2  1.5 -1.5   0.000%   0.000%   0.000%   0.000%   0.036%   0.001%   0.011%   0.313%  18.140%  19.311%

   Nr   State  S   Sz      51       52       53       54       55       56       57       58       59       60

    1    1.2  0.5  0.5   0.000%   0.001%   0.005%   0.000%   0.000%   0.008%   0.000%   0.000%   0.000%   0.000%
    2    2.2  0.5  0.5   0.000%   0.000%   0.000%   0.005%   0.008%   0.000%   0.000%   0.000%   0.000%   0.000%
    3    3.2  0.5  0.5   0.001%   0.000%   0.000%   0.005%   0.008%   0.000%   0.000%   0.000%   0.000%   0.000%
    4    4.2  0.5  0.5   0.051%   0.307%   0.000%   0.000%   0.000%   0.000%   3.777%   7.748%   0.066%   1.359%
    5    5.2  0.5  0.5   0.608%   1.366%   0.000%   0.000%   0.000%   0.000%   1.002%   5.849%   0.448%   5.625%
    6    6.2  0.5  0.5   6.143%   0.054%   0.000%   0.000%   0.000%   0.000%   9.037%   2.555%   0.831%   0.502%
    7    7.2  0.5  0.5  14.269%   0.089%   0.000%   0.000%   0.000%   0.000%   0.749%   0.156%  11.440%   0.580%
    8    8.2  0.5  0.5   0.089%  14.796%   0.000%   0.000%   0.000%   0.000%   0.277%   1.175%   0.582%  10.919%
    9    9.2  0.5  0.5   0.005%   0.000%   0.298%   7.205%   9.318%   0.005%   5.779%   1.982%   0.532%   0.053%
   10   10.2  0.5  0.5   0.056%   0.000%   0.290%   7.261%   9.357%   0.004%   0.378%   0.186%   7.306%   0.436%
   11   11.2  0.5  0.5   0.001%   0.095%   7.235%   0.294%   0.005%   9.333%   0.948%   3.230%   0.189%   3.961%
   12   12.2  0.5  0.5   0.000%   0.000%  24.441%   0.996%   0.012%  23.685%   0.000%   0.000%   0.000%   0.000%
   13    1.2  0.5 -0.5   0.001%   0.000%   0.000%   0.005%   0.008%   0.000%   0.000%   0.000%   0.000%   0.000%
   14    2.2  0.5 -0.5   0.000%   0.000%   0.005%   0.000%   0.000%   0.008%   0.000%   0.000%   0.000%   0.000%
   15    3.2  0.5 -0.5   0.000%   0.001%   0.005%   0.000%   0.000%   0.008%   0.000%   0.000%   0.000%   0.000%
   16    4.2  0.5 -0.5   0.307%   0.051%   0.000%   0.000%   0.000%   0.000%   7.748%   3.777%   1.359%   0.066%
   17    5.2  0.5 -0.5   1.366%   0.608%   0.000%   0.000%   0.000%   0.000%   5.849%   1.002%   5.625%   0.448%
   18    6.2  0.5 -0.5   0.054%   6.143%   0.000%   0.000%   0.000%   0.000%   2.555%   9.037%   0.502%   0.831%
   19    7.2  0.5 -0.5   0.089%  14.269%   0.000%   0.000%   0.000%   0.000%   0.156%   0.749%   0.580%  11.440%
   20    8.2  0.5 -0.5  14.796%   0.089%   0.000%   0.000%   0.000%   0.000%   1.175%   0.277%  10.919%   0.582%
   21    9.2  0.5 -0.5   0.000%   0.005%   7.205%   0.298%   0.005%   9.318%   1.982%   5.779%   0.053%   0.532%
   22   10.2  0.5 -0.5   0.000%   0.056%   7.261%   0.290%   0.004%   9.357%   0.186%   0.378%   0.436%   7.306%
   23   11.2  0.5 -0.5   0.095%   0.001%   0.294%   7.235%   9.333%   0.005%   3.230%   0.948%   3.961%   0.189%
   24   12.2  0.5 -0.5   0.000%   0.000%   0.996%  24.441%  23.685%   0.012%   0.000%   0.000%   0.000%   0.000%
   25    1.2  1.5  1.5   0.020%   2.913%   0.681%   0.028%   0.001%   1.508%   0.516%   1.775%   0.109%   2.168%
   26    2.2  1.5  1.5   0.023%   2.911%   0.691%   0.028%   0.001%   1.502%   0.555%   1.724%   0.111%   2.171%
   27    3.2  1.5  1.5   0.891%   0.003%   0.000%   0.000%   0.000%   0.000%   4.944%   1.886%   6.416%   0.440%
   28    4.2  1.5  1.5   0.006%   0.852%   2.367%   0.099%   0.001%   2.107%   0.429%   1.452%   0.084%   1.797%
   29    5.2  1.5  1.5   0.007%   0.848%   2.333%   0.111%   0.003%   2.114%   0.418%   1.471%   0.085%   1.796%
   30    6.2  1.5  1.5   0.825%   0.008%   0.405%   9.419%   8.437%   0.006%   1.473%   0.414%   1.790%   0.081%
   31    7.2  1.5  1.5   0.901%   0.006%   0.358%   8.897%   7.960%   0.004%   0.791%   0.220%   2.603%   0.136%
   32    8.2  1.5  1.5   0.004%   0.000%   0.022%   0.545%   0.483%   0.000%   2.018%   0.723%   0.939%   0.070%
   33    9.2  1.5  1.5   3.781%   0.008%   0.000%   0.000%   0.000%   0.000%   4.924%   1.844%   6.375%   0.428%
   34    1.2  1.5  0.5   6.348%   0.036%   0.009%   0.234%   0.502%   0.000%   0.089%   0.013%   9.979%   0.560%
   35    2.2  1.5  0.5   2.062%   0.024%   0.008%   0.223%   0.500%   0.001%   7.956%   2.600%   0.096%   0.000%
   36    3.2  1.5  0.5   0.011%   0.952%   0.914%   0.035%   0.001%   2.005%   0.153%   0.618%   0.030%   0.726%
   37    4.2  1.5  0.5   0.090%   0.000%   0.288%   7.063%   6.343%   0.003%   1.363%   0.503%   1.772%   0.116%
   38    5.2  1.5  0.5   0.080%   0.000%   0.289%   7.098%   6.318%   0.003%   1.383%   0.494%   1.773%   0.114%
   39    6.2  1.5  0.5   0.000%   0.086%   0.000%   0.001%   0.001%   0.000%   0.493%   1.385%   0.114%   1.777%
   40    7.2  1.5  0.5   0.000%   0.004%   0.541%   0.023%   0.000%   0.487%   0.717%   2.017%   0.068%   0.942%
   41    8.2  1.5  0.5   0.006%   0.895%   8.896%   0.361%   0.004%   7.959%   0.217%   0.789%   0.133%   2.611%
   42    9.2  1.5  0.5   0.261%  37.205%   0.000%   0.000%   0.000%   0.000%   1.559%   5.250%   0.308%   6.452%
   43    1.2  1.5 -0.5   0.036%   6.348%   0.234%   0.009%   0.000%   0.502%   0.013%   0.089%   0.560%   9.979%
   44    2.2  1.5 -0.5   0.024%   2.062%   0.223%   0.008%   0.001%   0.500%   2.600%   7.956%   0.000%   0.096%
   45    3.2  1.5 -0.5   0.952%   0.011%   0.035%   0.914%   2.005%   0.001%   0.618%   0.153%   0.726%   0.030%
   46    4.2  1.5 -0.5   0.000%   0.090%   7.063%   0.288%   0.003%   6.343%   0.503%   1.363%   0.116%   1.772%
   47    5.2  1.5 -0.5   0.000%   0.080%   7.098%   0.289%   0.003%   6.318%   0.494%   1.383%   0.114%   1.773%
   48    6.2  1.5 -0.5   0.086%   0.000%   0.001%   0.000%   0.000%   0.001%   1.385%   0.493%   1.777%   0.114%
   49    7.2  1.5 -0.5   0.004%   0.000%   0.023%   0.541%   0.487%   0.000%   2.017%   0.717%   0.942%   0.068%
   50    8.2  1.5 -0.5   0.895%   0.006%   0.361%   8.896%   7.959%   0.004%   0.789%   0.217%   2.611%   0.133%
   51    9.2  1.5 -0.5  37.205%   0.261%   0.000%   0.000%   0.000%   0.000%   5.250%   1.559%   6.452%   0.308%
   52    1.2  1.5 -1.5   2.913%   0.020%   0.028%   0.681%   1.508%   0.001%   1.775%   0.516%   2.168%   0.109%
   53    2.2  1.5 -1.5   2.911%   0.023%   0.028%   0.691%   1.502%   0.001%   1.724%   0.555%   2.171%   0.111%
   54    3.2  1.5 -1.5   0.003%   0.891%   0.000%   0.000%   0.000%   0.000%   1.886%   4.944%   0.440%   6.416%
   55    4.2  1.5 -1.5   0.852%   0.006%   0.099%   2.367%   2.107%   0.001%   1.452%   0.429%   1.797%   0.084%
   56    5.2  1.5 -1.5   0.848%   0.007%   0.111%   2.333%   2.114%   0.003%   1.471%   0.418%   1.796%   0.085%
   57    6.2  1.5 -1.5   0.008%   0.825%   9.419%   0.405%   0.006%   8.437%   0.414%   1.473%   0.081%   1.790%
   58    7.2  1.5 -1.5   0.006%   0.901%   8.897%   0.358%   0.004%   7.960%   0.220%   0.791%   0.136%   2.603%
   59    8.2  1.5 -1.5   0.000%   0.004%   0.545%   0.022%   0.000%   0.483%   0.723%   2.018%   0.070%   0.939%
   60    9.2  1.5 -1.5   0.008%   3.781%   0.000%   0.000%   0.000%   0.000%   1.844%   4.924%   0.428%   6.375%


 Property matrices transformed in SO basis (not sym. adapted)
 ============================================================

 No matrix element <i|DMX|i> larger than 5E-7
 No matrix element <i|DMX|1> larger than 5E-7

 No matrix element <i|DMY|i> larger than 5E-7
 No matrix element <i|DMY|1> larger than 5E-7

 No matrix element <i|DMZ|i> larger than 5E-7
 No matrix element <i|DMZ|1> larger than 5E-7


 **********************************************************************************************************************************
 DATASETS  * FILE   NREC   LENGTH (MB)   RECORD NAMES
              1      21       39.05       500      610      700      900      950      970     1000      129      960     1100   
                                          VAR    BASINP    GEOM    SYMINP    ZMAT    AOBASIS   BASIS     P2S    ABASIS      S 
                                         1400     1410     1420     1200     1210     1080     1700     1600     1650     1380   
                                           T        V       ECP      H0       H01     AOSYM    OPER      SMH    MOLCAS    JKOP   
                                         1700(1)
                                         OPER   

              2       7     1941.94       700     1000      520     2100     2140     5203     5303   
                                         GEOM     BASIS   MCVARS     RHF     MCSCF    MRCI     MRCI   

 PROGRAMS   *        TOTAL        CI        CI        CI     MULTI   RHF-SCF       INT
 CPU TIMES  *    300498.89 289916.97   3181.25   7393.27      5.82      0.06      1.17
 REAL TIME  *    303475.60 SEC
 DISK USED  *         1.93 GB (local),       23.28 GB (total)
 SF USED    *        12.75 GB
 GA USED    *         0.00 MB       (max)       0.00 MB       (current)
 **********************************************************************************************************************************

 CI/USERDEF energy=   -295.203914714049

              CI              CI           MULTI         RHF-SCF
   -295.15652440   -295.15657512   -294.37619516   -294.74654372
 **********************************************************************************************************************************
 Molpro calculation terminated with 1 warning(s)
