
 Working directory              : /wrk/irikura/molpro.tUJCVzQy1d/
 Global scratch directory       : /wrk/irikura/molpro.tUJCVzQy1d/
 Wavefunction directory         : /home/irikura/wfu/
 Main file repository           : /wrk/irikura/molpro.tUJCVzQy1d/

 id        : nistki

 Nodes            nprocs
 pn112695.nist.gov    8
 GA implementation: MPI file
 GA implementation (serial work in mppx): MPI file

 Using customized tuning parameters: mindgm=1; mindgv=20; mindgc=4; mindgr=1; noblas=0; minvec=7
 default implementation of scratch files=sf  


 Variables initialized (1040), CPU time= 0.01 sec
 ***,I SO-CI
                                                                                 ! active space (7/7)
                                                                                 ! additional diffuse spdf functions
 memory,4000,M;
 
 gprint,orbitals,civector;
                                                                                 !gthresh,energy=1.d-10,coeff=1.d-8;
 
 symmetry,xyz
 geometry={I};
 
 basis={
 ecp,i,ECP28MDF;
 spdfghi,i,aug-cc-pwCV5Z-PP;C; spdf,1,even,nprim=1,ratio=3.0;
 }
 
 {rhf;wf,charge=-1}
 
 NDOUB=12
 NQUAR=9
 
 {multi
     occ,7,9
     closed,6,3
     wf,charge=0,sym=2,spin=1;state,NDOUB; weight,3[25],(NDOUB-3)[1]
     wf,charge=0,sym=2,spin=3;state,NQUAR; weight,all,1
     expec2,lxx,lyy,lzz;
 }
 table, energy, ll
 title, Energies and &lt;L**2&gt; values
 
 core,0,0
 
 {ci;wf,sym=2,spin=1;state,NDOUB; save,5203.2}
 hlsdiag = energd4
 {ci;wf,sym=2,spin=3;state,NQUAR; save,5303.2}
 hlsdiag(NDOUB+1) = energd4
 
 table,hlsdiag
 
 {ci;hlsmat,ecp,5203.2,5303.2;print,vls=0,hls=0}                                 !compute and diagonalize SO matrix
 Commands initialized (846), CPU time= 0.02 sec, 717 directives.
 Default parameters read. Elapsed time= 0.19 sec

 Checking input...
 Passed
1


                                         ***  PROGRAM SYSTEM MOLPRO  ***
                                       Copyright, TTI GmbH Stuttgart, 2015
                                    Version 2023.2 linked Fri Sep 22 03:27:09 2023


 **********************************************************************************************************************************
 LABEL *   I SO-CI                                                                                                                                                       
  (32 PROC) 64 bit mpp version                                                           DATE: 08-Nov-24          TIME: 11:40:42  
 **********************************************************************************************************************************

 SHA1:             3c61bfe44d37c8635c785372c339f5cbdd4e4b59
 **********************************************************************************************************************************

 Memory per process:      4000 MW
 Total memory per node:  32000 MW

 GA preallocation disabled
 GA check disabled

 Variable memory set to 4000.0 MW


 ZSYMEL=XYZ

 SETTING BASIS          =    USERDEF


 Recomputing integrals since basis changed


 Using spherical harmonics

 Library entry I    ECP ECP28MDF                 selected for group  1
 Library entry I      S AUG-CC-PWCV5Z-PP     selected for orbital group  1
 Even tempered I  S diffuse               selected for group 1    nprim= 1    centre=  0.010    ratio= 3.000    dratio= 1.000
 Library entry I      P AUG-CC-PWCV5Z-PP     selected for orbital group  1
 Even tempered I  P diffuse               selected for group 1    nprim= 1    centre=  0.008    ratio= 3.000    dratio= 1.000
 Library entry I      D AUG-CC-PWCV5Z-PP     selected for orbital group  1
 Even tempered I  D diffuse               selected for group 1    nprim= 1    centre=  0.021    ratio= 3.000    dratio= 1.000
 Library entry I      F AUG-CC-PWCV5Z-PP     selected for orbital group  1
 Even tempered I  F diffuse               selected for group 1    nprim= 1    centre=  0.034    ratio= 3.000    dratio= 1.000
 Library entry I      G AUG-CC-PWCV5Z-PP     selected for orbital group  1
 Library entry I      H AUG-CC-PWCV5Z-PP     selected for orbital group  1
 Library entry I      I AUG-CC-PWCV5Z-PP     selected for orbital group  1


 PROGRAM * SEWARD (Integral evaluation for generally contracted gaussian basis sets)     Author: Roland Lindh, 1990

 Geometry written to block  1 of record 700

 Orientation using atomic masses  
 Molecule type: Atom
 User-specified symmetry elements: XYZ
 Symmetry elements: XYZ
 Rotational constants:       0.0000000      0.0000000      0.0000000 GHz  (calculated with average atomic masses)

 Point group  Ci  



 ATOMIC COORDINATES

 NR  ATOM    CHARGE       X              Y              Z

   1  I      25.00    0.000000000    0.000000000    0.000000000

 NUCLEAR CHARGE:                   25
 NUMBER OF PRIMITIVE AOS:         485
 NUMBER OF SYMMETRY AOS:          348
 NUMBER OF CONTRACTIONS:          281   (  135Ag  +  146Au  )
 NUMBER OF INNER CORE ORBITALS:     0   (    0Ag  +    0Au  )
 NUMBER OF OUTER CORE ORBITALS:     9   (    6Ag  +    3Au  )
 NUMBER OF VALENCE ORBITALS:        4   (    1Ag  +    3Au  )


 LX: Ag           LY: Ag           LZ: Ag 


 NUCLEAR REPULSION ENERGY    0.00000000

 EXTRA SYMMETRY OF AOS IN SYMMETRY 1:   1 1 1 1 1 1 1 1 1 1   1 1 1 2 3 4 5 6 2 3   4 5 6 2 3 4 5 6 2 3   4 5 6 2 3 4 5 6 2 3
                                        4 5 6 2 3 4 5 6 2 3   4 5 6 2 3 4 5 6 2 3   4 5 6 2 3 4 5 6 7 8   9101112131415 7 8 9
                                       101112131415 7 8 910  1112131415 7 8 91011  12131415 7 8 9101112  131415 7 8 910111213
                                       14151617181920212223  2425262728
 EXTRA SYMMETRY OF AOS IN SYMMETRY 2:   1 2 3 1 2 3 1 2 3 1   2 3 1 2 3 1 2 3 1 2   3 1 2 3 1 2 3 1 2 3   1 2 3 1 2 3 1 2 3 4
                                        5 6 7 8 910 4 5 6 7   8 910 4 5 6 7 8 910   4 5 6 7 8 910 4 5 6   7 8 910 4 5 6 7 8 9
                                       10 4 5 6 7 8 910 4 5   6 7 8 910 4 5 6 7 8   9101112131415161718  19202111121314151617
                                       18192021111213141516  17181920211112131415  161718192021


 Eigenvalues of metric

         1 0.359E-05 0.223E-04 0.226E-03 0.301E-03 0.301E-03 0.301E-03 0.301E-03 0.301E-03
         2 0.386E-06 0.386E-06 0.386E-06 0.299E-03 0.299E-03 0.299E-03 0.218E-02 0.218E-02


 Contracted 2-electron integrals neglected if value below      1.0D-14
 AO integral compression algorithm  1   Integral accuracy      1.0D-14

     920.125 MB (compressed) written to integral file ( 17.8%)

     Node minimum: 92.013 MB, node maximum: 148.636 MB


 NUMBER OF SORTED TWO-ELECTRON INTEGRALS:   49396652.     BUFFER LENGTH:  32768
 NUMBER OF SEGMENTS:   4  SEGMENT LENGTH:   15990632      RECORD LENGTH: 524288

 Memory used in sort:      16.55 MW

 SORT1 READ   646821870. AND WROTE     8512704. INTEGRALS IN     26 RECORDS. CPU TIME:     2.69 SEC, REAL TIME:     2.82 SEC
 SORT2 READ    68066263. AND WROTE   395255076. INTEGRALS IN   3264 RECORDS. CPU TIME:     1.02 SEC, REAL TIME:     1.13 SEC

 Node minimum:    49389188.  Node maximum:    49431662. integrals

 OPERATOR DM      FOR CENTER  0  COORDINATES:    0.000000    0.000000    0.000000


 **********************************************************************************************************************************
 DATASETS  * FILE   NREC   LENGTH (MB)   RECORD NAMES
              1      19       30.69       500      610      700      900      950      970     1000      129      960     1100   
                                          VAR    BASINP    GEOM    SYMINP    ZMAT    AOBASIS   BASIS     P2S    ABASIS      S 
                                         1400     1410     1420     1200     1210     1080     1700     1600     1650   
                                           T        V       ECP      H0       H01     AOSYM    OPER      SMH    MOLCAS    

 PROGRAMS   *        TOTAL       INT
 CPU TIMES  *        13.27     12.94
 REAL TIME  *        16.19 SEC
 DISK USED  *        31.11 MB (local),        1.79 GB (total)
 GA USED    *         0.00 MB       (max)       0.00 MB       (current)
 **********************************************************************************************************************************


 Program * Restricted Hartree-Fock

 Orbital guess generated from atomic densities.

 Initial occupancy:   7   6

 NELEC=   26   SYM=1   MS2= 0   THRE=1.0D-08   THRD=3.2D-06   THRG=3.2D-06  HFMA2=F  DIIS_START=2   DIIS_MAX=10   DIIS_INCORE=F

 Level shifts:    0.00 (CLOSED)    0.00 (OPEN)    0.30 (GAP_MIN)

 ITER           ETOT              DE          GRAD        DDIFF     DIIS  NEXP   TIME(IT)  TIME(TOT)  DIAG
   1     -294.71890407    -294.71890407     0.00D+00     0.48D-01     0     0       0.22      0.43    start
   2     -294.74429992      -0.02539585     0.28D-02     0.25D-02     1     0       0.22      0.65    diag
   3     -294.74637248      -0.00207257     0.15D-02     0.59D-03     2     0       0.23      0.88    diag
   4     -294.74677054      -0.00039805     0.29D-03     0.35D-03     3     0       0.22      1.10    diag
   5     -294.74685524      -0.00008470     0.10D-03     0.20D-03     4     0       0.22      1.32    diag
   6     -294.74686328      -0.00000804     0.26D-04     0.70D-04     5     0       0.23      1.55    diag
   7     -294.74686363      -0.00000035     0.45D-05     0.20D-04     6     0       0.22      1.77    diag
   8     -294.74686365      -0.00000002     0.92D-06     0.39D-05     7     0       0.22      1.99    fixocc
   9     -294.74686365      -0.00000000     0.16D-06     0.99D-06     8     0       0.23      2.22    diag
  10     -294.74686365      -0.00000000     0.30D-07     0.13D-06     0     0       0.22      2.44    diag/orth

 Final occupancy:   7   6

 !RHF STATE 1.1 Energy               -294.746863649666
  RHF One-electron energy            -520.926471482769
  RHF Two-electron energy             226.179607833103
  RHF Kinetic energy                  110.887818406682
  RHF Nuclear energy                    0.000000000000
  RHF Virial quotient                  -2.658063508551

 !RHF STATE 1.1 Dipole moment           0.00000000     0.00000000     0.00000000
 Dipole moment /Debye                   0.00000000     0.00000000     0.00000000

 ELECTRON ORBITALS
 =================

  Orbital  Occupation    Energy    Cen Mu Typ  Coefficients
    1.1     2.00000    -7.45091     1  1  s    0.99968
    2.1     2.00000    -2.00364     1  1  d0   0.27281    1  1  d2+  0.96197
    3.1     2.00000    -2.00364     1  1  d2-  0.99236
    4.1     2.00000    -2.00364     1  1  d1-  0.99244
    5.1     2.00000    -2.00364     1  1  d0   0.96179    1  1  d2+ -0.27278
    6.1     2.00000    -2.00364     1  1  d1+  0.99964
    7.1     2.00000    -0.60772     1  1  s   -0.42334    1  3  s   -0.25821    1  5  s    0.56626    1  6  s    0.49105
    1.2     2.00000    -5.27628     1  1  px   1.00125
    2.2     2.00000    -5.27628     1  1  py   1.00125
    3.2     2.00000    -5.27628     1  1  pz   1.00125
    4.2     2.00000    -0.12599     1  1  py  -0.36714    1  5  py   0.42075    1  6  py   0.36698
    5.2     2.00000    -0.12599     1  1  px  -0.36714    1  5  px   0.42075    1  6  px   0.36698
    6.2     2.00000    -0.12599     1  1  pz  -0.36714    1  5  pz   0.42075    1  6  pz   0.36698


 HOMO      6.2    -0.125989 =      -3.4283eV
 LUMO      7.2     0.090557 =       2.4642eV
 LUMO-HOMO         0.216546 =       5.8925eV

 Orbitals saved in record  2100.2


 **********************************************************************************************************************************
 DATASETS  * FILE   NREC   LENGTH (MB)   RECORD NAMES
              1      19       30.69       500      610      700      900      950      970     1000      129      960     1100   
                                          VAR    BASINP    GEOM    SYMINP    ZMAT    AOBASIS   BASIS     P2S    ABASIS      S 
                                         1400     1410     1420     1200     1210     1080     1700     1600     1650   
                                           T        V       ECP      H0       H01     AOSYM    OPER      SMH    MOLCAS    

              2       4        1.03       700     1000      520     2100   
                                         GEOM     BASIS   MCVARS     RHF  

 PROGRAMS   *        TOTAL   RHF-SCF       INT
 CPU TIMES  *        15.72      2.45     12.94
 REAL TIME  *        18.79 SEC
 DISK USED  *        34.43 MB (local),        1.82 GB (total)
 GA USED    *         0.00 MB       (max)       0.00 MB       (current)
 **********************************************************************************************************************************
 SETTING NDOUB          =        12.00000000                                  
 SETTING NQUAR          =         9.00000000                                  

 PROGRAM * MULTI (Direct Multiconfiguration SCF)       Authors: P.J. Knowles, H.-J. Werner (1984)
                                                                D.A. Kreplin, P.J. Knowles, H.-J. Werner (2019)

 Number of closed-shell orbitals:   9 (    6    3)
 Number of active  orbitals:        7 (    1    6)
 Number of external orbitals:     265 (  128  137)

 State symmetry 1

 Number of active electrons:   7    Spin symmetry=Doublet   Space symmetry=2
 Number of states:            12
 Number of CSFs:             420   (600 determinants, 1225 intermediate states)

 State symmetry 2

 Number of active electrons:   7    Spin symmetry=Quartet   Space symmetry=2
 Number of states:             9
 Number of CSFs:             168   (180 determinants, 441 intermediate states)

 Molecular orbitals read from record     2100.2  Type=RHF/CANONICAL  
 *** IN SYMMETRY 1 ORBITAL  2 SYMMETRY CONTAMINATION OF 0.222D+00 HAS BEEN REMOVED
 *** IN SYMMETRY 1 ORBITAL  3 SYMMETRY CONTAMINATION OF 0.125D+00 HAS BEEN REMOVED
 *** IN SYMMETRY 1 ORBITAL  4 SYMMETRY CONTAMINATION OF 0.126D+00 HAS BEEN REMOVED
 *** IN SYMMETRY 1 ORBITAL  5 SYMMETRY CONTAMINATION OF 0.240D+00 HAS BEEN REMOVED
 *** IN SYMMETRY 1 ORBITAL  6 SYMMETRY CONTAMINATION OF 0.358D-01 HAS BEEN REMOVED

 EXTRA SYMMETRY OF MOS IN SYMMETRY 1:   1 5 3 6 2 4 1 1 4 6   3 2 5 1 4 5 6 3 2 1   4 6 2 5 314 81512 9   7131011 1 2 4 5 3 6
                                       11 8131215 9 71410 6   4 2 5 3 1111214 8 9  131510 7 2 5 4 6 3 1  111214 8151310 9 727
                                       21231720182522261628  1924 2 5 4 3 6111314  121015 8 9 7 1 2 5 4   3 61013151412 8 711
                                        9 1 3 4 2 6 5 1 3 4   2 5 6 1 1
 *** IN SYMMETRY 2 ORBITAL  1 SYMMETRY CONTAMINATION OF 0.822D-04 HAS BEEN REMOVED
 *** IN SYMMETRY 2 ORBITAL  2 SYMMETRY CONTAMINATION OF 0.898D-03 HAS BEEN REMOVED
 *** IN SYMMETRY 2 ORBITAL  3 SYMMETRY CONTAMINATION OF 0.895D-03 HAS BEEN REMOVED
 *** IN SYMMETRY 2 ORBITAL  4 SYMMETRY CONTAMINATION OF 0.194D-02 HAS BEEN REMOVED
 *** IN SYMMETRY 2 ORBITAL  6 SYMMETRY CONTAMINATION OF 0.194D-02 HAS BEEN REMOVED
 *** IN SYMMETRY 2 ORBITAL  7 SYMMETRY CONTAMINATION OF 0.325D+00 HAS BEEN REMOVED
 *** IN SYMMETRY 2 ORBITAL  8 SYMMETRY CONTAMINATION OF 0.325D+00 HAS BEEN REMOVED
 EXTRA SYMMETRY OF MOS IN SYMMETRY 2:   1 2 3 2 1 3 3 2 1 1   2 3 8 710 4 9 6 5 2   1 3 810 6 7 9 4 5 2   3 110 8 5 6 7 9 410
                                        5 8 7 9 6 421111314  18151712162019 2 3 1   7 810 5 9 6 4191221  1417161520111813 6 7
                                        5 9 810 4 2 3 1 910   7 5 8 6 41219211417  161520181311 1 2 3 9   710 5 8 4 618201517
                                       16141321121911 1 2 3   7 910 8 4 5 6 1 2 3   1 2 3 1 2 3

 Wavefunction dump at record             2140.2

 Convergence thresholds  0.10E-04 (gradient)  0.10E-05 (energy)

 Weight factors for state symmetry  1:    0.26882   0.26882   0.26882   0.01075   0.01075   0.01075   0.01075   0.01075
                                          0.01075   0.01075   0.01075   0.01075
 Weight factors for state symmetry  2:    0.01075   0.01075   0.01075   0.01075   0.01075   0.01075   0.01075   0.01075
                                          0.01075
 
 Number of orbital rotations:  2153  ( 24 closed/active, 1179 closed/virtual, 0 active/active, 950 active/virtual )
 Total number of variables:    10973
 
 Second-order MCSCF: L-BFGS accelerated
 
 ITER  MIC  NCI  NEG     ENERGY(VAR)    ENERGY(PROJ) ENERGY CHANGE       GRAD(0)  GRAD(ORB)   GRAD(CI)      STEP      TIME
   1    8   25    0   -294.54776395    -294.61639259   -0.06862864    0.27443978 0.00181007 0.00347757  0.12E+01      3.09
   2    8   24    0   -294.59367353    -294.60066085   -0.00698732    0.21804980 0.00067230 0.00083078  0.56E+00      6.90
   3    7   21    0   -294.60072133    -294.60072365   -0.00000232    0.00228760 0.00000031 0.00000232  0.16E-01     10.22
   4    5   14    0   -294.60072365    -294.60072365   -0.00000000    0.00000102 0.00000001 0.00000008  0.65E-05     12.84

 CONVERGENCE REACHED!  Final gradient:    0.00000002 ( 0.24E-07)
                       Final energy:   -294.60072365
 
 Results for state 1.2 Doublet
 =============================
 !MCSCF STATE 1.2 Doublet Energy              -294.656650759990
 Nuclear energy                                  0.00000000
 Kinetic energy                                110.88943595
 One electron energy                          -513.86152599
 Two electron energy                           219.20487523
 Virial ratio                                    3.65721120
 
 !MCSCF STATE 1.2 Doublet Dipole moment          0.00000000     0.00000000     0.00000000
 Dipole moment /Debye                            0.00000000     0.00000000     0.00000000
 
 Results for state 2.2 Doublet
 =============================
 !MCSCF STATE 2.2 Doublet Energy              -294.656650759978
 Nuclear energy                                  0.00000000
 Kinetic energy                                110.88943595
 One electron energy                          -513.86152599
 Two electron energy                           219.20487523
 Virial ratio                                    3.65721120
 
 !MCSCF STATE 2.2 Doublet Dipole moment          0.00000000     0.00000000     0.00000000
 Dipole moment /Debye                            0.00000000     0.00000000     0.00000000
 
 Results for state 3.2 Doublet
 =============================
 !MCSCF STATE 3.2 Doublet Energy              -294.656650759809
 Nuclear energy                                  0.00000000
 Kinetic energy                                110.88943597
 One electron energy                          -513.86152604
 Two electron energy                           219.20487528
 Virial ratio                                    3.65721120
 
 !MCSCF STATE 3.2 Doublet Dipole moment          0.00000000     0.00000000     0.00000000
 Dipole moment /Debye                            0.00000000     0.00000000     0.00000000
 
 Results for state 4.2 Doublet
 =============================
 !MCSCF STATE 4.2 Doublet Energy              -294.366590649973
 Nuclear energy                                  0.00000000
 Kinetic energy                                110.20198086
 One electron energy                          -507.69036463
 Two electron energy                           213.32377398
 Virial ratio                                    3.67115517
 
 !MCSCF STATE 4.2 Doublet Dipole moment          0.00000000     0.00000000     0.00000000
 Dipole moment /Debye                            0.00000000     0.00000000     0.00000000
 
 Results for state 5.2 Doublet
 =============================
 !MCSCF STATE 5.2 Doublet Energy              -294.366590649969
 Nuclear energy                                  0.00000000
 Kinetic energy                                110.20198086
 One electron energy                          -507.69036463
 Two electron energy                           213.32377398
 Virial ratio                                    3.67115517
 
 !MCSCF STATE 5.2 Doublet Dipole moment          0.00000000     0.00000000     0.00000000
 Dipole moment /Debye                            0.00000000     0.00000000     0.00000000
 
 Results for state 6.2 Doublet
 =============================
 !MCSCF STATE 6.2 Doublet Energy              -294.366590646502
 Nuclear energy                                  0.00000000
 Kinetic energy                                110.20198089
 One electron energy                          -507.69036486
 Two electron energy                           213.32377422
 Virial ratio                                    3.67115517
 
 !MCSCF STATE 6.2 Doublet Dipole moment          0.00000000     0.00000000     0.00000000
 Dipole moment /Debye                            0.00000000     0.00000000     0.00000000
 
 Results for state 7.2 Doublet
 =============================
 !MCSCF STATE 7.2 Doublet Energy              -294.366590646268
 Nuclear energy                                  0.00000000
 Kinetic energy                                110.20198089
 One electron energy                          -507.69036488
 Two electron energy                           213.32377423
 Virial ratio                                    3.67115517
 
 !MCSCF STATE 7.2 Doublet Dipole moment          0.00000000     0.00000000     0.00000000
 Dipole moment /Debye                            0.00000000     0.00000000     0.00000000
 
 Results for state 8.2 Doublet
 =============================
 !MCSCF STATE 8.2 Doublet Energy              -294.366590645186
 Nuclear energy                                  0.00000000
 Kinetic energy                                110.20198090
 One electron energy                          -507.69036495
 Two electron energy                           213.32377431
 Virial ratio                                    3.67115517
 
 !MCSCF STATE 8.2 Doublet Dipole moment          0.00000000     0.00000000     0.00000000
 Dipole moment /Debye                            0.00000000     0.00000000     0.00000000
 
 Results for state 9.2 Doublet
 =============================
 !MCSCF STATE 9.2 Doublet Energy              -294.360256294268
 Nuclear energy                                  0.00000000
 Kinetic energy                                110.25741058
 One electron energy                          -507.91350354
 Two electron energy                           213.55324724
 Virial ratio                                    3.66975485
 
 !MCSCF STATE 9.2 Doublet Dipole moment          0.00000000     0.00000000     0.00000000
 Dipole moment /Debye                            0.00000000     0.00000000     0.00000000
 
 Results for state 10.2 Doublet
 ==============================
 !MCSCF STATE 10.2 Doublet Energy             -294.360256289699
 Nuclear energy                                  0.00000000
 Kinetic energy                                110.25741061
 One electron energy                          -507.91350373
 Two electron energy                           213.55324744
 Virial ratio                                    3.66975485
 
 !MCSCF STATE 10.2 Doublet Dipole moment         0.00000000     0.00000000     0.00000000
 Dipole moment /Debye                            0.00000000     0.00000000     0.00000000
 
 Results for state 11.2 Doublet
 ==============================
 !MCSCF STATE 11.2 Doublet Energy             -294.360256289392
 Nuclear energy                                  0.00000000
 Kinetic energy                                110.25741061
 One electron energy                          -507.91350374
 Two electron energy                           213.55324745
 Virial ratio                                    3.66975485
 
 !MCSCF STATE 11.2 Doublet Dipole moment         0.00000000     0.00000000     0.00000000
 Dipole moment /Debye                            0.00000000     0.00000000     0.00000000
 
 Results for state 12.2 Doublet
 ==============================
 !MCSCF STATE 12.2 Doublet Energy             -294.359087361706
 Nuclear energy                                  0.00000000
 Kinetic energy                                110.19808222
 One electron energy                          -507.67895912
 Two electron energy                           213.31987175
 Virial ratio                                    3.67118158
 
 !MCSCF STATE 12.2 Doublet Dipole moment         0.00000000     0.00000000     0.00000000
 Dipole moment /Debye                            0.00000000     0.00000000     0.00000000
 
 Results for state 1.2 Quartet
 =============================
 !MCSCF STATE 1.2 Quartet Energy              -294.378047575700
 Nuclear energy                                  0.00000000
 Kinetic energy                                110.17454345
 One electron energy                          -507.60127112
 Two electron energy                           213.22322354
 Virial ratio                                    3.67192437
 
 !MCSCF STATE 1.2 Quartet Dipole moment          0.00000000     0.00000000     0.00000000
 Dipole moment /Debye                            0.00000000     0.00000000     0.00000000
 
 Results for state 2.2 Quartet
 =============================
 !MCSCF STATE 2.2 Quartet Energy              -294.378047574020
 Nuclear energy                                  0.00000000
 Kinetic energy                                110.17454348
 One electron energy                          -507.60127134
 Two electron energy                           213.22322376
 Virial ratio                                    3.67192437
 
 !MCSCF STATE 2.2 Quartet Dipole moment          0.00000000     0.00000000     0.00000000
 Dipole moment /Debye                            0.00000000     0.00000000     0.00000000
 
 Results for state 3.2 Quartet
 =============================
 !MCSCF STATE 3.2 Quartet Energy              -294.378047573905
 Nuclear energy                                  0.00000000
 Kinetic energy                                110.17454348
 One electron energy                          -507.60127135
 Two electron energy                           213.22322378
 Virial ratio                                    3.67192437
 
 !MCSCF STATE 3.2 Quartet Dipole moment          0.00000000     0.00000000     0.00000000
 Dipole moment /Debye                            0.00000000     0.00000000     0.00000000
 
 Results for state 4.2 Quartet
 =============================
 !MCSCF STATE 4.2 Quartet Energy              -294.370405730737
 Nuclear energy                                  0.00000000
 Kinetic energy                                110.18450042
 One electron energy                          -507.63464117
 Two electron energy                           213.26423544
 Virial ratio                                    3.67161356
 
 !MCSCF STATE 4.2 Quartet Dipole moment          0.00000000     0.00000000     0.00000000
 Dipole moment /Debye                            0.00000000     0.00000000     0.00000000
 
 Results for state 5.2 Quartet
 =============================
 !MCSCF STATE 5.2 Quartet Energy              -294.370405730734
 Nuclear energy                                  0.00000000
 Kinetic energy                                110.18450042
 One electron energy                          -507.63464117
 Two electron energy                           213.26423544
 Virial ratio                                    3.67161356
 
 !MCSCF STATE 5.2 Quartet Dipole moment          0.00000000     0.00000000     0.00000000
 Dipole moment /Debye                            0.00000000     0.00000000     0.00000000
 
 Results for state 6.2 Quartet
 =============================
 !MCSCF STATE 6.2 Quartet Energy              -294.370405728065
 Nuclear energy                                  0.00000000
 Kinetic energy                                110.18450046
 One electron energy                          -507.63464139
 Two electron energy                           213.26423566
 Virial ratio                                    3.67161356
 
 !MCSCF STATE 6.2 Quartet Dipole moment          0.00000000     0.00000000     0.00000000
 Dipole moment /Debye                            0.00000000     0.00000000     0.00000000
 
 Results for state 7.2 Quartet
 =============================
 !MCSCF STATE 7.2 Quartet Energy              -294.370405727884
 Nuclear energy                                  0.00000000
 Kinetic energy                                110.18450046
 One electron energy                          -507.63464141
 Two electron energy                           213.26423568
 Virial ratio                                    3.67161356
 
 !MCSCF STATE 7.2 Quartet Dipole moment          0.00000000     0.00000000     0.00000000
 Dipole moment /Debye                            0.00000000     0.00000000     0.00000000
 
 Results for state 8.2 Quartet
 =============================
 !MCSCF STATE 8.2 Quartet Energy              -294.370405727052
 Nuclear energy                                  0.00000000
 Kinetic energy                                110.18450047
 One electron energy                          -507.63464148
 Two electron energy                           213.26423575
 Virial ratio                                    3.67161356
 
 !MCSCF STATE 8.2 Quartet Dipole moment          0.00000000     0.00000000     0.00000000
 Dipole moment /Debye                            0.00000000     0.00000000     0.00000000
 
 Results for state 9.2 Quartet
 =============================
 !MCSCF STATE 9.2 Quartet Energy              -294.359511583644
 Nuclear energy                                  0.00000000
 Kinetic energy                                110.19386603
 One electron energy                          -507.66334602
 Two electron energy                           213.30383444
 Virial ratio                                    3.67128763
 
 !MCSCF STATE 9.2 Quartet Dipole moment          0.00000000     0.00000000     0.00000000
 Dipole moment /Debye                            0.00000000     0.00000000     0.00000000
 
 State-averaged charge density matrix saved on record 2140.2 (density set 1)
 
 No non-zero expectation values
 
 Expectation values for two-electron operators:
 
 ? Warning
 ? Transition properties are only calculated between states of the same symmetry
 ? The problem occurs in mu_properties_expec2

 !MCSCF expec      <1.2 Doublet|LXLX|1.2 Doublet>     0.999999999982
 !MCSCF expec      <2.2 Doublet|LXLX|2.2 Doublet>     1.000000000000
 !MCSCF expec      <3.2 Doublet|LXLX|3.2 Doublet>     0.000000000018
 !MCSCF expec      <4.2 Doublet|LXLX|4.2 Doublet>     3.996807849456
 !MCSCF expec      <5.2 Doublet|LXLX|5.2 Doublet>     3.999999996512
 !MCSCF expec      <6.2 Doublet|LXLX|6.2 Doublet>     1.000000000002
 !MCSCF expec      <7.2 Doublet|LXLX|7.2 Doublet>     1.000000000000
 !MCSCF expec      <8.2 Doublet|LXLX|8.2 Doublet>     0.003192154031
 !MCSCF expec      <9.2 Doublet|LXLX|9.2 Doublet>     0.000000000001
 !MCSCF expec    <10.2 Doublet|LXLX|10.2 Doublet>     1.000000000000
 !MCSCF expec    <11.2 Doublet|LXLX|11.2 Doublet>     0.999999999999
 !MCSCF expec    <12.2 Doublet|LXLX|12.2 Doublet>    -0.000000000000
 !MCSCF expec      <1.2 Quartet|LXLX|1.2 Quartet>    -0.000000000000
 !MCSCF expec      <2.2 Quartet|LXLX|2.2 Quartet>     1.000000000000
 !MCSCF expec      <3.2 Quartet|LXLX|3.2 Quartet>     1.000000000000
 !MCSCF expec      <4.2 Quartet|LXLX|4.2 Quartet>     3.996792986604
 !MCSCF expec      <5.2 Quartet|LXLX|5.2 Quartet>     4.000000000000
 !MCSCF expec      <6.2 Quartet|LXLX|6.2 Quartet>     1.000000000000
 !MCSCF expec      <7.2 Quartet|LXLX|7.2 Quartet>     1.000000000000
 !MCSCF expec      <8.2 Quartet|LXLX|8.2 Quartet>     0.003206668846
 !MCSCF expec      <9.2 Quartet|LXLX|9.2 Quartet>    -0.000000000000
 
 !MCSCF expec      <1.2 Doublet|LYLY|1.2 Doublet>     0.999999717801
 !MCSCF expec      <2.2 Doublet|LYLY|2.2 Doublet>     0.000000282199
 !MCSCF expec      <3.2 Doublet|LYLY|3.2 Doublet>     1.000000000000
 !MCSCF expec      <4.2 Doublet|LYLY|4.2 Doublet>     1.099416313036
 !MCSCF expec      <5.2 Doublet|LYLY|5.2 Doublet>     1.000000107968
 !MCSCF expec      <6.2 Doublet|LYLY|6.2 Doublet>     3.999999999402
 !MCSCF expec      <7.2 Doublet|LYLY|7.2 Doublet>     1.000000000587
 !MCSCF expec      <8.2 Doublet|LYLY|8.2 Doublet>     2.900583579004
 !MCSCF expec      <9.2 Doublet|LYLY|9.2 Doublet>     1.000000000000
 !MCSCF expec    <10.2 Doublet|LYLY|10.2 Doublet>     0.000000000039
 !MCSCF expec    <11.2 Doublet|LYLY|11.2 Doublet>     0.999999999963
 !MCSCF expec    <12.2 Doublet|LYLY|12.2 Doublet>     0.000000000001
 !MCSCF expec      <1.2 Quartet|LYLY|1.2 Quartet>     1.000000000000
 !MCSCF expec      <2.2 Quartet|LYLY|2.2 Quartet>     0.000000000314
 !MCSCF expec      <3.2 Quartet|LYLY|3.2 Quartet>     0.999999997612
 !MCSCF expec      <4.2 Quartet|LYLY|4.2 Quartet>     1.099651079266
 !MCSCF expec      <5.2 Quartet|LYLY|5.2 Quartet>     1.000000000000
 !MCSCF expec      <6.2 Quartet|LYLY|6.2 Quartet>     3.999999976264
 !MCSCF expec      <7.2 Quartet|LYLY|7.2 Quartet>     1.000000014400
 !MCSCF expec      <8.2 Quartet|LYLY|8.2 Quartet>     2.900354355863
 !MCSCF expec      <9.2 Quartet|LYLY|9.2 Quartet>     0.000000000000
 
 !MCSCF expec      <1.2 Doublet|LZLZ|1.2 Doublet>     0.000000282216
 !MCSCF expec      <2.2 Doublet|LZLZ|2.2 Doublet>     0.999999717801
 !MCSCF expec      <3.2 Doublet|LZLZ|3.2 Doublet>     0.999999999982
 !MCSCF expec      <4.2 Doublet|LZLZ|4.2 Doublet>     0.903775837508
 !MCSCF expec      <5.2 Doublet|LZLZ|5.2 Doublet>     0.999999895520
 !MCSCF expec      <6.2 Doublet|LZLZ|6.2 Doublet>     1.000000000594
 !MCSCF expec      <7.2 Doublet|LZLZ|7.2 Doublet>     3.999999999412
 !MCSCF expec      <8.2 Doublet|LZLZ|8.2 Doublet>     3.096224266964
 !MCSCF expec      <9.2 Doublet|LZLZ|9.2 Doublet>     0.999999999999
 !MCSCF expec    <10.2 Doublet|LZLZ|10.2 Doublet>     0.999999999963
 !MCSCF expec    <11.2 Doublet|LZLZ|11.2 Doublet>     0.000000000039
 !MCSCF expec    <12.2 Doublet|LZLZ|12.2 Doublet>     0.000000000001
 !MCSCF expec      <1.2 Quartet|LZLZ|1.2 Quartet>     1.000000000000
 !MCSCF expec      <2.2 Quartet|LZLZ|2.2 Quartet>     0.999999999686
 !MCSCF expec      <3.2 Quartet|LZLZ|3.2 Quartet>     0.000000002388
 !MCSCF expec      <4.2 Quartet|LZLZ|4.2 Quartet>     0.903555934130
 !MCSCF expec      <5.2 Quartet|LZLZ|5.2 Quartet>     1.000000000000
 !MCSCF expec      <6.2 Quartet|LZLZ|6.2 Quartet>     1.000000023735
 !MCSCF expec      <7.2 Quartet|LZLZ|7.2 Quartet>     3.999999985600
 !MCSCF expec      <8.2 Quartet|LZLZ|8.2 Quartet>     3.096438975291
 !MCSCF expec      <9.2 Quartet|LZLZ|9.2 Quartet>     0.000000000000
 
 !MCSCF expec      <1.2 Doublet|L**2|1.2 Doublet>     2.000000000000
 !MCSCF expec      <2.2 Doublet|L**2|2.2 Doublet>     2.000000000000
 !MCSCF expec      <3.2 Doublet|L**2|3.2 Doublet>     2.000000000000
 !MCSCF expec      <4.2 Doublet|L**2|4.2 Doublet>     6.000000000000
 !MCSCF expec      <5.2 Doublet|L**2|5.2 Doublet>     6.000000000000
 !MCSCF expec      <6.2 Doublet|L**2|6.2 Doublet>     5.999999999998
 !MCSCF expec      <7.2 Doublet|L**2|7.2 Doublet>     5.999999999998
 !MCSCF expec      <8.2 Doublet|L**2|8.2 Doublet>     5.999999999998
 !MCSCF expec      <9.2 Doublet|L**2|9.2 Doublet>     2.000000000000
 !MCSCF expec    <10.2 Doublet|L**2|10.2 Doublet>     2.000000000002
 !MCSCF expec    <11.2 Doublet|L**2|11.2 Doublet>     2.000000000002
 !MCSCF expec    <12.2 Doublet|L**2|12.2 Doublet>     0.000000000001
 !MCSCF expec      <1.2 Quartet|L**2|1.2 Quartet>     2.000000000000
 !MCSCF expec      <2.2 Quartet|L**2|2.2 Quartet>     2.000000000000
 !MCSCF expec      <3.2 Quartet|L**2|3.2 Quartet>     2.000000000000
 !MCSCF expec      <4.2 Quartet|L**2|4.2 Quartet>     6.000000000000
 !MCSCF expec      <5.2 Quartet|L**2|5.2 Quartet>     6.000000000000
 !MCSCF expec      <6.2 Quartet|L**2|6.2 Quartet>     6.000000000000
 !MCSCF expec      <7.2 Quartet|L**2|7.2 Quartet>     6.000000000000
 !MCSCF expec      <8.2 Quartet|L**2|8.2 Quartet>     5.999999999999
 !MCSCF expec      <9.2 Quartet|L**2|9.2 Quartet>     0.000000000001
 
 EXTRA SYMMETRY OF MOS IN SYMMETRY 1:   1 3 5 6 2 4 1 1 3 5   6 2 4 1 5 3 6 2 4 1   5 3 6 2 41310141511   812 7 9 1 5 3 6 2 4
                                       1310141511 812 7 9 5   3 6 2 4 11310141511   812 7 9 5 3 6 2 4 1  1310141511 812 7 922
                                       16182024192723261721  2528 3 5 6 2 4131014  1511 812 7 9 1 3 5 6   2 4101315141112 8 7
                                        9 1 3 5 6 2 4 1 3 5   6 4 2 1 1
 EXTRA SYMMETRY OF MOS IN SYMMETRY 2:   2 1 3 3 1 2 3 1 2 1   2 3 9 7 810 5 6 4 1   2 3 9 7 5 810 6 4 1   2 3 9 7 5 810 6 4 9
                                        7 5 810 6 420181517  12141621131911 2 1 3   9 7 5 810 6 4201815  1716141221131911 9 7
                                       10 8 5 6 4 2 1 3 9 7  10 8 5 6 42018151716  141221131911 2 1 3 9   710 8 5 6 420181517
                                       14161221131911 2 1 3   7 910 8 5 6 4 2 1 3   2 3 1 2 1 3
 
  NATURAL ORBITALS (STATE AVERAGED)
  =================================

  Orbital  Occupation    Energy    Cen Mu Typ  Coefficients
    1.1     2.00000    -7.78663     1  1  s    0.99965
    2.1     2.00000    -2.33875     1  1  d2-  1.00009
    3.1     2.00000    -2.33875     1  1  d2+  1.00009
    4.1     2.00000    -2.33875     1  1  d1-  1.00009
    5.1     2.00000    -2.33875     1  1  d0   1.00009
    6.1     2.00000    -2.33875     1  1  d1+  1.00009
    7.1     1.99963    -0.90828     1  1  s   -0.43842    1  3  s   -0.26684    1  5  s    0.62305    1  6  s    0.51576
    1.2     2.00000    -5.61134     1  1  py   1.00049
    2.2     2.00000    -5.61134     1  1  px   1.00049
    3.2     2.00000    -5.61134     1  1  pz   1.00049
    4.2     1.60028    -0.36419     1  1  pz  -0.40126    1  4  pz   0.25699    1  5  pz   0.48902    1  6  pz   0.37613
    5.2     1.60028    -0.36419     1  1  px  -0.40126    1  4  px   0.25699    1  5  px   0.48902    1  6  px   0.37613
    6.2     1.60028    -0.36419     1  1  py  -0.40126    1  4  py   0.25699    1  5  py   0.48902    1  6  py   0.37613
    7.2     0.06651     0.06470     1  5  pz  -0.25182    1 12  pz   0.76399
    8.2     0.06651     0.06470     1  5  px  -0.25182    1 12  px   0.76399
    9.2     0.06651     0.06470     1  5  py  -0.25182    1 12  py   0.76399
 
 Natural orbital dump (state averaged) at molpro section 2140.2 (Orbital set 2)
 
 Transform the CI vectors
 
 CI Coefficients of symmetry 2 (Doublet)
 =======================================

 State:              1               2               3               4               5               6               7
 2 2a2000       0.00000420     -0.00000048      0.99847139     -0.00000000      0.00000000      0.00000000      0.00000000
 2 22a000       0.00053041      0.99847125      0.00000048     -0.00000000     -0.00000000     -0.00000002      0.00000000
 2 a22000       0.99847125     -0.00053041     -0.00000420      0.00000000      0.00000000     -0.00000000     -0.00000002
 2 a2a0b0      -0.00000000      0.00000000      0.00000000      0.01868523      0.00001952     -0.00000113      0.00000041
 2 2aab00       0.00000000     -0.00000000     -0.00000000      0.58193323      0.00060494     -0.00000039      0.00000012
 2 a2ab00      -0.00001172     -0.02207167     -0.00000001      0.00000015     -0.00000068     -0.57281988      0.00000801
 2 a2a00b       0.02207167     -0.00001172     -0.00000009      0.00000007     -0.00000013      0.00000801      0.57281985
 2 aa2b00      -0.00000009      0.00000001     -0.02207168     -0.00059542      0.57281923     -0.00000068      0.00000013
 2 2aa00b       0.00000009     -0.00000001      0.02207168     -0.00059542      0.57281918     -0.00000068      0.00000013
 2 aa20b0       0.02207168     -0.00001172     -0.00000009     -0.00000007      0.00000013     -0.00000801     -0.57281917
 2 2aa0b0      -0.00001172     -0.02207168     -0.00000001     -0.00000015      0.00000068      0.57281915     -0.00000801
 2 aa200b      -0.00000000     -0.00000000      0.00000000     -0.56324795     -0.00058542     -0.00000075      0.00000029
 2 2ab0a0       0.00000687      0.01293904      0.00000001      0.00000008     -0.00000035     -0.29280267      0.00000409
 2 ba20a0      -0.01293904      0.00000687      0.00000005      0.00000004     -0.00000006      0.00000409      0.29280268
 2 2ba00a      -0.00000005      0.00000001     -0.01293904      0.00030435     -0.29280274      0.00000035     -0.00000006
 2 ab2a00       0.00000005     -0.00000001      0.01293904      0.00030435     -0.29280277      0.00000035     -0.00000006
 2 b2a00a      -0.01293903      0.00000687      0.00000005     -0.00000004      0.00000006     -0.00000409     -0.29280316
 2 a2ba00       0.00000687      0.01293903      0.00000001     -0.00000008      0.00000035      0.29280317     -0.00000409
 2 b2a0a0       0.00000000      0.00000000      0.00000000      0.00343860      0.00000353      0.00000057     -0.00000021
 2 a2b0a0      -0.00000000     -0.00000000     -0.00000000     -0.02212383     -0.00002305      0.00000056     -0.00000020
 2 2baa00      -0.00000000      0.00000000     -0.00000000     -0.29704441     -0.00030879      0.00000017     -0.00000005
 2 ab200a      -0.00000000      0.00000000     -0.00000000      0.28832740      0.00029968      0.00000036     -0.00000014
 2 2aba00      -0.00000000     -0.00000000      0.00000000     -0.28488883     -0.00029615      0.00000021     -0.00000007
 2 b2aa00       0.00000485      0.00913264      0.00000000     -0.00000007      0.00000033      0.28001671     -0.00000392
 2 a2b00a      -0.00913264      0.00000485      0.00000004     -0.00000004      0.00000006     -0.00000392     -0.28001670
 2 ab20a0      -0.00913264      0.00000485      0.00000004      0.00000004     -0.00000006      0.00000392      0.28001649
 2 2ba0a0       0.00000485      0.00913264      0.00000000      0.00000007     -0.00000033     -0.28001648      0.00000392
 2 ba2a00       0.00000004     -0.00000000      0.00913264      0.00029106     -0.28001645      0.00000033     -0.00000006
 2 2ab00a      -0.00000004      0.00000000     -0.00913264      0.00029106     -0.28001644      0.00000033     -0.00000006
 2 ba200a      -0.00000000     -0.00000000      0.00000000      0.27492055      0.00028574      0.00000039     -0.00000015
 2 022a00      -0.00958300      0.00000509      0.00000004     -0.00000000     -0.00000000     -0.00000000     -0.00000011
 2 22000a      -0.00000509     -0.00958300     -0.00000000      0.00000000     -0.00000000     -0.00000012      0.00000000
 2 2020a0      -0.00000004      0.00000000     -0.00958300     -0.00000000      0.00000001     -0.00000000      0.00000000
 2 02a200      -0.00000756     -0.01422440     -0.00000001      0.00000002     -0.00000007     -0.06218792      0.00000087
 2 a20002      -0.01422440      0.00000756      0.00000006     -0.00000001      0.00000001     -0.00000087     -0.06218792
 2 a02020      -0.01422441      0.00000756      0.00000006      0.00000001     -0.00000001      0.00000087      0.06218787
 2 20a020      -0.00000756     -0.01422441     -0.00000001     -0.00000002      0.00000007      0.06218786     -0.00000087
 2 0a2200      -0.00000006      0.00000001     -0.01422440     -0.00006464      0.06218786     -0.00000007      0.00000001
 2 2a0002      -0.00000006      0.00000001     -0.01422440      0.00006464     -0.06218785      0.00000007     -0.00000001
 
 Energy:     -294.65665076   -294.65665076   -294.65665076   -294.36659065   -294.36659065   -294.36659065   -294.36659065

 State:              8               9              10              11              12
 2 2a2000      -0.00000000     -0.04119900     -0.00000001      0.00000003     -0.00000000
 2 22a000      -0.00000000     -0.00000001      0.04119900      0.00000025     -0.00000000
 2 a22000       0.00000000     -0.00000003      0.00000025     -0.04119900     -0.00000000
 2 a2a0b0       0.66117079      0.00000000     -0.00000000      0.00000000     -0.46805534
 2 2aab00       0.31440383     -0.00000000      0.00000000     -0.00000000      0.46805483
 2 a2ab00      -0.00000099     -0.00000014      0.52983106      0.00000323     -0.00000000
 2 a2a00b      -0.00000036      0.00000044     -0.00000323      0.52983108     -0.00000000
 2 aa2b00      -0.00000008     -0.52983143     -0.00000014      0.00000044     -0.00000000
 2 2aa00b      -0.00000008      0.52983148      0.00000014     -0.00000044      0.00000000
 2 aa20b0       0.00000036      0.00000044     -0.00000323      0.52983179      0.00000000
 2 2aa0b0       0.00000099     -0.00000014      0.52983182      0.00000323     -0.00000000
 2 aa200b       0.34676765     -0.00000000      0.00000000      0.00000000      0.46805487
 2 2ab0a0      -0.00000050      0.00000011     -0.40722973     -0.00000248      0.00000000
 2 ba20a0      -0.00000018     -0.00000034      0.00000248     -0.40722972     -0.00000000
 2 2ba00a       0.00000004     -0.40722952     -0.00000011      0.00000034     -0.00000000
 2 ab2a00       0.00000004      0.40722950      0.00000011     -0.00000034      0.00000000
 2 b2a00a       0.00000018     -0.00000034      0.00000248     -0.40722935      0.00000000
 2 a2ba00       0.00000050      0.00000011     -0.40722933     -0.00000248      0.00000000
 2 b2a0a0      -0.33094660     -0.00000000      0.00000000     -0.00000000      0.23402767
 2 a2b0a0      -0.33022419     -0.00000000      0.00000000     -0.00000000      0.23402767
 2 2baa00      -0.14595245      0.00000000     -0.00000000      0.00000000     -0.23402742
 2 ab200a      -0.16249557      0.00000000     -0.00000000      0.00000000     -0.23402744
 2 2aba00      -0.16845138      0.00000000     -0.00000000      0.00000000     -0.23402741
 2 b2aa00       0.00000048      0.00000003     -0.12260172     -0.00000075      0.00000000
 2 a2b00a       0.00000017     -0.00000010      0.00000075     -0.12260173     -0.00000000
 2 ab20a0      -0.00000017     -0.00000010      0.00000075     -0.12260207     -0.00000000
 2 2ba0a0      -0.00000048      0.00000003     -0.12260209     -0.00000075      0.00000000
 2 ba2a00       0.00000004      0.12260193      0.00000003     -0.00000010      0.00000000
 2 2ab00a       0.00000004     -0.12260195     -0.00000003      0.00000010     -0.00000000
 2 ba200a      -0.18427208      0.00000000     -0.00000000     -0.00000000     -0.23402742
 2 022a00       0.00000000     -0.00000020      0.00000144     -0.23596140      0.00000000
 2 22000a      -0.00000000     -0.00000006      0.23596139      0.00000144     -0.00000000
 2 2020a0       0.00000000     -0.23596136     -0.00000006      0.00000020     -0.00000000
 2 02a200      -0.00000011     -0.00000001      0.04781122      0.00000029     -0.00000000
 2 a20002       0.00000004     -0.00000004      0.00000029     -0.04781123      0.00000000
 2 a02020      -0.00000004     -0.00000004      0.00000029     -0.04781131     -0.00000000
 2 20a020       0.00000011     -0.00000001      0.04781131      0.00000029     -0.00000000
 2 0a2200      -0.00000001     -0.04781127     -0.00000001      0.00000004     -0.00000000
 2 2a0002       0.00000001     -0.04781127     -0.00000001      0.00000004     -0.00000000
 
 Energy:     -294.36659065   -294.36025629   -294.36025629   -294.36025629   -294.35908736
 
 
 CI Coefficients of symmetry 2 (Quartet)
 =======================================

 State:              1               2               3               4               5               6               7
 2 a2a0a0      -0.00000000      0.00000000      0.00000000      0.02298365      0.00000004     -0.00000028     -0.00000025
 2 2aaa00       0.00000000     -0.00000000     -0.00000000      0.71416822      0.00000122     -0.00000009     -0.00000011
 2 a2aa00       0.00000000      0.70351747      0.00001247     -0.00000004     -0.00000000      0.70295801     -0.00006253
 2 a2a00a       0.00000000     -0.00001247      0.70351746      0.00000001      0.00000000     -0.00006253     -0.70295802
 2 aa2a00       0.70351727      0.00000000     -0.00000000     -0.00000120      0.70295821     -0.00000000      0.00000000
 2 2aa00a      -0.70351724      0.00000000     -0.00000000     -0.00000120      0.70295824     -0.00000000      0.00000000
 2 aa20a0      -0.00000000     -0.00001247      0.70351705     -0.00000001      0.00000000      0.00006253      0.70295843
 2 2aa0a0      -0.00000000      0.70351704      0.00001247      0.00000004      0.00000000     -0.70295844      0.00006253
 2 aa200a       0.00000000     -0.00000000     -0.00000000     -0.69118452     -0.00000118     -0.00000019     -0.00000014
 2 02aaa0      -0.00000000      0.00000000      0.00000000     -0.00056778     -0.00000000     -0.00000002     -0.00000002
 2 a200aa       0.00000000      0.00000000      0.00000000      0.00365380      0.00000001     -0.00000002     -0.00000002
 
 Energy:     -294.37804758   -294.37804757   -294.37804757   -294.37040573   -294.37040573   -294.37040573   -294.37040573

 State:              8               9
 2 a2a0a0       0.81138061     -0.57337585
 2 2aaa00       0.38578613      0.57337548
 2 a2aa00       0.00000025      0.00000000
 2 a2a00a      -0.00000022      0.00000000
 2 aa2a00       0.00000000      0.00000000
 2 2aa00a      -0.00000000      0.00000000
 2 aa20a0       0.00000022      0.00000000
 2 2aa0a0      -0.00000025      0.00000000
 2 aa200a       0.42559500      0.57337550
 2 02aaa0       0.05453202     -0.04105561
 2 a200aa       0.05441244     -0.04105561
 
 Energy:     -294.37040573   -294.35951158
 


 **********************************************************************************************************************************
 DATASETS  * FILE   NREC   LENGTH (MB)   RECORD NAMES
              1      21       94.20       500      610      700      900      950      970     1000      129      960     1100   
                                          VAR    BASINP    GEOM    SYMINP    ZMAT    AOBASIS   BASIS     P2S    ABASIS      S 
                                         1400     1410     1420     1200     1210     1080     1700     1600     1650     1380   
                                           T        V       ECP      H0       H01     AOSYM    OPER      SMH    MOLCAS    JKOP   
                                         1700(1)
                                         OPER   

              2       5        2.66       700     1000      520     2100     2140   
                                         GEOM     BASIS   MCVARS     RHF     MCSCF   

 PROGRAMS   *        TOTAL     MULTI   RHF-SCF       INT
 CPU TIMES  *        27.69     11.96      2.45     12.94
 REAL TIME  *        33.71 SEC
 DISK USED  *        96.98 MB (local),        2.31 GB (total)
 SF USED    *       167.46 MB
 GA USED    *         0.00 MB       (max)       0.00 MB       (current)
 **********************************************************************************************************************************

 Energies and &lt;L**2&gt; values

         ENERGY     LL
    -294.6566508   2.0
    -294.6566508   2.0
    -294.6566508   2.0
    -294.3665906   6.0
    -294.3665906   6.0
    -294.3665906   6.0
    -294.3665906   6.0
    -294.3665906   6.0
    -294.3602563   2.0
    -294.3602563   2.0
    -294.3602563   2.0
    -294.3590874   0.0
    -294.3780476   2.0
    -294.3780476   2.0
    -294.3780476   2.0
    -294.3704057   6.0
    -294.3704057   6.0
    -294.3704057   6.0
    -294.3704057   6.0
    -294.3704057   6.0
    -294.3595116   0.0
                                                  


 PROGRAM * CI (Multireference internally contracted CI)     Authors: H.-J. Werner, P.J. Knowles, 1987


 Convergence thresholds:  THRVAR = 1.00D-08  THRDEN = 1.00D-06

 Number of optimized states: 12  Roots:   1   2   3   4   5   6   7   8   9  10  11  12
 Number of reference states: 12  Roots:   1   2   3   4   5   6   7   8   9  10  11  12

 Reference symmetry:                   2   Doublet 
 Number of electrons:                 25
 Maximum number of shells:             6
 Maximum number of spin couplings:   132

 Reference space:      252 conf      420 CSFs
 N elec internal:    15576 conf    58240 CSFs
 N-1 el internal:    19959 conf   132244 CSFs
 N-2 el internal:    14819 conf   136456 CSFs

 Number of electrons in valence space:                     25
 Maximum number of open shell orbitals in reference space:  5
 Maximum number of open shell orbitals in internal spaces: 11


 Number of closed-shell orbitals:   9 (   6   3 )
 Number of active  orbitals:        7 (   1   6 )
 Number of external orbitals:     265 ( 128 137 )

 Molecular orbitals read from record     2140.2  Type=MCSCF/NATURAL (state averaged)

 Valence orbitals related to previous ones by unitary transformation. Operators transformed.


 Number of p-space configurations:  30

 Reference wavefunction optimized for reference space (refopt=1)

 State     Reference Energy 
     1      -294.65665076
     2      -294.65665076
     3      -294.65665076
     4      -294.36659065
     5      -294.36659065
     6      -294.36659065
     7      -294.36659065
     8      -294.36659065
     9      -294.36025629
    10      -294.36025629
    11      -294.36025629
    12      -294.35908736

 ?WARNING: SMALL EIGENVALUE OF PAIR OVERLAP MATRIX:  0.3764D-06

 ?WARNING: SMALL EIGENVALUE OF PAIR OVERLAP MATRIX:  0.1430D-06

 Number of blocks in overlap matrix:  1120   Smallest eigenvalue:  0.14D-06
 Number of N-2 electron functions:    2969
 Number of N-1 electron functions:  132244

 Number of internal configurations:                29358
 Number of singly external configurations:      17524724
 Number of doubly external configurations:      52135980
 Total number of contracted configurations:     69690062
 Total number of uncontracted configurations: 2410902056

 Diagonal Coupling coefficients finished.               Storage:  34419254 words, CPU-Time:    173.86 seconds.
 Energy denominators for pairs finished in 1 passes.    Storage:   4562966 words, CPU-time:      6.84 seconds.

  ITER. STATE  ROOT     SQ.NORM     CORR.ENERGY   TOTAL ENERGY   ENERGY CHANGE       DEN1      VAR(S)    VAR(P)      TIME
    1     1     1     1.00000000     0.00000000  -294.65665076     0.00000000    -1.18177029  0.27D-01  0.12D+00   200.67
    1     2     2     1.00000000     0.00000000  -294.65665076     0.00000000    -1.18193458  0.27D-01  0.12D+00   200.67
    1     3     3     1.00000000     0.00000000  -294.65665076    -0.00000000    -1.18126908  0.27D-01  0.12D+00   200.67
    1     4     4     1.00000000     0.00000000  -294.36659065     0.00000000    -1.17107486  0.46D-01  0.12D+00   200.67
    1     5     5     1.00000000     0.00000000  -294.36659065     0.00000000    -1.17163352  0.46D-01  0.12D+00   200.67
    1     6     6     1.00000000     0.00000000  -294.36659065     0.00000000    -1.17173812  0.46D-01  0.12D+00   200.67
    1     7     7     1.00000000     0.00000000  -294.36659065     0.00000000    -1.17178262  0.46D-01  0.12D+00   200.67
    1     8     8     1.00000000     0.00000000  -294.36659065     0.00000000    -1.17411276  0.46D-01  0.12D+00   200.67
    1     9     9     1.00000000     0.00000000  -294.36025629     0.00000000    -1.18063041  0.52D-01  0.12D+00   200.67
    1    10    10     1.00000000     0.00000000  -294.36025629     0.00000000    -1.18063613  0.52D-01  0.12D+00   200.67
    1    11    11     1.00000000     0.00000000  -294.36025629    -0.00000000    -1.18064612  0.53D-01  0.12D+00   200.67
    1    12    12     1.00000000     0.00000000  -294.35908736     0.00000000    -1.17661138  0.49D-01  0.12D+00   200.67
    2     1     1     1.10155109    -0.98759804  -295.64424880    -0.98759804    -0.02564493  0.32D-02  0.17D-02  5888.39
    2     2     2     1.10155682    -0.98758826  -295.64423902    -0.98758826    -0.02567053  0.32D-02  0.17D-02  5888.39
    2     3     3     1.10146531    -0.98755214  -295.64420290    -0.98755214    -0.02566504  0.32D-02  0.17D-02  5888.39
    2     4     4     1.11077715    -0.97155697  -295.33814762    -0.97155697    -0.02608748  0.39D-02  0.17D-02  5888.39
    2     5     5     1.11093762    -0.97152060  -295.33811125    -0.97152060    -0.02614244  0.38D-02  0.18D-02  5888.39
    2     6     6     1.11092564    -0.97146339  -295.33805404    -0.97146339    -0.02618668  0.38D-02  0.18D-02  5888.39
    2     7     7     1.11097909    -0.97145618  -295.33804683    -0.97145618    -0.02621087  0.38D-02  0.18D-02  5888.39
    2     8     8     1.11129683    -0.97105570  -295.33764634    -0.97105570    -0.02667051  0.38D-02  0.19D-02  5888.39
    2     9     9     1.11328711    -0.97032655  -295.33058285    -0.97032655    -0.02714144  0.41D-02  0.19D-02  5888.39
    2    10    10     1.11499742    -0.96986188  -295.33011817    -0.96986188    -0.02976114  0.56D-02  0.19D-02  5888.39
    2    11    11     1.11501266    -0.96984525  -295.33010154    -0.96984525    -0.02976877  0.56D-02  0.19D-02  5888.39
    2    12    12     1.11502349    -0.97099011  -295.33007748    -0.97099011    -0.02979630  0.56D-02  0.19D-02  5888.39
    3     1     1     1.09470658    -1.01250262  -295.66915338    -0.02490457    -0.00062864  0.52D-04  0.79D-04 11581.57
    3     2     2     1.09471359    -1.01250218  -295.66915294    -0.02491392    -0.00062988  0.52D-04  0.79D-04 11581.57
    3     3     3     1.09466635    -1.01248629  -295.66913704    -0.02493414    -0.00063972  0.52D-04  0.80D-04 11581.57
    3     4     4     1.09644727    -0.99702463  -295.36361528    -0.02546765    -0.00052084  0.59D-04  0.65D-04 11581.57
    3     5     5     1.09644350    -0.99702107  -295.36361172    -0.02550047    -0.00052346  0.60D-04  0.65D-04 11581.57
    3     6     6     1.09647686    -0.99701957  -295.36361021    -0.02555617    -0.00052529  0.60D-04  0.65D-04 11581.57
    3     7     7     1.09642544    -0.99701543  -295.36360607    -0.02555924    -0.00052627  0.59D-04  0.66D-04 11581.57
    3     8     8     1.09641637    -0.99701503  -295.36360568    -0.02595934    -0.00052669  0.60D-04  0.65D-04 11581.57
    3     9     9     1.09713018    -0.99871871  -295.35897500    -0.02839215    -0.00061014  0.72D-04  0.73D-04 11581.57
    3    10    10     1.09712428    -0.99871623  -295.35897252    -0.02885435    -0.00061097  0.72D-04  0.73D-04 11581.57
    3    11    11     1.09712339    -0.99871591  -295.35897220    -0.02887066    -0.00061170  0.72D-04  0.74D-04 11581.57
    3    12    12     1.09721653    -0.99811654  -295.35720390    -0.02712642    -0.00056133  0.69D-04  0.69D-04 11581.57
    4     1     1     1.09600129    -1.01324096  -295.66989172    -0.00073835    -0.00005429  0.28D-05  0.72D-05 17300.38
    4     2     2     1.09600054    -1.01324088  -295.66989164    -0.00073870    -0.00005440  0.28D-05  0.72D-05 17300.38
    4     3     3     1.09598941    -1.01323896  -295.66988972    -0.00075267    -0.00005585  0.29D-05  0.74D-05 17300.38
    4     4     4     1.09635313    -0.99764493  -295.36423558    -0.00062031    -0.00004356  0.25D-05  0.70D-05 17300.38
    4     5     5     1.09635443    -0.99764484  -295.36423549    -0.00062378    -0.00004351  0.24D-05  0.70D-05 17300.38
    4     6     6     1.09635281    -0.99764432  -295.36423496    -0.00062475    -0.00004384  0.24D-05  0.70D-05 17300.38
    4     7     7     1.09634604    -0.99764359  -295.36423424    -0.00062816    -0.00004449  0.25D-05  0.71D-05 17300.38
    4     8     8     1.09634529    -0.99764346  -295.36423410    -0.00062843    -0.00004444  0.25D-05  0.71D-05 17300.38
    4     9     9     1.09681014    -0.99942011  -295.35967641    -0.00070141    -0.00004553  0.31D-05  0.71D-05 17300.38
    4    10    10     1.09680770    -0.99941963  -295.35967591    -0.00070340    -0.00004584  0.31D-05  0.72D-05 17300.38
    4    11    11     1.09680694    -0.99941940  -295.35967569    -0.00070349    -0.00004587  0.31D-05  0.72D-05 17300.38
    4    12    12     1.09697952    -0.99879424  -295.35788161    -0.00067771    -0.00004608  0.25D-05  0.72D-05 17300.38
    5     1     1     1.09664526    -1.01330714  -295.66995790    -0.00006618    -0.00000365  0.14D-06  0.48D-06 23014.81
    5     2     2     1.09664594    -1.01330712  -295.66995788    -0.00006625    -0.00000366  0.14D-06  0.48D-06 23014.81
    5     3     3     1.09664511    -1.01330700  -295.66995776    -0.00006804    -0.00000375  0.14D-06  0.49D-06 23014.81
    5     4     4     1.09673181    -0.99770261  -295.36429326    -0.00005768    -0.00000420  0.20D-06  0.64D-06 23014.81
    5     5     5     1.09673453    -0.99770255  -295.36429320    -0.00005771    -0.00000426  0.19D-06  0.65D-06 23014.81
    5     6     6     1.09673398    -0.99770249  -295.36429314    -0.00005818    -0.00000431  0.20D-06  0.66D-06 23014.81
    5     7     7     1.09673388    -0.99770245  -295.36429309    -0.00005885    -0.00000435  0.20D-06  0.66D-06 23014.81
    5     8     8     1.09673354    -0.99770243  -295.36429308    -0.00005897    -0.00000431  0.20D-06  0.65D-06 23014.81
    5     9     9     1.09712368    -0.99948003  -295.35973632    -0.00005992    -0.00000456  0.21D-06  0.71D-06 23014.81
    5    10    10     1.09712325    -0.99947998  -295.35973627    -0.00006035    -0.00000461  0.22D-06  0.72D-06 23014.81
    5    11    11     1.09712361    -0.99947991  -295.35973620    -0.00006051    -0.00000463  0.22D-06  0.72D-06 23014.81
    5    12    12     1.09738005    -0.99885500  -295.35794236    -0.00006076    -0.00000416  0.20D-06  0.62D-06 23014.81
    6     1     1     1.09668258    -1.01331154  -295.66996230    -0.00000440    -0.00000026  0.14D-07  0.34D-07 28718.65
    6     2     2     1.09668264    -1.01331154  -295.66996230    -0.00000442    -0.00000027  0.14D-07  0.34D-07 28718.65
    6     3     3     1.09668196    -1.01331153  -295.66996229    -0.00000453    -0.00000027  0.14D-07  0.35D-07 28718.65
    6     4     4     1.09678036    -0.99770797  -295.36429862    -0.00000536    -0.00000042  0.17D-07  0.66D-07 28718.65
    6     5     5     1.09678030    -0.99770797  -295.36429862    -0.00000542    -0.00000043  0.17D-07  0.67D-07 28718.65
    6     6     6     1.09678005    -0.99770797  -295.36429862    -0.00000548    -0.00000043  0.17D-07  0.67D-07 28718.65
    6     7     7     1.09677992    -0.99770793  -295.36429858    -0.00000548    -0.00000040  0.16D-07  0.64D-07 28718.65
    6     8     8     1.09677947    -0.99770790  -295.36429855    -0.00000547    -0.00000042  0.18D-07  0.66D-07 28718.65
    6     9     9     1.09717113    -0.99948588  -295.35974217    -0.00000585    -0.00000047  0.23D-07  0.74D-07 28718.65
    6    10    10     1.09717122    -0.99948588  -295.35974217    -0.00000590    -0.00000047  0.22D-07  0.73D-07 28718.65
    6    11    11     1.09717114    -0.99948585  -295.35974214    -0.00000595    -0.00000048  0.23D-07  0.75D-07 28718.65
    6    12    12     1.09742624    -0.99886019  -295.35794756    -0.00000519    -0.00000036  0.13D-07  0.58D-07 28718.65
    7     1     1     1.09669493    -1.01331186  -295.66996262    -0.00000032    -0.00000003  0.27D-08  0.33D-08 34444.80
    7     2     2     1.09669489    -1.01331186  -295.66996262    -0.00000032    -0.00000003  0.27D-08  0.33D-08 34444.80
    7     3     3     1.09669500    -1.01331186  -295.66996262    -0.00000032    -0.00000003  0.27D-08  0.32D-08 34444.80
    7     4     4     1.09679580    -0.99770852  -295.36429917    -0.00000055    -0.00000006  0.44D-08  0.79D-08 34444.80
    7     5     5     1.09679585    -0.99770852  -295.36429917    -0.00000055    -0.00000006  0.44D-08  0.79D-08 34444.80
    7     6     6     1.09679586    -0.99770852  -295.36429916    -0.00000054    -0.00000005  0.43D-08  0.78D-08 34444.80
    7     7     7     1.09679589    -0.99770845  -295.36429909    -0.00000052    -0.00000005  0.40D-08  0.74D-08 34444.80
    7     8     8     1.09679567    -0.99770844  -295.36429909    -0.00000054    -0.00000005  0.43D-08  0.76D-08 34444.80
    7     9     9     1.09718863    -0.99948649  -295.35974278    -0.00000060    -0.00000006  0.54D-08  0.90D-08 34444.80
    7    10    10     1.09718862    -0.99948647  -295.35974276    -0.00000060    -0.00000006  0.53D-08  0.88D-08 34444.80
    7    11    11     1.09718858    -0.99948646  -295.35974275    -0.00000061    -0.00000006  0.54D-08  0.91D-08 34444.80
    7    12    12     1.09744309    -0.99886066  -295.35794802    -0.00000046    -0.00000004  0.32D-08  0.64D-08 34444.80
    8     1     1     1.09669483    -1.01331186  -295.66996262    -0.00000000    -0.00000003  0.27D-08  0.32D-08 38382.81
    8     2     2     1.09669483    -1.01331186  -295.66996262    -0.00000000    -0.00000003  0.27D-08  0.32D-08 38382.81
    8     3     3     1.09669493    -1.01331186  -295.66996262    -0.00000000    -0.00000003  0.26D-08  0.32D-08 38382.81
    8     4     4     1.09679494    -0.99770859  -295.36429924    -0.00000007    -0.00000001  0.35D-09  0.12D-08 38382.81
    8     5     5     1.09679494    -0.99770859  -295.36429924    -0.00000007    -0.00000001  0.35D-09  0.12D-08 38382.81
    8     6     6     1.09679498    -0.99770858  -295.36429923    -0.00000007    -0.00000001  0.34D-09  0.11D-08 38382.81
    8     7     7     1.09679492    -0.99770851  -295.36429916    -0.00000007    -0.00000001  0.34D-09  0.11D-08 38382.81
    8     8     8     1.09679494    -0.99770851  -295.36429915    -0.00000007    -0.00000001  0.33D-09  0.11D-08 38382.81
    8     9     9     1.09718779    -0.99948657  -295.35974286    -0.00000008    -0.00000000  0.26D-09  0.73D-09 38382.81
    8    10    10     1.09718780    -0.99948656  -295.35974285    -0.00000008    -0.00000000  0.26D-09  0.72D-09 38382.81
    8    11    11     1.09718773    -0.99948655  -295.35974284    -0.00000009    -0.00000000  0.26D-09  0.74D-09 38382.81
    8    12    12     1.09744310    -0.99886066  -295.35794802    -0.00000000    -0.00000004  0.32D-08  0.64D-08 38382.81


 =====================================
 Analysis of CPU times by interactions
 =====================================

       I      S      P

 I   0.1%
 S   0.1%  12.6%
 P   0.2%  34.9%  41.0%

 Initialization:   0.5%
 Other:           10.7%

 Total CPU:    38382.8 seconds
 =====================================



 Wavefunction saved on  5203.2

 Reference coefficients greater than 0.0500000
 =============================================
 222222222222/000          -0.0019537  -0.0657800   0.9518954   0.0000000  -0.0000000   0.0000001  -0.0000000   0.0000000
                           -0.0004187   0.0178011  -0.0005324  -0.0000000
 22222222222//\00           0.0000000  -0.0000000  -0.0000000  -0.0032645   0.0119524  -0.0038231  -0.1681334   0.7545824
                            0.0000001  -0.0000000   0.0000000   0.5469928
 2222222222//200\          -0.0000000   0.0000000  -0.0000000  -0.0016857   0.0021790   0.0012931   0.7376222  -0.2318134
                            0.0000004   0.0000001   0.0000002   0.5469912
 2222222222/22000           0.6832137  -0.6645844  -0.0445234   0.0000001  -0.0000001  -0.0000000   0.0000000   0.0000000
                           -0.0178083  -0.0004137   0.0001705   0.0000000
 22222222222/2000           0.6660713   0.6814957   0.0484613   0.0000000   0.0000000  -0.0000000  -0.0000000   0.0000000
                            0.0001580   0.0005362   0.0178051  -0.0000000
 2222222222/2/\00           0.0000196   0.0006603  -0.0095547   0.0685353   0.0052499   0.6660616   0.0001086   0.0036121
                           -0.0145728   0.6195932  -0.0185302   0.0000000
 22222222222//0\0           0.0000196   0.0006603  -0.0095547  -0.0685352  -0.0052499  -0.6660583  -0.0001087  -0.0036121
                           -0.0145728   0.6195968  -0.0185302  -0.0000001
 2222222222//20\0           0.0068578  -0.0066708  -0.0004469   0.2639266  -0.6148353  -0.0223780   0.0062824   0.0121672
                            0.6198521   0.0144014  -0.0059352  -0.0000003
 2222222222/2/00\           0.0068578  -0.0066708  -0.0004469  -0.2639299   0.6148429   0.0223783  -0.0062828  -0.0121673
                            0.6198431   0.0144011  -0.0059355  -0.0000001
 22222222222//00\           0.0066857   0.0068406   0.0004864   0.6115534   0.2648485  -0.0650043   0.0001491  -0.0018457
                           -0.0055007  -0.0186637  -0.6197398   0.0000002
 2222222222//2\00          -0.0066857  -0.0068405  -0.0004864   0.6115564   0.2648502  -0.0650046   0.0001490  -0.0018456
                            0.0055007   0.0186639   0.6197361  -0.0000001
 2222222222/2/0\0           0.0000000   0.0000000   0.0000000  -0.0049501   0.0141316  -0.0025299   0.5694845   0.5227677
                           -0.0000001   0.0000000  -0.0000001  -0.5469947
 2222222222022/00          -0.0071062   0.0069124   0.0004631   0.0000006  -0.0000013  -0.0000001   0.0000001   0.0000000
                           -0.2236401  -0.0051960   0.0021415   0.0000001
 22222222222020/0          -0.0069279  -0.0070884  -0.0005041   0.0000005   0.0000003  -0.0000000  -0.0000000   0.0000000
                            0.0019846   0.0067339   0.2236006  -0.0000000
 222222222222000/           0.0000203   0.0006842  -0.0099007   0.0000000  -0.0000000   0.0000005  -0.0000000   0.0000000
                           -0.0052578   0.2235489  -0.0066857  -0.0000000
 2222222222/\20/0           0.0017996  -0.0017505  -0.0001173   0.0034151  -0.0079557  -0.0002895   0.0000813   0.0001575
                            0.1912152   0.0044426  -0.0018310  -0.0000001
 2222222222/2\00/           0.0017995  -0.0017504  -0.0001173  -0.0034161   0.0079580   0.0002897  -0.0000814  -0.0001575
                            0.1912151   0.0044426  -0.0018310  -0.0000001
 2222222222/\2/00           0.0017544   0.0017950   0.0001276  -0.0079149  -0.0034278   0.0008413  -0.0000019   0.0000239
                           -0.0016969  -0.0057576  -0.1911813   0.0000000
 22222222222/\00/           0.0017543   0.0017950   0.0001276   0.0079139   0.0034272  -0.0008412   0.0000019  -0.0000239
                           -0.0016969  -0.0057576  -0.1911813   0.0000000
 2222222222/2\/00          -0.0000051  -0.0001733   0.0025072  -0.0008870  -0.0000679  -0.0086203  -0.0000014  -0.0000468
                            0.0044955  -0.1911373   0.0057163   0.0000000
 22222222222/\0/0          -0.0000051  -0.0001733   0.0025072   0.0008869   0.0000679   0.0086192   0.0000014   0.0000467
                            0.0044955  -0.1911372   0.0057163   0.0000000
 2222222222///0\\           0.0081768  -0.0079539  -0.0005329  -0.0000002   0.0000005   0.0000000  -0.0000000  -0.0000000
                            0.0714761   0.0016606  -0.0006844  -0.0000000
 2222222222///\0\          -0.0079717  -0.0081563  -0.0005800   0.0000002   0.0000001  -0.0000000  -0.0000000   0.0000000
                            0.0006343   0.0021522   0.0714634  -0.0000000
 2222222222///\\0          -0.0000234  -0.0007873   0.0113925  -0.0000000   0.0000000  -0.0000002   0.0000000  -0.0000000
                            0.0016804  -0.0714470   0.0021368   0.0000000
 222222222202/200           0.0000244   0.0008226  -0.0119035   0.0062392   0.0004779   0.0606360   0.0000099   0.0003288
                           -0.0011125   0.0472991  -0.0014146   0.0000000
 222222222220/020           0.0000244   0.0008226  -0.0119035  -0.0062392  -0.0004779  -0.0606357  -0.0000099  -0.0003288
                           -0.0011125   0.0472994  -0.0014146  -0.0000000
 2222222222/20002          -0.0085436   0.0083106   0.0005568   0.0240272  -0.0559730  -0.0020372   0.0005720   0.0011077
                           -0.0473181  -0.0010994   0.0004531   0.0000000
 2222222222/02020          -0.0085436   0.0083106   0.0005568  -0.0240270   0.0559726   0.0020372  -0.0005719  -0.0011077
                           -0.0473190  -0.0010994   0.0004531   0.0000000
 22222222220/2200          -0.0083292  -0.0085221  -0.0006060   0.0556741   0.0241111  -0.0059178   0.0000136  -0.0001680
                            0.0004199   0.0014248   0.0473100  -0.0000000
 22222222222/0002          -0.0083292  -0.0085221  -0.0006060  -0.0556738  -0.0241109   0.0059178  -0.0000136   0.0001680
                            0.0004199   0.0014248   0.0473103  -0.0000000
 2222222222/020/\          -0.0000000   0.0000000   0.0000000   0.0001302  -0.0001804  -0.0000899  -0.0544631   0.0160156
                           -0.0000000  -0.0000000  -0.0000000  -0.0389232
 22222222220/2/0\          -0.0000000  -0.0000000   0.0000000  -0.0001173   0.0001395   0.0000999   0.0538337  -0.0180190
                            0.0000000  -0.0000000   0.0000000   0.0389233
 2222222222//\002           0.0000000   0.0000000  -0.0000000  -0.0001220   0.0001577   0.0000936   0.0533745  -0.0167743
                            0.0000000   0.0000000   0.0000000   0.0383940

 Coefficients of fixed reference functions:
 ==========================================

 State      Coefficients
 1           0.683525   -0.001955    0.666375    0.000000    0.000000    0.000000    0.000000   -0.000000    0.014981   -0.000044
            -0.015367    0.000000
 2          -0.664888   -0.065810    0.681807   -0.000000    0.000000   -0.000000   -0.000000    0.000000    0.015328   -0.001480
             0.014948   -0.000000
 3          -0.044544    0.952330    0.048483    0.000000    0.000000    0.000000   -0.000000    0.000000    0.001090    0.021410
             0.001001   -0.000000
 4          -0.000000   -0.000000   -0.000000   -0.001298    0.872057    0.097729   -0.376353   -0.006079    0.000002   -0.000000
            -0.000002   -0.000000
 5           0.000000    0.000000   -0.000000    0.007458    0.377667    0.007486    0.876740    0.017248    0.000001   -0.000000
             0.000005   -0.000000
 6           0.000000   -0.000000    0.000000   -0.003735   -0.092694    0.949780    0.031911   -0.003020   -0.000000    0.000002
             0.000000   -0.000000
 7          -0.000000    0.000000    0.000000   -0.625670    0.000213    0.000155   -0.008959    0.721229   -0.000000   -0.000000
            -0.000000    0.000002
 8           0.000000   -0.000000   -0.000000    0.721235   -0.002632    0.005151   -0.017350    0.625460    0.000000    0.000000
            -0.000000    0.000000
 9           0.021663    0.000509   -0.000192   -0.000000    0.000000   -0.000000   -0.000006    0.000000    0.008467   -0.022431
             0.954102    0.000000
 10          0.000503   -0.021654   -0.000652   -0.000000    0.000000   -0.000002   -0.000000    0.000000    0.028728    0.953714
             0.022167    0.000000
 11         -0.000207    0.000648   -0.021659   -0.000000   -0.000003    0.000000   -0.000000   -0.000000    0.953934   -0.028523
            -0.009136    0.000000
 12         -0.000000    0.000000    0.000000    0.000001    0.000000    0.000000    0.000000   -0.000002   -0.000000   -0.000000
            -0.000000    0.954557

 Coefficients of rotated reference functions:
 ============================================

 State      Coefficients
 1           0.954844    0.000000    0.000000    0.000000   -0.000000   -0.000000    0.000000    0.000000    0.000076   -0.000000
            -0.000075   -0.000000
 2           0.000000    0.954844    0.000000   -0.000000    0.000000   -0.000000   -0.000000    0.000000   -0.000075    0.000003
            -0.000076   -0.000000
 3           0.000000    0.000000    0.954844    0.000000    0.000000    0.000000   -0.000000   -0.000000   -0.000003   -0.000106
            -0.000002   -0.000000
 4           0.000000   -0.000000    0.000000    0.954838    0.000000   -0.000000    0.000000   -0.000000    0.000000   -0.000000
             0.000000   -0.000000
 5          -0.000000    0.000000    0.000000    0.000000    0.954838    0.000000   -0.000000   -0.000000   -0.000000   -0.000000
             0.000000    0.000000
 6          -0.000000   -0.000000    0.000000   -0.000000    0.000000    0.954838    0.000000   -0.000000   -0.000000   -0.000000
            -0.000000    0.000000
 7           0.000000   -0.000000   -0.000000    0.000000   -0.000000    0.000000    0.954838   -0.000000    0.000000    0.000000
            -0.000000    0.000000
 8           0.000000    0.000000   -0.000000   -0.000000   -0.000000   -0.000000   -0.000000    0.954838    0.000000   -0.000000
            -0.000000    0.000000
 9           0.000076   -0.000075   -0.000003    0.000000   -0.000000   -0.000000    0.000000    0.000000    0.954650    0.000000
             0.000000   -0.000000
 10         -0.000000    0.000003   -0.000106   -0.000000   -0.000000   -0.000000    0.000000   -0.000000    0.000000    0.954650
             0.000000   -0.000000
 11         -0.000075   -0.000076   -0.000002    0.000000    0.000000   -0.000000   -0.000000   -0.000000    0.000000    0.000000
             0.954650   -0.000000
 12         -0.000000   -0.000000   -0.000000   -0.000000    0.000000    0.000000    0.000000    0.000000   -0.000000   -0.000000
            -0.000000    0.954557


 RESULTS FOR STATE 1.2
 =====================

 Coefficient of reference function:   C(0) = 0.68352545 (fixed)   0.95489063 (relaxed)   0.95484415 (rotated)

 Energy contributions of configuration classes

 CLASS          SQ.NORM        ECORR1        ECORR2
 +++++++++++++++++++++++++++++++++++++++++++++++++++
 Internals    0.00011333   -0.00008997   -0.89261069
 Singles      0.00875631   -0.03439422   -0.03944083
 Pairs        0.08794948   -0.00000000   -0.08126034
 Total        1.09681913   -0.03448419   -1.01331186
 +++++++++++++++++++++++++++++++++++++++++++++++++++


 Reference energy                    -294.65649954
 Nuclear energy                         0.00000000
 Kinetic energy                       111.87258256
 One electron energy                 -513.44968432
 Two electron energy                  217.77972170
 Virial quotient                       -2.64291711
 Correlation energy                    -1.01346308
 !MRCI STATE 1.2 Energy              -295.669962620015

 Properties without orbital relaxation:

 !MRCI STATE 1.2 Dipole moment          0.00000000     0.00000000     0.00000000
 Dipole moment /Debye                   0.00000000     0.00000000     0.00000000

 Cluster corrected energies          -295.76808523 (Davidson, fixed reference)
 Cluster corrected energies          -295.76797701 (Davidson, relaxed reference)
 Cluster corrected energies          -295.76808523 (Davidson, rotated reference)

 Cluster corrected energies          -295.76771955 (Pople, fixed reference)
 Cluster corrected energies          -295.76760248 (Pople, relaxed reference)
 Cluster corrected energies          -295.76771955 (Pople, rotated reference)



 RESULTS FOR STATE 2.2
 =====================

 Maximum overlap with reference state  3

 Coefficient of reference function:   C(0) = 0.68180666 (fixed)   0.95489064 (relaxed)   0.95484415 (rotated)

 Energy contributions of configuration classes

 CLASS          SQ.NORM        ECORR1        ECORR2
 +++++++++++++++++++++++++++++++++++++++++++++++++++
 Internals    0.00011333   -0.00008997   -0.89261070
 Singles      0.00875632   -0.03439422   -0.03944083
 Pairs        0.08794947    0.00000000   -0.08126033
 Total        1.09681912   -0.03448420   -1.01331186
 +++++++++++++++++++++++++++++++++++++++++++++++++++


 Reference energy                    -294.65649954
 Nuclear energy                         0.00000000
 Kinetic energy                       111.87258245
 One electron energy                 -513.44968428
 Two electron energy                  217.77972166
 Virial quotient                       -2.64291711
 Correlation energy                    -1.01346308
 !MRCI STATE 2.2 Energy              -295.669962619778

 Properties without orbital relaxation:

 !MRCI STATE 2.2 Dipole moment          0.00000000     0.00000000     0.00000000
 Dipole moment /Debye                   0.00000000     0.00000000     0.00000000

 Cluster corrected energies          -295.76808522 (Davidson, fixed reference)
 Cluster corrected energies          -295.76797701 (Davidson, relaxed reference)
[...]
   27    3.2  1.5  1.5   0.005%   0.003%   0.078%   0.003%   0.447%   0.411%   9.118%   7.050%   0.972%   0.361%
   28    4.2  1.5  1.5   0.028%   0.005%   0.005%   0.115%   0.458%   1.073%   0.465%   0.427%   0.038%   0.026%
   29    5.2  1.5  1.5   0.157%   0.119%   0.110%   0.004%   1.034%   0.478%   0.062%   0.189%   1.369%   0.491%
   30    6.2  1.5  1.5   0.037%   0.019%   0.106%   0.002%   0.817%   0.674%   0.127%   0.099%   1.027%   0.406%
   31    7.2  1.5  1.5   3.205%   5.175%   0.002%   0.747%   0.445%   0.504%   0.129%   0.165%   5.101%  13.809%
   32    8.2  1.5  1.5   1.150%   1.853%   0.002%   0.979%   0.337%   0.372%   0.275%   0.356%   2.182%   5.934%
   33    9.2  1.5  1.5   0.000%   0.001%   0.054%  22.213%   0.814%   0.899%   0.000%   0.000%   0.000%   0.000%
   34    1.2  1.5  0.5   0.000%   0.000%   0.021%   0.000%   0.152%   0.124%  12.219%   9.378%   0.007%   0.004%
   35    2.2  1.5  0.5   0.005%   0.009%   0.004%   1.479%   0.293%   0.327%   2.286%   3.072%   1.465%   3.987%
   36    3.2  1.5  0.5   0.010%   0.015%   0.001%   0.419%   0.806%   0.900%   2.383%   3.054%   1.333%   3.626%
   37    4.2  1.5  0.5   0.651%   0.639%   1.450%   0.070%   0.076%   0.031%   0.009%   0.013%   3.120%   0.778%
   38    5.2  1.5  0.5   0.387%   0.226%   0.053%   1.465%   0.038%   0.079%   0.281%   0.362%   0.040%   0.963%
   39    6.2  1.5  0.5   0.022%   0.041%   0.021%   1.507%   0.051%   0.064%   0.285%   0.362%   0.180%   0.431%
   40    7.2  1.5  0.5   1.915%   1.185%   0.972%   0.002%   0.379%   0.340%   0.337%   0.265%   5.764%   2.131%
   41    8.2  1.5  0.5   4.330%   2.686%   0.733%   0.002%   0.490%   0.444%   0.165%   0.128%  12.162%   4.472%
   42    9.2  1.5  0.5   0.000%   0.000%   1.703%   0.004%  11.724%  10.625%   0.001%   0.000%   0.000%   0.000%
   43    1.2  1.5 -0.5   0.000%   0.000%   0.000%   0.021%   0.124%   0.152%   9.378%  12.219%   0.004%   0.007%
   44    2.2  1.5 -0.5   0.009%   0.005%   1.479%   0.004%   0.327%   0.293%   3.072%   2.286%   3.987%   1.465%
   45    3.2  1.5 -0.5   0.015%   0.010%   0.419%   0.001%   0.900%   0.806%   3.054%   2.383%   3.626%   1.333%
   46    4.2  1.5 -0.5   0.639%   0.651%   0.070%   1.450%   0.031%   0.076%   0.013%   0.009%   0.778%   3.120%
   47    5.2  1.5 -0.5   0.226%   0.387%   1.465%   0.053%   0.079%   0.038%   0.362%   0.281%   0.963%   0.040%
   48    6.2  1.5 -0.5   0.041%   0.022%   1.507%   0.021%   0.064%   0.051%   0.362%   0.285%   0.431%   0.180%
   49    7.2  1.5 -0.5   1.185%   1.915%   0.002%   0.972%   0.340%   0.379%   0.265%   0.337%   2.131%   5.764%
   50    8.2  1.5 -0.5   2.686%   4.330%   0.002%   0.733%   0.444%   0.490%   0.128%   0.165%   4.472%  12.162%
   51    9.2  1.5 -0.5   0.000%   0.000%   0.004%   1.703%  10.625%  11.724%   0.000%   0.001%   0.000%   0.000%
   52    1.2  1.5 -1.5   0.006%   0.004%   2.499%   0.007%   0.096%   0.090%   0.005%   0.006%   5.067%   1.880%
   53    2.2  1.5 -1.5   0.002%   0.003%   0.000%   0.064%   0.408%   0.454%   7.084%   9.162%   0.329%   0.848%
   54    3.2  1.5 -1.5   0.003%   0.005%   0.003%   0.078%   0.411%   0.447%   7.050%   9.118%   0.361%   0.972%
   55    4.2  1.5 -1.5   0.005%   0.028%   0.115%   0.005%   1.073%   0.458%   0.427%   0.465%   0.026%   0.038%
   56    5.2  1.5 -1.5   0.119%   0.157%   0.004%   0.110%   0.478%   1.034%   0.189%   0.062%   0.491%   1.369%
   57    6.2  1.5 -1.5   0.019%   0.037%   0.002%   0.106%   0.674%   0.817%   0.099%   0.127%   0.406%   1.027%
   58    7.2  1.5 -1.5   5.175%   3.205%   0.747%   0.002%   0.504%   0.445%   0.165%   0.129%  13.809%   5.101%
   59    8.2  1.5 -1.5   1.853%   1.150%   0.979%   0.002%   0.372%   0.337%   0.356%   0.275%   5.934%   2.182%
   60    9.2  1.5 -1.5   0.001%   0.000%  22.213%   0.054%   0.899%   0.814%   0.000%   0.000%   0.000%   0.000%

   Nr   State  S   Sz      41       42       43       44       45       46       47       48       49       50

    1    1.2  0.5  0.5   0.000%   0.000%   0.000%   0.000%   0.013%   0.000%   0.000%   0.005%   0.000%   0.008%
    2    2.2  0.5  0.5   0.000%   0.000%   0.000%   0.000%   0.002%   0.011%   0.002%   0.003%   0.008%   0.000%
    3    3.2  0.5  0.5   0.000%   0.000%   0.000%   0.000%   0.000%   0.001%   0.002%   0.015%   0.004%   0.004%
    4    4.2  0.5  0.5   2.627%   0.713%   1.931%   0.379%   0.023%   0.117%   0.130%   0.103%   0.317%   0.151%
    5    5.2  0.5  0.5   1.951%   2.986%   0.025%   1.197%   0.050%   0.004%   0.214%   0.122%   0.000%   0.175%
    6    6.2  0.5  0.5   0.041%   0.043%   3.159%   1.736%   0.095%   0.232%   0.003%   0.017%   0.092%   0.091%
    7    7.2  0.5  0.5   8.001%   3.409%   0.096%   0.158%   0.001%   0.000%   0.219%   0.026%   0.100%   0.096%
    8    8.2  0.5  0.5   0.186%   0.077%   4.138%   7.249%   0.138%   0.058%   0.002%   0.000%   0.158%   0.155%
    9    9.2  0.5  0.5   0.000%   0.000%   0.000%   0.000%  12.911%   5.520%   1.434%   0.188%   1.988%   1.846%
   10   10.2  0.5  0.5   0.002%   0.004%   0.001%   0.001%   0.361%   0.727%   2.020%  16.543%   2.487%   2.571%
   11   11.2  0.5  0.5   0.000%   0.000%   0.002%   0.001%   3.002%   7.003%   1.021%   8.830%   2.189%   2.349%
   12   12.2  0.5  0.5   0.001%   0.001%   0.000%   0.001%   0.001%   0.000%   0.001%   0.000%  11.515%  11.114%
   13    1.2  0.5 -0.5   0.000%   0.000%   0.000%   0.000%   0.000%   0.013%   0.005%   0.000%   0.008%   0.000%
   14    2.2  0.5 -0.5   0.000%   0.000%   0.000%   0.000%   0.011%   0.002%   0.003%   0.002%   0.000%   0.008%
   15    3.2  0.5 -0.5   0.000%   0.000%   0.000%   0.000%   0.001%   0.000%   0.015%   0.002%   0.004%   0.004%
   16    4.2  0.5 -0.5   0.713%   2.627%   0.379%   1.931%   0.117%   0.023%   0.103%   0.130%   0.151%   0.317%
   17    5.2  0.5 -0.5   2.986%   1.951%   1.197%   0.025%   0.004%   0.050%   0.122%   0.214%   0.175%   0.000%
   18    6.2  0.5 -0.5   0.043%   0.041%   1.736%   3.159%   0.232%   0.095%   0.017%   0.003%   0.091%   0.092%
   19    7.2  0.5 -0.5   3.409%   8.001%   0.158%   0.096%   0.000%   0.001%   0.026%   0.219%   0.096%   0.100%
   20    8.2  0.5 -0.5   0.077%   0.186%   7.249%   4.138%   0.058%   0.138%   0.000%   0.002%   0.155%   0.158%
   21    9.2  0.5 -0.5   0.000%   0.000%   0.000%   0.000%   5.520%  12.911%   0.188%   1.434%   1.846%   1.988%
   22   10.2  0.5 -0.5   0.004%   0.002%   0.001%   0.001%   0.727%   0.361%  16.543%   2.020%   2.571%   2.487%
   23   11.2  0.5 -0.5   0.000%   0.000%   0.001%   0.002%   7.003%   3.002%   8.830%   1.021%   2.349%   2.189%
   24   12.2  0.5 -0.5   0.001%   0.001%   0.001%   0.000%   0.000%   0.001%   0.000%   0.001%  11.114%  11.515%
   25    1.2  1.5  1.5   0.255%   0.647%   0.055%   0.029%   0.001%   0.003%   0.005%   0.044%   0.020%   0.022%
   26    2.2  1.5  1.5   3.843%   1.631%   1.499%   2.577%   0.016%   0.007%   0.000%   0.000%   0.569%   0.548%
   27    3.2  1.5  1.5   6.628%   2.813%   0.011%   0.014%   0.009%   0.004%   0.006%   0.001%   0.587%   0.567%
   28    4.2  1.5  1.5   0.057%   1.170%   3.371%   1.384%   5.260%   7.213%   0.238%   0.767%   4.710%   6.876%
   29    5.2  1.5  1.5  13.344%   4.907%   0.674%   2.746%   7.186%   5.637%   0.875%   0.259%   2.621%   0.598%
   30    6.2  1.5  1.5   2.581%   1.122%   7.114%  11.757%   9.546%   3.557%   0.857%   0.093%   1.502%   1.443%
   31    7.2  1.5  1.5   0.403%   0.958%   1.888%   1.064%   2.284%   5.552%   0.591%   5.035%   1.760%   1.849%
   32    8.2  1.5  1.5   0.941%   2.225%   1.358%   0.781%   1.659%   4.001%   0.846%   6.953%   4.052%   4.195%
   33    9.2  1.5  1.5   0.002%   0.005%   0.002%   0.001%   0.021%   0.054%   0.108%   0.900%   0.120%   0.124%
   34    1.2  1.5  0.5   1.083%   0.450%   3.759%   6.489%   0.014%   0.005%   0.003%   0.000%   0.311%   0.301%
   35    2.2  1.5  0.5   0.015%   0.031%   2.221%   1.246%   0.002%   0.004%   0.004%   0.034%   0.003%   0.003%
   36    3.2  1.5  0.5   0.620%   1.481%   1.100%   0.690%   0.008%   0.021%   0.001%   0.009%   0.051%   0.053%
   37    4.2  1.5  0.5  15.122%   7.229%   0.386%   3.075%   0.641%   0.434%  10.150%   2.890%   0.150%   0.141%
   38    5.2  1.5  0.5   1.251%   0.060%   7.188%   2.802%   0.410%   0.507%   2.948%   9.721%   4.159%   4.315%
   39    6.2  1.5  0.5   0.748%   1.884%   5.609%   3.046%   0.306%   0.819%   1.221%  11.123%   4.132%   4.353%
   40    7.2  1.5  0.5   2.946%   1.237%   0.530%   0.977%   3.980%   1.662%   6.908%   0.824%   4.012%   3.812%
   41    8.2  1.5  0.5   1.584%   0.681%   1.645%   2.829%   5.512%   2.247%   5.021%   0.595%   1.833%   1.767%
   42    9.2  1.5  0.5   0.002%   0.001%   0.002%   0.004%   0.811%   0.334%   0.060%   0.008%   0.519%   0.502%
   43    1.2  1.5 -0.5   0.450%   1.083%   6.489%   3.759%   0.005%   0.014%   0.000%   0.003%   0.301%   0.311%
   44    2.2  1.5 -0.5   0.031%   0.015%   1.246%   2.221%   0.004%   0.002%   0.034%   0.004%   0.003%   0.003%
   45    3.2  1.5 -0.5   1.481%   0.620%   0.690%   1.100%   0.021%   0.008%   0.009%   0.001%   0.053%   0.051%
   46    4.2  1.5 -0.5   7.229%  15.122%   3.075%   0.386%   0.434%   0.641%   2.890%  10.150%   0.141%   0.150%
   47    5.2  1.5 -0.5   0.060%   1.251%   2.802%   7.188%   0.507%   0.410%   9.721%   2.948%   4.315%   4.159%
   48    6.2  1.5 -0.5   1.884%   0.748%   3.046%   5.609%   0.819%   0.306%  11.123%   1.221%   4.353%   4.132%
   49    7.2  1.5 -0.5   1.237%   2.946%   0.977%   0.530%   1.662%   3.980%   0.824%   6.908%   3.812%   4.012%
   50    8.2  1.5 -0.5   0.681%   1.584%   2.829%   1.645%   2.247%   5.512%   0.595%   5.021%   1.767%   1.833%
   51    9.2  1.5 -0.5   0.001%   0.002%   0.004%   0.002%   0.334%   0.811%   0.008%   0.060%   0.502%   0.519%
   52    1.2  1.5 -1.5   0.647%   0.255%   0.029%   0.055%   0.003%   0.001%   0.044%   0.005%   0.022%   0.020%
   53    2.2  1.5 -1.5   1.631%   3.843%   2.577%   1.499%   0.007%   0.016%   0.000%   0.000%   0.548%   0.569%
   54    3.2  1.5 -1.5   2.813%   6.628%   0.014%   0.011%   0.004%   0.009%   0.001%   0.006%   0.567%   0.587%
   55    4.2  1.5 -1.5   1.170%   0.057%   1.384%   3.371%   7.213%   5.260%   0.767%   0.238%   6.876%   4.710%
   56    5.2  1.5 -1.5   4.907%  13.344%   2.746%   0.674%   5.637%   7.186%   0.259%   0.875%   0.598%   2.621%
   57    6.2  1.5 -1.5   1.122%   2.581%  11.757%   7.114%   3.557%   9.546%   0.093%   0.857%   1.443%   1.502%
   58    7.2  1.5 -1.5   0.958%   0.403%   1.064%   1.888%   5.552%   2.284%   5.035%   0.591%   1.849%   1.760%
   59    8.2  1.5 -1.5   2.225%   0.941%   0.781%   1.358%   4.001%   1.659%   6.953%   0.846%   4.195%   4.052%
   60    9.2  1.5 -1.5   0.005%   0.002%   0.001%   0.002%   0.054%   0.021%   0.900%   0.108%   0.124%   0.120%

   Nr   State  S   Sz      51       52       53       54       55       56       57       58       59       60

    1    1.2  0.5  0.5   0.000%   0.001%   0.000%   0.001%   0.014%   0.000%   0.000%   0.000%   0.000%   0.000%
    2    2.2  0.5  0.5   0.000%   0.000%   0.001%   0.000%   0.000%   0.014%   0.000%   0.000%   0.000%   0.000%
    3    3.2  0.5  0.5   0.000%   0.000%   0.000%   0.000%   0.009%   0.006%   0.000%   0.000%   0.000%   0.000%
    4    4.2  0.5  0.5   4.815%   0.705%   8.211%   2.316%   0.000%   0.000%   7.290%   0.727%   1.984%   2.781%
    5    5.2  0.5  0.5   0.100%   2.940%   4.287%   8.962%   0.000%   0.000%   2.136%   8.586%   1.918%   0.144%
    6    6.2  0.5  0.5  10.419%   5.594%   0.180%   0.232%   0.000%   0.000%   0.263%   0.255%   7.705%   4.552%
    7    7.2  0.5  0.5   0.179%   0.347%  10.853%   5.412%   0.000%   0.000%   6.477%   6.292%   0.075%   0.109%
    8    8.2  0.5  0.5   5.644%  10.709%   0.299%   0.148%   0.000%   0.000%   0.089%   0.098%   4.757%   7.991%
    9    9.2  0.5  0.5   0.298%   0.566%   0.225%   0.106%   3.573%   5.373%   0.651%   0.654%   3.922%   6.583%
   10   10.2  0.5  0.5   0.022%   0.014%   0.052%   0.104%   5.420%   3.747%   5.527%   5.623%   0.232%   0.173%
   11   11.2  0.5  0.5   0.073%   0.041%   0.159%   0.330%   5.455%   3.602%   2.404%   2.575%   4.213%   2.488%
   12   12.2  0.5  0.5   0.109%   0.213%   0.271%   0.135%  14.229%  20.730%   0.000%   0.000%   0.000%   0.000%
   13    1.2  0.5 -0.5   0.001%   0.000%   0.001%   0.000%   0.000%   0.014%   0.000%   0.000%   0.000%   0.000%
   14    2.2  0.5 -0.5   0.000%   0.000%   0.000%   0.001%   0.014%   0.000%   0.000%   0.000%   0.000%   0.000%
   15    3.2  0.5 -0.5   0.000%   0.000%   0.000%   0.000%   0.006%   0.009%   0.000%   0.000%   0.000%   0.000%
   16    4.2  0.5 -0.5   0.705%   4.815%   2.316%   8.211%   0.000%   0.000%   0.727%   7.290%   2.781%   1.984%
   17    5.2  0.5 -0.5   2.940%   0.100%   8.962%   4.287%   0.000%   0.000%   8.586%   2.136%   0.144%   1.918%
   18    6.2  0.5 -0.5   5.594%  10.419%   0.232%   0.180%   0.000%   0.000%   0.255%   0.263%   4.552%   7.705%
   19    7.2  0.5 -0.5   0.347%   0.179%   5.412%  10.853%   0.000%   0.000%   6.292%   6.477%   0.109%   0.075%
   20    8.2  0.5 -0.5  10.709%   5.644%   0.148%   0.299%   0.000%   0.000%   0.098%   0.089%   7.991%   4.757%
   21    9.2  0.5 -0.5   0.566%   0.298%   0.106%   0.225%   5.373%   3.573%   0.654%   0.651%   6.583%   3.922%
   22   10.2  0.5 -0.5   0.014%   0.022%   0.104%   0.052%   3.747%   5.420%   5.623%   5.527%   0.173%   0.232%
   23   11.2  0.5 -0.5   0.041%   0.073%   0.330%   0.159%   3.602%   5.455%   2.575%   2.404%   2.488%   4.213%
   24   12.2  0.5 -0.5   0.213%   0.109%   0.135%   0.271%  20.730%  14.229%   0.000%   0.000%   0.000%   0.000%
   25    1.2  1.5  1.5   0.752%   0.371%   2.217%   4.456%   0.000%   0.001%   5.797%   6.035%   0.869%   0.581%
   26    2.2  1.5  1.5   0.631%   1.209%   0.175%   0.078%   0.550%   0.801%   0.251%   0.235%   1.506%   2.506%
   27    3.2  1.5  1.5   0.614%   1.241%   0.131%   0.071%   0.544%   0.793%   0.258%   0.247%   1.539%   2.465%
   28    4.2  1.5  1.5   0.047%   0.003%   0.023%   0.104%   4.275%   2.070%   0.190%   0.096%   1.867%   0.491%
   29    5.2  1.5  1.5   0.054%   0.144%   0.103%   0.023%   0.198%   1.472%   0.105%   0.208%   0.589%   1.876%
   30    6.2  1.5  1.5   0.070%   0.145%   0.050%   0.024%   0.631%   0.934%   0.150%   0.143%   0.870%   1.616%
   31    7.2  1.5  1.5   0.002%   0.001%   0.046%   0.093%   1.203%   0.814%   0.478%   0.507%   1.057%   0.635%
   32    8.2  1.5  1.5   0.033%   0.017%   0.011%   0.022%   2.675%   1.837%   0.843%   0.854%   0.589%   0.352%
   33    9.2  1.5  1.5   4.233%   2.178%  12.484%  25.033%   0.000%   0.000%   6.391%   6.608%   0.967%   0.616%
   34    1.2  1.5  0.5   0.332%   0.554%   0.152%   0.082%   0.761%   1.096%   0.066%   0.081%   0.456%   0.860%
   35    2.2  1.5  0.5   0.887%   0.464%   1.682%   3.361%   0.275%   0.196%   3.821%   3.871%   1.618%   0.949%
   36    3.2  1.5  0.5   3.815%   2.002%   0.176%   0.354%   0.266%   0.184%   0.682%   0.732%   5.513%   3.330%
   37    4.2  1.5  0.5   0.009%   0.002%   0.072%   0.030%   0.106%   0.060%   0.894%   1.611%   0.065%   0.228%
   38    5.2  1.5  0.5   0.086%   0.051%   0.000%   0.016%   2.831%   1.962%   1.610%   0.831%   0.218%   0.071%
   39    6.2  1.5  0.5   0.030%   0.014%   0.129%   0.260%   2.892%   1.951%   1.194%   1.308%   0.194%   0.107%
   40    7.2  1.5  0.5   0.063%   0.122%   0.189%   0.092%   1.788%   2.645%   0.873%   0.850%   0.362%   0.612%
   41    8.2  1.5  0.5   0.046%   0.089%   0.009%   0.005%   0.819%   1.195%   0.490%   0.466%   0.647%   1.048%
   42    9.2  1.5  0.5  12.542%  24.359%   3.982%   1.983%   0.000%   0.000%   0.777%   0.800%   4.950%   8.152%
   43    1.2  1.5 -0.5   0.554%   0.332%   0.082%   0.152%   1.096%   0.761%   0.081%   0.066%   0.860%   0.456%
   44    2.2  1.5 -0.5   0.464%   0.887%   3.361%   1.682%   0.196%   0.275%   3.871%   3.821%   0.949%   1.618%
   45    3.2  1.5 -0.5   2.002%   3.815%   0.354%   0.176%   0.184%   0.266%   0.732%   0.682%   3.330%   5.513%
   46    4.2  1.5 -0.5   0.002%   0.009%   0.030%   0.072%   0.060%   0.106%   1.611%   0.894%   0.228%   0.065%
   47    5.2  1.5 -0.5   0.051%   0.086%   0.016%   0.000%   1.962%   2.831%   0.831%   1.610%   0.071%   0.218%
   48    6.2  1.5 -0.5   0.014%   0.030%   0.260%   0.129%   1.951%   2.892%   1.308%   1.194%   0.107%   0.194%
   49    7.2  1.5 -0.5   0.122%   0.063%   0.092%   0.189%   2.645%   1.788%   0.850%   0.873%   0.612%   0.362%
   50    8.2  1.5 -0.5   0.089%   0.046%   0.005%   0.009%   1.195%   0.819%   0.466%   0.490%   1.048%   0.647%
   51    9.2  1.5 -0.5  24.359%  12.542%   1.983%   3.982%   0.000%   0.000%   0.800%   0.777%   8.152%   4.950%
   52    1.2  1.5 -1.5   0.371%   0.752%   4.456%   2.217%   0.001%   0.000%   6.035%   5.797%   0.581%   0.869%
   53    2.2  1.5 -1.5   1.209%   0.631%   0.078%   0.175%   0.801%   0.550%   0.235%   0.251%   2.506%   1.506%
   54    3.2  1.5 -1.5   1.241%   0.614%   0.071%   0.131%   0.793%   0.544%   0.247%   0.258%   2.465%   1.539%
   55    4.2  1.5 -1.5   0.003%   0.047%   0.104%   0.023%   2.070%   4.275%   0.096%   0.190%   0.491%   1.867%
   56    5.2  1.5 -1.5   0.144%   0.054%   0.023%   0.103%   1.472%   0.198%   0.208%   0.105%   1.876%   0.589%
   57    6.2  1.5 -1.5   0.145%   0.070%   0.024%   0.050%   0.934%   0.631%   0.143%   0.150%   1.616%   0.870%
   58    7.2  1.5 -1.5   0.001%   0.002%   0.093%   0.046%   0.814%   1.203%   0.507%   0.478%   0.635%   1.057%
   59    8.2  1.5 -1.5   0.017%   0.033%   0.022%   0.011%   1.837%   2.675%   0.854%   0.843%   0.352%   0.589%
   60    9.2  1.5 -1.5   2.178%   4.233%  25.033%  12.484%   0.000%   0.000%   6.608%   6.391%   0.616%   0.967%


 Property matrices transformed in SO basis (not sym. adapted)
 ============================================================

 No matrix element <i|DMX|i> larger than 5E-7
 No matrix element <i|DMX|1> larger than 5E-7

 No matrix element <i|DMY|i> larger than 5E-7
 No matrix element <i|DMY|1> larger than 5E-7

 No matrix element <i|DMZ|i> larger than 5E-7
 No matrix element <i|DMZ|1> larger than 5E-7


 **********************************************************************************************************************************
 DATASETS  * FILE   NREC   LENGTH (MB)   RECORD NAMES
              1      21       94.20       500      610      700      900      950      970     1000      129      960     1100   
                                          VAR    BASINP    GEOM    SYMINP    ZMAT    AOBASIS   BASIS     P2S    ABASIS      S 
                                         1400     1410     1420     1200     1210     1080     1700     1600     1650     1380   
                                           T        V       ECP      H0       H01     AOSYM    OPER      SMH    MOLCAS    JKOP   
                                         1700(1)
                                         OPER   

              2       7    10039.57       700     1000      520     2100     2140     5203     5303   
                                         GEOM     BASIS   MCVARS     RHF     MCSCF    MRCI     MRCI   

 PROGRAMS   *        TOTAL        CI        CI        CI     MULTI   RHF-SCF       INT
 CPU TIMES  *    435610.40 376026.04  18009.79  41546.85     11.96      2.45     12.94
 REAL TIME  *    440364.67 SEC
 DISK USED  *         9.90 GB (local),       80.72 GB (total)
 SF USED    *        61.89 GB
 GA USED    *         0.00 MB       (max)       0.00 MB       (current)
 **********************************************************************************************************************************

 CI/USERDEF energy=   -295.435874652518

              CI              CI           MULTI         RHF-SCF
   -295.35778287   -295.35794802   -294.35951158   -294.74686365
 **********************************************************************************************************************************
 Molpro calculation terminated with 1 warning(s)
