
 Working directory              : /wrk/irikura/molpro.DsOKyiiORD/
 Global scratch directory       : /wrk/irikura/molpro.DsOKyiiORD/
 Wavefunction directory         : /home/irikura/wfu/
 Main file repository           : /wrk/irikura/molpro.DsOKyiiORD/

 id        : nistki

 Nodes            nprocs
 pn112695.nist.gov    8
 GA implementation: MPI file
 GA implementation (serial work in mppx): MPI file

 Using customized tuning parameters: mindgm=1; mindgv=20; mindgc=4; mindgr=1; noblas=0; minvec=7
 default implementation of scratch files=sf  


 Variables initialized (1040), CPU time= 0.02 sec
 ***,I SO-CI
                                                                                 ! active space (7/7)
                                                                                 ! additional diffuse spdf functions
 memory,4000,M;
 
 gprint,orbitals,civector;
                                                                                 !gthresh,energy=1.d-10,coeff=1.d-8;
 
 symmetry,xyz
 geometry={I};
 
 basis={
 ecp,i,ECP28MDF;
 spdfgh,i,aug-cc-pwCVQZ-PP;C; spdf,1,even,nprim=1,ratio=3.0;
 }
 
 {rhf;wf,charge=-1}
 
 NDOUB=12
 NQUAR=9
 
 {multi
     occ,7,9
     closed,6,3
     wf,charge=0,sym=2,spin=1;state,NDOUB; weight,3[99],(NDOUB-3)[1]
     wf,charge=0,sym=2,spin=3;state,NQUAR; weight,all,1
     expec2,lxx,lyy,lzz;
 }
 table, energy, ll
 title, Energies and &lt;L**2&gt; values
 
 core,0,0
 
 {ci;wf,sym=2,spin=1;state,NDOUB; save,5203.2}
 hlsdiag = energd4
 {ci;wf,sym=2,spin=3;state,NQUAR; save,5303.2}
 hlsdiag(NDOUB+1) = energd4
 
 table,hlsdiag
 
 {ci;hlsmat,ecp,5203.2,5303.2;print,vls=0,hls=0}                                 !compute and diagonalize SO matrix
 Commands initialized (846), CPU time= 0.01 sec, 717 directives.
 Default parameters read. Elapsed time= 0.12 sec

 Checking input...
 Passed
1


                                         ***  PROGRAM SYSTEM MOLPRO  ***
                                       Copyright, TTI GmbH Stuttgart, 2015
                                    Version 2023.2 linked Fri Sep 22 03:27:09 2023


 **********************************************************************************************************************************
 LABEL *   I SO-CI                                                                                                                                                       
  (32 PROC) 64 bit mpp version                                                           DATE: 26-Oct-24          TIME: 17:37:26  
 **********************************************************************************************************************************

 SHA1:             3c61bfe44d37c8635c785372c339f5cbdd4e4b59
 **********************************************************************************************************************************

 Memory per process:      4000 MW
 Total memory per node:  32000 MW

 GA preallocation disabled
 GA check disabled

 Variable memory set to 4000.0 MW


 ZSYMEL=XYZ

 SETTING BASIS          =    USERDEF


 Recomputing integrals since basis changed


 Using spherical harmonics

 Library entry I    ECP ECP28MDF                 selected for group  1
 Library entry I      S AUG-CC-PWCVQZ-PP     selected for orbital group  1
 Even tempered I  S diffuse               selected for group 1    nprim= 1    centre=  0.011    ratio= 3.000    dratio= 1.000
 Library entry I      P AUG-CC-PWCVQZ-PP     selected for orbital group  1
 Even tempered I  P diffuse               selected for group 1    nprim= 1    centre=  0.009    ratio= 3.000    dratio= 1.000
 Library entry I      D AUG-CC-PWCVQZ-PP     selected for orbital group  1
 Even tempered I  D diffuse               selected for group 1    nprim= 1    centre=  0.021    ratio= 3.000    dratio= 1.000
 Library entry I      F AUG-CC-PWCVQZ-PP     selected for orbital group  1
 Even tempered I  F diffuse               selected for group 1    nprim= 1    centre=  0.042    ratio= 3.000    dratio= 1.000
 Library entry I      G AUG-CC-PWCVQZ-PP     selected for orbital group  1
 Library entry I      H AUG-CC-PWCVQZ-PP     selected for orbital group  1


 PROGRAM * SEWARD (Integral evaluation for generally contracted gaussian basis sets)     Author: Roland Lindh, 1990

 Geometry written to block  1 of record 700

 Orientation using atomic masses  
 Molecule type: Atom
 User-specified symmetry elements: XYZ
 Symmetry elements: XYZ
 Rotational constants:       0.0000000      0.0000000      0.0000000 GHz  (calculated with average atomic masses)

 Point group  Ci  



 ATOMIC COORDINATES

 NR  ATOM    CHARGE       X              Y              Z

   1  I      25.00    0.000000000    0.000000000    0.000000000

 NUCLEAR CHARGE:                   25
 NUMBER OF PRIMITIVE AOS:         320
 NUMBER OF SYMMETRY AOS:          248
 NUMBER OF CONTRACTIONS:          185   (   92Ag  +   93Au  )
 NUMBER OF INNER CORE ORBITALS:     0   (    0Ag  +    0Au  )
 NUMBER OF OUTER CORE ORBITALS:     9   (    6Ag  +    3Au  )
 NUMBER OF VALENCE ORBITALS:        4   (    1Ag  +    3Au  )


 LX: Ag           LY: Ag           LZ: Ag 


 NUCLEAR REPULSION ENERGY    0.00000000

 EXTRA SYMMETRY OF AOS IN SYMMETRY 1:   1 1 1 1 1 1 1 1 1 1   1 2 3 4 5 6 2 3 4 5   6 2 3 4 5 6 2 3 4 5   6 2 3 4 5 6 2 3 4 5
                                        6 2 3 4 5 6 2 3 4 5   6 2 3 4 5 6 7 8 910  1112131415 7 8 91011  12131415 7 8 9101112
                                       131415 7 8 910111213  1415
 EXTRA SYMMETRY OF AOS IN SYMMETRY 2:   1 2 3 1 2 3 1 2 3 1   2 3 1 2 3 1 2 3 1 2   3 1 2 3 1 2 3 1 2 3   1 2 3 4 5 6 7 8 910
                                        4 5 6 7 8 910 4 5 6   7 8 910 4 5 6 7 8 9  10 4 5 6 7 8 910 4 5   6 7 8 910 4 5 6 7 8
                                        9101112131415161718  192021


 Eigenvalues of metric

         1 0.194E-05 0.816E-04 0.816E-04 0.816E-04 0.816E-04 0.816E-04 0.434E-03 0.969E-03
         2 0.110E-03 0.110E-03 0.110E-03 0.120E-02 0.120E-02 0.120E-02 0.837E-02 0.837E-02


 Contracted 2-electron integrals neglected if value below      1.0D-12
 AO integral compression algorithm  1   Integral accuracy      1.0D-12

     158.859 MB (compressed) written to integral file ( 14.9%)

     Node minimum: 14.156 MB, node maximum: 27.001 MB


 NUMBER OF SORTED TWO-ELECTRON INTEGRALS:    9344772.     BUFFER LENGTH:  32768
 NUMBER OF SEGMENTS:   1  SEGMENT LENGTH:    9344772      RECORD LENGTH: 524288

 Memory used in sort:       9.90 MW

 SORT1 READ   134353782. AND WROTE     1729514. INTEGRALS IN      5 RECORDS. CPU TIME:     0.57 SEC, REAL TIME:     0.59 SEC
 SORT2 READ    13879740. AND WROTE    74805201. INTEGRALS IN    640 RECORDS. CPU TIME:     0.19 SEC, REAL TIME:     0.21 SEC

 Node minimum:     9343692.  Node maximum:     9360852. integrals

 OPERATOR DM      FOR CENTER  0  COORDINATES:    0.000000    0.000000    0.000000


 **********************************************************************************************************************************
 DATASETS  * FILE   NREC   LENGTH (MB)   RECORD NAMES
              1      19       29.52       500      610      700      900      950      970     1000      129      960     1100   
                                          VAR    BASINP    GEOM    SYMINP    ZMAT    AOBASIS   BASIS     P2S    ABASIS      S 
                                         1400     1410     1420     1200     1210     1080     1700     1600     1650   
                                           T        V       ECP      H0       H01     AOSYM    OPER      SMH    MOLCAS    

 PROGRAMS   *        TOTAL       INT
 CPU TIMES  *         3.16      2.96
 REAL TIME  *         5.21 SEC
 DISK USED  *        29.89 MB (local),      522.21 MB (total)
 GA USED    *         0.00 MB       (max)       0.00 MB       (current)
 **********************************************************************************************************************************


 Program * Restricted Hartree-Fock

 Orbital guess generated from atomic densities.

 Initial occupancy:   7   6

 NELEC=   26   SYM=1   MS2= 0   THRE=1.0D-08   THRD=3.2D-06   THRG=3.2D-06  HFMA2=F  DIIS_START=2   DIIS_MAX=10   DIIS_INCORE=F

 Level shifts:    0.00 (CLOSED)    0.00 (OPEN)    0.30 (GAP_MIN)

 ITER           ETOT              DE          GRAD        DDIFF     DIIS  NEXP   TIME(IT)  TIME(TOT)  DIAG
   1     -294.71888598    -294.71888598     0.00D+00     0.73D-01     0     0       0.04      0.09    start
   2     -294.74431542      -0.02542943     0.35D-02     0.39D-02     1     0       0.04      0.13    diag
   3     -294.74637849      -0.00206307     0.19D-02     0.94D-03     2     0       0.05      0.18    diag
   4     -294.74675619      -0.00037770     0.35D-03     0.57D-03     3     0       0.04      0.22    diag
   5     -294.74683481      -0.00007862     0.12D-03     0.29D-03     4     0       0.04      0.26    diag
   6     -294.74684197      -0.00000716     0.31D-04     0.11D-03     5     0       0.04      0.30    diag
   7     -294.74684226      -0.00000028     0.51D-05     0.26D-04     6     0       0.04      0.34    diag
   8     -294.74684227      -0.00000001     0.10D-05     0.46D-05     7     0       0.05      0.39    fixocc
   9     -294.74684227      -0.00000000     0.18D-06     0.15D-05     8     0       0.03      0.42    diag
  10     -294.74684227      -0.00000000     0.29D-07     0.96D-07     0     0       0.05      0.47    diag/orth

 Final occupancy:   7   6

 !RHF STATE 1.1 Energy               -294.746842268717
  RHF One-electron energy            -520.926302813480
  RHF Two-electron energy             226.179460544764
  RHF Kinetic energy                  110.887727635260
  RHF Nuclear energy                    0.000000000000
  RHF Virial quotient                  -2.658065491595

 !RHF STATE 1.1 Dipole moment           0.00000000     0.00000000     0.00000000
 Dipole moment /Debye                   0.00000000     0.00000000     0.00000000

 ELECTRON ORBITALS
 =================

  Orbital  Occupation    Energy    Cen Mu Typ  Coefficients
    1.1     2.00000    -7.45092     1  1  s    1.00212
    2.1     2.00000    -2.00365     1  1  d2-  0.25012    1  1  d1+  0.88631    1  1  d2+ -0.31329
    3.1     2.00000    -2.00365     1  1  d1+  0.35762    1  1  d2+  0.92970
    4.1     2.00000    -2.00365     1  1  d2-  0.95002
    5.1     2.00000    -2.00365     1  1  d1-  0.96653
    6.1     2.00000    -2.00365     1  1  d0   0.99958
    7.1     2.00000    -0.60773     1  2  s    0.97340
    1.2     2.00000    -5.27628     1  1  py   1.00040
    2.2     2.00000    -5.27628     1  1  px   1.00042
    3.2     2.00000    -5.27628     1  1  pz   1.00040
    4.2     2.00000    -0.12599     1  1  py  -0.32248    1  4  py   0.40596    1  5  py   0.45491    1  6  py   0.25437
    5.2     2.00000    -0.12599     1  1  px  -0.32248    1  4  px   0.40596    1  5  px   0.45491    1  6  px   0.25437
    6.2     2.00000    -0.12599     1  1  pz  -0.32248    1  4  pz   0.40596    1  5  pz   0.45491    1  6  pz   0.25437


 HOMO      6.2    -0.125989 =      -3.4283eV
 LUMO      7.2     0.097564 =       2.6549eV
 LUMO-HOMO         0.223553 =       6.0832eV

 Orbitals saved in record  2100.2


 **********************************************************************************************************************************
 DATASETS  * FILE   NREC   LENGTH (MB)   RECORD NAMES
              1      19       29.52       500      610      700      900      950      970     1000      129      960     1100   
                                          VAR    BASINP    GEOM    SYMINP    ZMAT    AOBASIS   BASIS     P2S    ABASIS      S 
                                         1400     1410     1420     1200     1210     1080     1700     1600     1650   
                                           T        V       ECP      H0       H01     AOSYM    OPER      SMH    MOLCAS    

              2       4        0.67       700     1000      520     2100   
                                         GEOM     BASIS   MCVARS     RHF  

 PROGRAMS   *        TOTAL   RHF-SCF       INT
 CPU TIMES  *         3.63      0.47      2.96
 REAL TIME  *         6.31 SEC
 DISK USED  *        31.41 MB (local),      534.35 MB (total)
 GA USED    *         0.00 MB       (max)       0.00 MB       (current)
 **********************************************************************************************************************************
 SETTING NDOUB          =        12.00000000                                  
 SETTING NQUAR          =         9.00000000                                  

 PROGRAM * MULTI (Direct Multiconfiguration SCF)       Authors: P.J. Knowles, H.-J. Werner (1984)
                                                                D.A. Kreplin, P.J. Knowles, H.-J. Werner (2019)

 Number of closed-shell orbitals:   9 (    6    3)
 Number of active  orbitals:        7 (    1    6)
 Number of external orbitals:     169 (   85   84)

 State symmetry 1

 Number of active electrons:   7    Spin symmetry=Doublet   Space symmetry=2
 Number of states:            12
 Number of CSFs:             420   (600 determinants, 1225 intermediate states)

 State symmetry 2

 Number of active electrons:   7    Spin symmetry=Quartet   Space symmetry=2
 Number of states:             9
 Number of CSFs:             168   (180 determinants, 441 intermediate states)

 Molecular orbitals read from record     2100.2  Type=RHF/CANONICAL  
 *** IN SYMMETRY 1 ORBITAL  2 SYMMETRY CONTAMINATION OF 0.472D+00 HAS BEEN REMOVED
 *** IN SYMMETRY 1 ORBITAL  3 SYMMETRY CONTAMINATION OF 0.332D+00 HAS BEEN REMOVED
 *** IN SYMMETRY 1 ORBITAL  4 SYMMETRY CONTAMINATION OF 0.352D+00 HAS BEEN REMOVED
 *** IN SYMMETRY 1 ORBITAL  5 SYMMETRY CONTAMINATION OF 0.304D+00 HAS BEEN REMOVED
 *** IN SYMMETRY 1 ORBITAL  6 SYMMETRY CONTAMINATION OF 0.308D-03 HAS BEEN REMOVED

 EXTRA SYMMETRY OF MOS IN SYMMETRY 1:   1 4 5 3 6 2 1 1 3 5   4 6 2 1 3 5 2 4 6 1   4 6 2 5 31415 7 812  11 91310 1 2 4 6 3 5
                                       141512 8 911 71310 2   4 6 3 5 1 812 71514  1311 910 2 6 4 3 5 1   812151411 91310 7 2
                                        6 4 3 5 1 2 6 3 4 5   1 1
 *** IN SYMMETRY 2 ORBITAL  1 SYMMETRY CONTAMINATION OF 0.648D-02 HAS BEEN REMOVED
 *** IN SYMMETRY 2 ORBITAL  3 SYMMETRY CONTAMINATION OF 0.648D-02 HAS BEEN REMOVED
 *** IN SYMMETRY 2 ORBITAL  4 SYMMETRY CONTAMINATION OF 0.226D-03 HAS BEEN REMOVED
 *** IN SYMMETRY 2 ORBITAL  6 SYMMETRY CONTAMINATION OF 0.226D-03 HAS BEEN REMOVED
 *** IN SYMMETRY 2 ORBITAL  7 SYMMETRY CONTAMINATION OF 0.778D-01 HAS BEEN REMOVED
 *** IN SYMMETRY 2 ORBITAL  8 SYMMETRY CONTAMINATION OF 0.405D-01 HAS BEEN REMOVED
 *** IN SYMMETRY 2 ORBITAL  9 SYMMETRY CONTAMINATION OF 0.420D-01 HAS BEEN REMOVED
 EXTRA SYMMETRY OF MOS IN SYMMETRY 2:   2 1 3 2 1 3 1 2 3 1   2 3 9 7 810 6 5 4 1   2 310 8 7 9 6 5 4 1   2 3 810 7 9 5 4 6 8
                                       10 5 4 7 9 6 1 2 310   8 6 5 4 7 914161915  1718202113111210 8 7   9 5 4 6 1 2 3 2 1 3
                                        9 7 810 6 5 4 2 3 1   2 1 3

 Wavefunction dump at record             2140.2

 Convergence thresholds  0.10E-04 (gradient)  0.10E-05 (energy)

 Weight factors for state symmetry  1:    0.31429   0.31429   0.31429   0.00317   0.00317   0.00317   0.00317   0.00317
                                          0.00317   0.00317   0.00317   0.00317
 Weight factors for state symmetry  2:    0.00317   0.00317   0.00317   0.00317   0.00317   0.00317   0.00317   0.00317
                                          0.00317
 
 Number of orbital rotations:  1375  ( 24 closed/active, 762 closed/virtual, 0 active/active, 589 active/virtual )
 Total number of variables:    10195
 
 Second-order MCSCF: L-BFGS accelerated
 
 ITER  MIC  NCI  NEG     ENERGY(VAR)    ENERGY(PROJ) ENERGY CHANGE       GRAD(0)  GRAD(ORB)   GRAD(CI)      STEP      TIME
   1   14   41    0   -294.59996731    -294.65568321   -0.05571590    0.24901320 0.00086576 0.00599970  0.16E+01      2.45
   2    9   28    0   -294.63802515    -294.64235365   -0.00432850    0.18011571 0.00011800 0.00142050  0.53E+00      4.67
   3    8   25    0   -294.64237065    -294.64237090   -0.00000025    0.00129671 0.00000099 0.00000077  0.28E-02      6.66
   4    3    8    0   -294.64237090    -294.64237090   -0.00000000    0.00000008 0.00000001 0.00000006  0.40E-06      8.32

 CONVERGENCE REACHED!  Final gradient:    0.00000003 ( 0.29E-07)
                       Final energy:   -294.64237090
 
 Results for state 1.2 Doublet
 =============================
 !MCSCF STATE 1.2 Doublet Energy              -294.662854358846
 Nuclear energy                                  0.00000000
 Kinetic energy                                110.78335955
 One electron energy                          -513.49776692
 Two electron energy                           218.83491256
 Virial ratio                                    3.65981151
 
 !MCSCF STATE 1.2 Doublet Dipole moment          0.00000000     0.00000000     0.00000000
 Dipole moment /Debye                            0.00000000     0.00000000     0.00000000
 
 Results for state 2.2 Doublet
 =============================
 !MCSCF STATE 2.2 Doublet Energy              -294.662854358822
 Nuclear energy                                  0.00000000
 Kinetic energy                                110.78335955
 One electron energy                          -513.49776692
 Two electron energy                           218.83491256
 Virial ratio                                    3.65981151
 
 !MCSCF STATE 2.2 Doublet Dipole moment          0.00000000     0.00000000     0.00000000
 Dipole moment /Debye                            0.00000000     0.00000000     0.00000000
 
 Results for state 3.2 Doublet
 =============================
 !MCSCF STATE 3.2 Doublet Energy              -294.662854358635
 Nuclear energy                                  0.00000000
 Kinetic energy                                110.78335956
 One electron energy                          -513.49776693
 Two electron energy                           218.83491257
 Virial ratio                                    3.65981151
 
 !MCSCF STATE 3.2 Doublet Dipole moment          0.00000000     0.00000000     0.00000000
 Dipole moment /Debye                            0.00000000     0.00000000     0.00000000
 
 Results for state 4.2 Doublet
 =============================
 !MCSCF STATE 4.2 Doublet Energy              -294.301537712246
 Nuclear energy                                  0.00000000
 Kinetic energy                                110.68316833
 One electron energy                          -509.91629880
 Two electron energy                           215.61476109
 Virial ratio                                    3.65895476
 
 !MCSCF STATE 4.2 Doublet Dipole moment          0.00000000     0.00000000     0.00000000
 Dipole moment /Debye                            0.00000000     0.00000000     0.00000000
 
 Results for state 5.2 Doublet
 =============================
 !MCSCF STATE 5.2 Doublet Energy              -294.301537708228
 Nuclear energy                                  0.00000000
 Kinetic energy                                110.68316832
 One electron energy                          -509.91629879
 Two electron energy                           215.61476109
 Virial ratio                                    3.65895476
 
 !MCSCF STATE 5.2 Doublet Dipole moment          0.00000000     0.00000000     0.00000000
 Dipole moment /Debye                            0.00000000     0.00000000     0.00000000
 
 Results for state 6.2 Doublet
 =============================
 !MCSCF STATE 6.2 Doublet Energy              -294.301537707716
 Nuclear energy                                  0.00000000
 Kinetic energy                                110.68316832
 One electron energy                          -509.91629879
 Two electron energy                           215.61476109
 Virial ratio                                    3.65895476
 
 !MCSCF STATE 6.2 Doublet Dipole moment          0.00000000     0.00000000     0.00000000
 Dipole moment /Debye                            0.00000000     0.00000000     0.00000000
 
 Results for state 7.2 Doublet
 =============================
 !MCSCF STATE 7.2 Doublet Energy              -294.295447944005
 Nuclear energy                                  0.00000000
 Kinetic energy                                110.77928323
 One electron energy                          -510.22327019
 Two electron energy                           215.92782225
 Virial ratio                                    3.65659282
 
 !MCSCF STATE 7.2 Doublet Dipole moment          0.00000000     0.00000000     0.00000000
 Dipole moment /Debye                            0.00000000     0.00000000     0.00000000
 
 Results for state 8.2 Doublet
 =============================
 !MCSCF STATE 8.2 Doublet Energy              -294.295447943965
 Nuclear energy                                  0.00000000
 Kinetic energy                                110.77928323
 One electron energy                          -510.22327019
 Two electron energy                           215.92782225
 Virial ratio                                    3.65659282
 
 !MCSCF STATE 8.2 Doublet Dipole moment          0.00000000     0.00000000     0.00000000
 Dipole moment /Debye                            0.00000000     0.00000000     0.00000000
 
 Results for state 9.2 Doublet
 =============================
 !MCSCF STATE 9.2 Doublet Energy              -294.295447933526
 Nuclear energy                                  0.00000000
 Kinetic energy                                110.77928327
 One electron energy                          -510.22327034
 Two electron energy                           215.92782241
 Virial ratio                                    3.65659281
 
 !MCSCF STATE 9.2 Doublet Dipole moment          0.00000000     0.00000000     0.00000000
 Dipole moment /Debye                            0.00000000     0.00000000     0.00000000
 
 Results for state 10.2 Doublet
 ==============================
 !MCSCF STATE 10.2 Doublet Energy             -294.295447932197
 Nuclear energy                                  0.00000000
 Kinetic energy                                110.77928328
 One electron energy                          -510.22327036
 Two electron energy                           215.92782243
 Virial ratio                                    3.65659281
 
 !MCSCF STATE 10.2 Doublet Dipole moment         0.00000000     0.00000000     0.00000000
 Dipole moment /Debye                            0.00000000     0.00000000     0.00000000
 
 Results for state 11.2 Doublet
 ==============================
 !MCSCF STATE 11.2 Doublet Energy             -294.295447929121
 Nuclear energy                                  0.00000000
 Kinetic energy                                110.77928329
 One electron energy                          -510.22327041
 Two electron energy                           215.92782248
 Virial ratio                                    3.65659281
 
 !MCSCF STATE 11.2 Doublet Dipole moment         0.00000000     0.00000000     0.00000000
 Dipole moment /Debye                            0.00000000     0.00000000     0.00000000
 
 Results for state 12.2 Doublet
 ==============================
 !MCSCF STATE 12.2 Doublet Energy             -294.282573187473
 Nuclear energy                                  0.00000000
 Kinetic energy                                110.76610561
 One electron energy                          -510.18468465
 Two electron energy                           215.90211146
 Virial ratio                                    3.65679263
 
 !MCSCF STATE 12.2 Doublet Dipole moment         0.00000000     0.00000000     0.00000000
 Dipole moment /Debye                            0.00000000     0.00000000     0.00000000
 
 Results for state 1.2 Quartet
 =============================
 !MCSCF STATE 1.2 Quartet Energy              -294.327720051204
 Nuclear energy                                  0.00000000
 Kinetic energy                                110.68368674
 One electron energy                          -509.91336939
 Two electron energy                           215.58564934
 Virial ratio                                    3.65917886
 
 !MCSCF STATE 1.2 Quartet Dipole moment          0.00000000     0.00000000     0.00000000
 Dipole moment /Debye                            0.00000000     0.00000000     0.00000000
 
 Results for state 2.2 Quartet
 =============================
 !MCSCF STATE 2.2 Quartet Energy              -294.327720042707
 Nuclear energy                                  0.00000000
 Kinetic energy                                110.68368677
 One electron energy                          -509.91336953
 Two electron energy                           215.58564949
 Virial ratio                                    3.65917886
 
 !MCSCF STATE 2.2 Quartet Dipole moment          0.00000000     0.00000000     0.00000000
 Dipole moment /Debye                            0.00000000     0.00000000     0.00000000
 
 Results for state 3.2 Quartet
 =============================
 !MCSCF STATE 3.2 Quartet Energy              -294.327720041626
 Nuclear energy                                  0.00000000
 Kinetic energy                                110.68368678
 One electron energy                          -509.91336955
 Two electron energy                           215.58564951
 Virial ratio                                    3.65917886
 
 !MCSCF STATE 3.2 Quartet Dipole moment          0.00000000     0.00000000     0.00000000
 Dipole moment /Debye                            0.00000000     0.00000000     0.00000000
 
 Results for state 4.2 Quartet
 =============================
 !MCSCF STATE 4.2 Quartet Energy              -294.309447730297
 Nuclear energy                                  0.00000000
 Kinetic energy                                110.71696943
 One electron energy                          -510.02457364
 Two electron energy                           215.71512591
 Virial ratio                                    3.65821445
 
 !MCSCF STATE 4.2 Quartet Dipole moment          0.00000000     0.00000000     0.00000000
 Dipole moment /Debye                            0.00000000     0.00000000     0.00000000
 
 Results for state 5.2 Quartet
 =============================
 !MCSCF STATE 5.2 Quartet Energy              -294.309447730262
 Nuclear energy                                  0.00000000
 Kinetic energy                                110.71696943
 One electron energy                          -510.02457364
 Two electron energy                           215.71512591
 Virial ratio                                    3.65821445
 
 !MCSCF STATE 5.2 Quartet Dipole moment          0.00000000     0.00000000     0.00000000
 Dipole moment /Debye                            0.00000000     0.00000000     0.00000000
 
 Results for state 6.2 Quartet
 =============================
 !MCSCF STATE 6.2 Quartet Energy              -294.309447720777
 Nuclear energy                                  0.00000000
 Kinetic energy                                110.71696947
 One electron energy                          -510.02457379
 Two electron energy                           215.71512606
 Virial ratio                                    3.65821445
 
 !MCSCF STATE 6.2 Quartet Dipole moment          0.00000000     0.00000000     0.00000000
 Dipole moment /Debye                            0.00000000     0.00000000     0.00000000
 
 Results for state 7.2 Quartet
 =============================
 !MCSCF STATE 7.2 Quartet Energy              -294.309447719570
 Nuclear energy                                  0.00000000
 Kinetic energy                                110.71696947
 One electron energy                          -510.02457380
 Two electron energy                           215.71512609
 Virial ratio                                    3.65821445
 
 !MCSCF STATE 7.2 Quartet Dipole moment          0.00000000     0.00000000     0.00000000
 Dipole moment /Debye                            0.00000000     0.00000000     0.00000000
 
 Results for state 8.2 Quartet
 =============================
 !MCSCF STATE 8.2 Quartet Energy              -294.309447716775
 Nuclear energy                                  0.00000000
 Kinetic energy                                110.71696948
 One electron energy                          -510.02457385
 Two electron energy                           215.71512613
 Virial ratio                                    3.65821445
 
 !MCSCF STATE 8.2 Quartet Dipole moment          0.00000000     0.00000000     0.00000000
 Dipole moment /Debye                            0.00000000     0.00000000     0.00000000
 
 Results for state 9.2 Quartet
 =============================
 !MCSCF STATE 9.2 Quartet Energy              -294.284265620612
 Nuclear energy                                  0.00000000
 Kinetic energy                                110.75079942
 One electron energy                          -510.12800596
 Two electron energy                           215.84374033
 Virial ratio                                    3.65717509
 
 !MCSCF STATE 9.2 Quartet Dipole moment          0.00000000     0.00000000     0.00000000
 Dipole moment /Debye                            0.00000000     0.00000000     0.00000000
 
 State-averaged charge density matrix saved on record 2140.2 (density set 1)
 
 No non-zero expectation values
 
 Expectation values for two-electron operators:
 
 ? Warning
 ? Transition properties are only calculated between states of the same symmetry
 ? The problem occurs in mu_properties_expec2

 !MCSCF expec      <1.2 Doublet|LXLX|1.2 Doublet>     0.999999996163
 !MCSCF expec      <2.2 Doublet|LXLX|2.2 Doublet>     0.999999999993
 !MCSCF expec      <3.2 Doublet|LXLX|3.2 Doublet>     0.000000003843
 !MCSCF expec      <4.2 Doublet|LXLX|4.2 Doublet>     0.000000000000
 !MCSCF expec      <5.2 Doublet|LXLX|5.2 Doublet>     1.000000000000
 !MCSCF expec      <6.2 Doublet|LXLX|6.2 Doublet>     1.000000000000
 !MCSCF expec      <7.2 Doublet|LXLX|7.2 Doublet>     3.989349468054
 !MCSCF expec      <8.2 Doublet|LXLX|8.2 Doublet>     3.999999999991
 !MCSCF expec      <9.2 Doublet|LXLX|9.2 Doublet>     1.000000000000
 !MCSCF expec    <10.2 Doublet|LXLX|10.2 Doublet>     1.000000000000
 !MCSCF expec    <11.2 Doublet|LXLX|11.2 Doublet>     0.010650531955
 !MCSCF expec    <12.2 Doublet|LXLX|12.2 Doublet>     0.000000000000
 !MCSCF expec      <1.2 Quartet|LXLX|1.2 Quartet>     0.000000000001
 !MCSCF expec      <2.2 Quartet|LXLX|2.2 Quartet>     1.000000000000
 !MCSCF expec      <3.2 Quartet|LXLX|3.2 Quartet>     0.999999999999
 !MCSCF expec      <4.2 Quartet|LXLX|4.2 Quartet>     3.989357222793
 !MCSCF expec      <5.2 Quartet|LXLX|5.2 Quartet>     3.999999999968
 !MCSCF expec      <6.2 Quartet|LXLX|6.2 Quartet>     1.000000000000
 !MCSCF expec      <7.2 Quartet|LXLX|7.2 Quartet>     1.000000000028
 !MCSCF expec      <8.2 Quartet|LXLX|8.2 Quartet>     0.010642713031
 !MCSCF expec      <9.2 Quartet|LXLX|9.2 Quartet>     0.000000000000
 
 !MCSCF expec      <1.2 Doublet|LYLY|1.2 Doublet>     0.999999967810
 !MCSCF expec      <2.2 Doublet|LYLY|2.2 Doublet>     0.000000032197
 !MCSCF expec      <3.2 Doublet|LYLY|3.2 Doublet>     0.999999999993
 !MCSCF expec      <4.2 Doublet|LYLY|4.2 Doublet>     1.000000000000
 !MCSCF expec      <5.2 Doublet|LYLY|5.2 Doublet>     0.000000000008
 !MCSCF expec      <6.2 Doublet|LYLY|6.2 Doublet>     1.000000000000
 !MCSCF expec      <7.2 Doublet|LYLY|7.2 Doublet>     1.183837227591
 !MCSCF expec      <8.2 Doublet|LYLY|8.2 Doublet>     1.000000000141
 !MCSCF expec      <9.2 Doublet|LYLY|9.2 Doublet>     3.999999999979
 !MCSCF expec    <10.2 Doublet|LYLY|10.2 Doublet>     1.000000000013
 !MCSCF expec    <11.2 Doublet|LYLY|11.2 Doublet>     2.816162772265
 !MCSCF expec    <12.2 Doublet|LYLY|12.2 Doublet>     0.000000000002
 !MCSCF expec      <1.2 Quartet|LYLY|1.2 Quartet>     1.000000000000
 !MCSCF expec      <2.2 Quartet|LYLY|2.2 Quartet>     0.000000000001
 !MCSCF expec      <3.2 Quartet|LYLY|3.2 Quartet>     1.000000000000
 !MCSCF expec      <4.2 Quartet|LYLY|4.2 Quartet>     1.183768523883
 !MCSCF expec      <5.2 Quartet|LYLY|5.2 Quartet>     1.000000000000
 !MCSCF expec      <6.2 Quartet|LYLY|6.2 Quartet>     3.999999999998
 !MCSCF expec      <7.2 Quartet|LYLY|7.2 Quartet>     1.000000000002
 !MCSCF expec      <8.2 Quartet|LYLY|8.2 Quartet>     2.816232044788
 !MCSCF expec      <9.2 Quartet|LYLY|9.2 Quartet>     0.000000000001
 
 !MCSCF expec      <1.2 Doublet|LZLZ|1.2 Doublet>     0.000000036027
 !MCSCF expec      <2.2 Doublet|LZLZ|2.2 Doublet>     0.999999967810
 !MCSCF expec      <3.2 Doublet|LZLZ|3.2 Doublet>     0.999999996163
 !MCSCF expec      <4.2 Doublet|LZLZ|4.2 Doublet>     1.000000000000
 !MCSCF expec      <5.2 Doublet|LZLZ|5.2 Doublet>     1.000000000000
 !MCSCF expec      <6.2 Doublet|LZLZ|6.2 Doublet>     0.000000000006
 !MCSCF expec      <7.2 Doublet|LZLZ|7.2 Doublet>     0.826813304354
 !MCSCF expec      <8.2 Doublet|LZLZ|8.2 Doublet>     0.999999999867
 !MCSCF expec      <9.2 Doublet|LZLZ|9.2 Doublet>     1.000000000012
 !MCSCF expec    <10.2 Doublet|LZLZ|10.2 Doublet>     3.999999999981
 !MCSCF expec    <11.2 Doublet|LZLZ|11.2 Doublet>     3.173186695776
 !MCSCF expec    <12.2 Doublet|LZLZ|12.2 Doublet>     0.000000000002
 !MCSCF expec      <1.2 Quartet|LZLZ|1.2 Quartet>     0.999999999999
 !MCSCF expec      <2.2 Quartet|LZLZ|2.2 Quartet>     1.000000000000
 !MCSCF expec      <3.2 Quartet|LZLZ|3.2 Quartet>     0.000000000002
 !MCSCF expec      <4.2 Quartet|LZLZ|4.2 Quartet>     0.826874253323
 !MCSCF expec      <5.2 Quartet|LZLZ|5.2 Quartet>     1.000000000032
 !MCSCF expec      <6.2 Quartet|LZLZ|6.2 Quartet>     1.000000000000
 !MCSCF expec      <7.2 Quartet|LZLZ|7.2 Quartet>     3.999999999969
 !MCSCF expec      <8.2 Quartet|LZLZ|8.2 Quartet>     3.173125242180
 !MCSCF expec      <9.2 Quartet|LZLZ|9.2 Quartet>     0.000000000000
 
 !MCSCF expec      <1.2 Doublet|L**2|1.2 Doublet>     2.000000000000
 !MCSCF expec      <2.2 Doublet|L**2|2.2 Doublet>     2.000000000000
 !MCSCF expec      <3.2 Doublet|L**2|3.2 Doublet>     2.000000000000
 !MCSCF expec      <4.2 Doublet|L**2|4.2 Doublet>     2.000000000000
 !MCSCF expec      <5.2 Doublet|L**2|5.2 Doublet>     2.000000000008
 !MCSCF expec      <6.2 Doublet|L**2|6.2 Doublet>     2.000000000006
 !MCSCF expec      <7.2 Doublet|L**2|7.2 Doublet>     5.999999999999
 !MCSCF expec      <8.2 Doublet|L**2|8.2 Doublet>     5.999999999999
 !MCSCF expec      <9.2 Doublet|L**2|9.2 Doublet>     5.999999999992
 !MCSCF expec    <10.2 Doublet|L**2|10.2 Doublet>     5.999999999993
 !MCSCF expec    <11.2 Doublet|L**2|11.2 Doublet>     5.999999999995
 !MCSCF expec    <12.2 Doublet|L**2|12.2 Doublet>     0.000000000004
 !MCSCF expec      <1.2 Quartet|L**2|1.2 Quartet>     2.000000000000
 !MCSCF expec      <2.2 Quartet|L**2|2.2 Quartet>     2.000000000001
 !MCSCF expec      <3.2 Quartet|L**2|3.2 Quartet>     2.000000000001
 !MCSCF expec      <4.2 Quartet|L**2|4.2 Quartet>     6.000000000000
 !MCSCF expec      <5.2 Quartet|L**2|5.2 Quartet>     6.000000000000
 !MCSCF expec      <6.2 Quartet|L**2|6.2 Quartet>     5.999999999998
 !MCSCF expec      <7.2 Quartet|L**2|7.2 Quartet>     5.999999999999
 !MCSCF expec      <8.2 Quartet|L**2|8.2 Quartet>     5.999999999999
 !MCSCF expec      <9.2 Quartet|L**2|9.2 Quartet>     0.000000000001
 
 EXTRA SYMMETRY OF MOS IN SYMMETRY 1:   1 6 2 3 5 4 1 1 6 3   5 2 4 1 3 5 4 6 2 1   6 2 3 5 411 71415 8  121310 9 1 2 6 3 5 4
                                       11 812 715141310 9 2   6 4 3 5 111 7 81215  141310 9 2 6 4 3 5 1  11 812 715141310 9 2
                                        6 4 3 5 1 2 6 4 3 5   1 1
 EXTRA SYMMETRY OF MOS IN SYMMETRY 2:   2 3 1 1 3 2 3 2 1 1   2 3 7 9 810 6 4 5 1   2 3 7 910 8 5 6 4 1   2 3 5 810 7 9 6 4 5
                                        810 6 7 9 4 1 2 3 5  10 8 6 7 9 412192113  14161517201811 510 8   6 7 9 4 2 3 1 2 3 1
                                        5 6 810 7 9 4 2 3 1   2 3 1
 
  NATURAL ORBITALS (STATE AVERAGED)
  =================================

  Orbital  Occupation    Energy    Cen Mu Typ  Coefficients
    1.1     2.00000    -7.76029     1  1  s    1.00221
    2.1     2.00000    -2.31259     1  1  d1-  1.00005
    3.1     2.00000    -2.31259     1  1  d0   1.00005
    4.1     2.00000    -2.31259     1  1  d2-  1.00005
    5.1     2.00000    -2.31259     1  1  d2+  1.00005
    6.1     2.00000    -2.31259     1  1  d1+  1.00005
    7.1     1.99876    -0.88669     1  2  s    1.00276
    1.2     2.00000    -5.58512     1  1  py   0.99982
    2.2     2.00000    -5.58512     1  1  pz   0.99982
    3.2     2.00000    -5.58512     1  1  px   0.99982
    4.2     1.64294    -0.34958     1  1  px  -0.34859    1  4  px   0.45928    1  5  px   0.49388
    5.2     1.64294    -0.34958     1  1  pz  -0.34859    1  4  pz   0.45928    1  5  pz   0.49388
    6.2     1.64294    -0.34958     1  1  py  -0.34859    1  4  py   0.45928    1  5  py   0.49388
    7.2     0.02414     0.20498     1  1  pz   0.26088    1  4  pz  -0.59335    1  5  pz  -0.27312    1  6  pz   0.75434
                                    1 10  pz   0.43802
    8.2     0.02414     0.20498     1  1  py   0.26088    1  4  py  -0.59335    1  5  py  -0.27312    1  6  py   0.75434
                                    1 10  py   0.43802
    9.2     0.02414     0.20498     1  1  px   0.26088    1  4  px  -0.59335    1  5  px  -0.27312    1  6  px   0.75434
                                    1 10  px   0.43802
 
 Natural orbital dump (state averaged) at molpro section 2140.2 (Orbital set 2)
 
 Transform the CI vectors
 
 CI Coefficients of symmetry 2 (Doublet)
 =======================================

 State:              1               2               3               4               5               6               7
 2 a22000       0.00006168     -0.00000256      0.99573654      0.04036290      0.00000001      0.00000001     -0.00000000
 2 22a000       0.00017865      0.99573652      0.00000255      0.00000001     -0.04036290      0.00000002     -0.00000000
 2 2a2000       0.99573652     -0.00017865     -0.00006168     -0.00000001      0.00000002      0.04036290     -0.00000000
 2 2aa00b       0.00000000     -0.00000000      0.00000000      0.00000000     -0.00000000     -0.00000000      0.03388898
 2 a2ab00       0.00000000      0.00000000     -0.00000000     -0.00000000      0.00000000      0.00000000      0.58495360
 2 a2a00b      -0.00000315     -0.01756780     -0.00000005      0.00000008     -0.40612166      0.00000019     -0.00000004
 2 aa200b      -0.01756780      0.00000315      0.00000109     -0.00000011      0.00000019      0.40612174      0.00000001
 2 a2a0b0       0.00000109     -0.00000005      0.01756780     -0.40612239     -0.00000008     -0.00000011      0.00001547
 2 aa2b00       0.00000109     -0.00000005      0.01756780     -0.40612257     -0.00000008     -0.00000011     -0.00001547
 2 2aa0b0       0.01756780     -0.00000315     -0.00000109      0.00000011     -0.00000019     -0.40612315      0.00000001
 2 2aab00      -0.00000315     -0.01756780     -0.00000005      0.00000008     -0.40612324      0.00000019      0.00000004
 2 aa20b0      -0.00000000     -0.00000000      0.00000000     -0.00000000     -0.00000000      0.00000000      0.55106445
 2 2aba00       0.00000283      0.01576121      0.00000004     -0.00000010      0.46397828     -0.00000022     -0.00000002
 2 2ba0a0      -0.01576121      0.00000283      0.00000098     -0.00000012      0.00000022      0.46397822     -0.00000001
 2 ba2a00      -0.00000098      0.00000004     -0.01576121      0.46397792      0.00000010      0.00000012      0.00000836
 2 b2a0a0      -0.00000098      0.00000004     -0.01576121      0.46397781      0.00000010      0.00000012     -0.00000836
 2 ab200a       0.01576121     -0.00000283     -0.00000098      0.00000012     -0.00000022     -0.46397737     -0.00000001
 2 a2b00a       0.00000283      0.01576121      0.00000004     -0.00000010      0.46397732     -0.00000022      0.00000002
 2 202a00      -0.02048649      0.00000368      0.00000127     -0.00000012      0.00000022      0.45631825     -0.00000000
 2 2200a0      -0.00000368     -0.02048649     -0.00000005      0.00000009     -0.45631823      0.00000022     -0.00000000
 2 02200a      -0.00000127      0.00000005     -0.02048649      0.45631805      0.00000009      0.00000012     -0.00000000
 2 2ba00a      -0.00000000      0.00000000      0.00000000     -0.00000000     -0.00000000      0.00000000      0.02849461
 2 2ab00a       0.00000000      0.00000000     -0.00000000      0.00000000      0.00000000     -0.00000000     -0.06238358
 2 b2aa00       0.00000000     -0.00000000      0.00000000      0.00000000      0.00000000     -0.00000000     -0.31316309
 2 ba20a0      -0.00000000      0.00000000     -0.00000000      0.00000000     -0.00000000     -0.00000000     -0.30028505
 2 a2ba00      -0.00000000     -0.00000000      0.00000000      0.00000000     -0.00000000     -0.00000000     -0.27179051
 2 2baa00       0.00000032      0.00180660      0.00000000      0.00000001     -0.05785504      0.00000003     -0.00000002
 2 2ab0a0      -0.00180660      0.00000032      0.00000011      0.00000002     -0.00000003     -0.05785507     -0.00000001
 2 ab2a00      -0.00000011      0.00000000     -0.00180660     -0.05785535     -0.00000001     -0.00000001      0.00000712
 2 a2b0a0      -0.00000011      0.00000000     -0.00180660     -0.05785542     -0.00000001     -0.00000002     -0.00000712
 2 ba200a       0.00180660     -0.00000032     -0.00000011     -0.00000001      0.00000003      0.05785562     -0.00000001
 2 b2a00a       0.00000032      0.00180660      0.00000000      0.00000001     -0.05785566      0.00000003      0.00000002
 2 ab20a0       0.00000000      0.00000000     -0.00000000      0.00000000      0.00000000      0.00000000     -0.25077940
 2 02a002      -0.00000599     -0.03340460     -0.00000009      0.00000001     -0.03485556      0.00000002     -0.00000001
 2 0a2002      -0.03340460      0.00000599      0.00000207     -0.00000001      0.00000002      0.03485557      0.00000000
 2 a20020      -0.00000207      0.00000009     -0.03340460      0.03485565      0.00000001      0.00000001     -0.00000207
 2 a02200      -0.00000207      0.00000009     -0.03340460      0.03485568      0.00000001      0.00000001      0.00000207
 2 2a0020      -0.03340460      0.00000599      0.00000207     -0.00000001      0.00000002      0.03485575     -0.00000000
 2 20a200      -0.00000599     -0.03340459     -0.00000009      0.00000001     -0.03485577      0.00000002      0.00000001
 2 220a00      -0.00653188      0.00000117      0.00000040      0.00000002     -0.00000003     -0.06551507      0.00000000
 2 2020a0      -0.00000117     -0.00653188     -0.00000002     -0.00000001      0.06551506     -0.00000003     -0.00000000
 2 022a00      -0.00653188      0.00000117      0.00000040      0.00000002     -0.00000003     -0.06551499     -0.00000000
 2 0220a0      -0.00000117     -0.00653188     -0.00000002     -0.00000001      0.06551498     -0.00000003      0.00000000
 2 20200a      -0.00000040      0.00000002     -0.00653188     -0.06551497     -0.00000001     -0.00000002     -0.00000124
 2 22000a      -0.00000040      0.00000002     -0.00653188     -0.06551496     -0.00000001     -0.00000002      0.00000124
 2 2a00ab      -0.00000000      0.00000000      0.00000000     -0.00000000      0.00000000      0.00000000     -0.00141923
 2 20aa0b      -0.00000000     -0.00000000     -0.00000000      0.00000000     -0.00000000     -0.00000000      0.00455573
 2 baa002      -0.00000000     -0.00000000     -0.00000000      0.00000000     -0.00000000     -0.00000000      0.00294306
 2 a20ba0       0.00000000      0.00000000      0.00000000     -0.00000000      0.00000000      0.00000000      0.05228049
 2 02ab0a      -0.00000000     -0.00000000     -0.00000000      0.00000000     -0.00000000     -0.00000000     -0.05085258
 2 aba200      -0.00000000     -0.00000000     -0.00000000      0.00000000     -0.00000000     -0.00000000     -0.05079977
 
 Energy:     -294.66285436   -294.66285436   -294.66285436   -294.30153771   -294.30153771   -294.30153771   -294.29544794

 State:              8               9              10              11              12
 2 a22000      -0.00000001      0.00000000     -0.00000000     -0.00000000     -0.00000000
 2 22a000       0.00000000      0.00000005      0.00000000     -0.00000000      0.00000000
 2 2a2000      -0.00000000     -0.00000000      0.00000005      0.00000000      0.00000000
 2 2aa00b      -0.00000095      0.00000025     -0.00000035      0.65587994      0.46636247
 2 a2ab00      -0.00001593      0.00000015     -0.00000017      0.29859178     -0.46636160
 2 a2a00b      -0.00000000      0.56876726      0.00000115     -0.00000022     -0.00000000
 2 aa200b      -0.00000007     -0.00000115      0.56876720      0.00000031      0.00000000
 2 a2a0b0       0.56876680      0.00000000      0.00000007      0.00000003     -0.00000000
 2 aa2b00      -0.56876668     -0.00000000     -0.00000007     -0.00000003      0.00000000
 2 2aa0b0      -0.00000007     -0.00000115      0.56876627      0.00000031      0.00000000
 2 2aab00       0.00000000     -0.56876622     -0.00000115      0.00000022     -0.00000000
 2 aa20b0      -0.00001497     -0.00000010      0.00000018     -0.35728931      0.46636170
 2 2aba00      -0.00000000      0.30713258      0.00000062     -0.00000012      0.00000000
 2 2ba0a0       0.00000004      0.00000062     -0.30713265     -0.00000016      0.00000000
 2 ba2a00       0.30713316      0.00000000      0.00000004      0.00000002     -0.00000000
 2 b2a0a0      -0.30713331     -0.00000000     -0.00000004     -0.00000002      0.00000000
 2 ab200a       0.00000004      0.00000062     -0.30713381     -0.00000016      0.00000000
 2 a2b00a       0.00000000     -0.30713388     -0.00000062      0.00000012      0.00000000
 2 202a00       0.00000000     -0.00000000      0.00000061      0.00000000      0.00000000
 2 2200a0       0.00000000      0.00000069      0.00000000     -0.00000000     -0.00000000
 2 02200a      -0.00000008      0.00000000     -0.00000000      0.00000000     -0.00000000
 2 2ba00a      -0.00000076     -0.00000012      0.00000018     -0.33028779     -0.23318123
 2 2ab00a       0.00000171     -0.00000013      0.00000018     -0.32559215     -0.23318124
 2 b2aa00       0.00000852     -0.00000006      0.00000007     -0.10877054      0.23318084
 2 ba20a0       0.00000816      0.00000003     -0.00000007      0.14046713     -0.23318090
 2 a2ba00       0.00000740     -0.00000009      0.00000011     -0.18982124      0.23318076
 2 2baa00      -0.00000000      0.26163364      0.00000053     -0.00000010      0.00000000
 2 2ab0a0       0.00000003      0.00000053     -0.26163362     -0.00000014     -0.00000000
 2 ab2a00       0.26163352      0.00000000      0.00000003      0.00000001      0.00000000
 2 a2b0a0      -0.26163349     -0.00000000     -0.00000003     -0.00000001      0.00000000
 2 ba200a       0.00000003      0.00000053     -0.26163339     -0.00000014     -0.00000000
 2 b2a00a       0.00000000     -0.26163337     -0.00000053      0.00000010      0.00000000
 2 ab20a0       0.00000681      0.00000007     -0.00000011      0.21682218     -0.23318080
 2 02a002      -0.00000000      0.07594608      0.00000015     -0.00000003     -0.00000000
 2 0a2002      -0.00000001     -0.00000015      0.07594607      0.00000004      0.00000000
 2 a20020      -0.07594605     -0.00000000     -0.00000001     -0.00000000      0.00000000
 2 a02200       0.07594604      0.00000000      0.00000001      0.00000000     -0.00000000
 2 2a0020       0.00000001      0.00000015     -0.07594601     -0.00000004     -0.00000000
 2 20a200       0.00000000     -0.07594600     -0.00000015      0.00000003     -0.00000000
 2 220a00      -0.00000001     -0.00000009      0.04549965      0.00000002      0.00000000
 2 2020a0      -0.00000000      0.04549963      0.00000009     -0.00000002      0.00000000
 2 022a00       0.00000001      0.00000009     -0.04549983     -0.00000002     -0.00000000
 2 0220a0       0.00000000     -0.04549984     -0.00000009      0.00000002     -0.00000000
 2 20200a      -0.04549970     -0.00000000     -0.00000001     -0.00000000      0.00000000
 2 22000a       0.04549972      0.00000000      0.00000001      0.00000000     -0.00000000
 2 2a00ab       0.00000004     -0.00000002      0.00000003     -0.05790007     -0.03951161
 2 20aa0b      -0.00000013      0.00000002     -0.00000003      0.05773801      0.03951161
 2 baa002      -0.00000008      0.00000002     -0.00000003      0.05695930      0.03869510
 2 a20ba0      -0.00000142      0.00000001     -0.00000001      0.02492367     -0.03951153
 2 02ab0a       0.00000138     -0.00000001      0.00000002     -0.02772100      0.03951153
 2 aba200       0.00000138     -0.00000001      0.00000002     -0.02593093      0.03869503
 
 Energy:     -294.29544794   -294.29544793   -294.29544793   -294.29544793   -294.28257319
 
 
 CI Coefficients of symmetry 2 (Quartet)
 =======================================

 State:              1               2               3               4               5               6               7
 2 2aa00a       0.00000000      0.00000000      0.00000000      0.04175770     -0.00000037      0.00000000     -0.00000082
 2 a2aa00       0.00000000     -0.00000000      0.00000000      0.72102969     -0.00000289      0.00000000     -0.00000042
 2 2aaa00       0.00000001      0.70190609      0.00000000      0.00000000      0.00000001      0.70108370      0.00000000
 2 2aa0a0       0.00000079     -0.00000000      0.70190604      0.00000005      0.00000229     -0.00000000      0.70108374
 2 aa2a00       0.70190574     -0.00000001     -0.00000079      0.00000272      0.70108404     -0.00000001     -0.00000229
 2 a2a0a0       0.70190565     -0.00000001     -0.00000079     -0.00000272     -0.70108413      0.00000001      0.00000229
 2 aa200a      -0.00000079      0.00000000     -0.70190535      0.00000005      0.00000229     -0.00000000      0.70108443
 2 a2a00a       0.00000001      0.70190531      0.00000000      0.00000000     -0.00000001     -0.70108448     -0.00000000
 2 aa20a0       0.00000000     -0.00000000     -0.00000000      0.67927188     -0.00000252     -0.00000000      0.00000040
 2 20aa0a       0.00000000      0.00000000      0.00000000     -0.00045871     -0.00000002      0.00000000     -0.00000007
 2 2a00aa      -0.00000000     -0.00000000     -0.00000000     -0.00736769      0.00000005     -0.00000000      0.00000007
 2 02aa0a      -0.00000000     -0.00000000     -0.00000000     -0.06143016      0.00000025      0.00000000      0.00000003
 2 2a0aa0       0.00000000      0.06095907      0.00000000      0.00000000      0.00000000      0.05995774      0.00000000
 2 20aaa0       0.00000007     -0.00000000      0.06095907      0.00000000      0.00000020     -0.00000000      0.05995774
 2 0a2a0a      -0.06095904      0.00000000      0.00000007     -0.00000023     -0.05995777      0.00000000      0.00000020
 2 02a0aa      -0.06095903      0.00000000      0.00000007      0.00000023      0.05995778     -0.00000000     -0.00000020
 2 a02a0a       0.00000007     -0.00000000      0.06095900     -0.00000000     -0.00000020      0.00000000     -0.05995780
 2 a200aa      -0.00000000     -0.06095900     -0.00000000     -0.00000000      0.00000000      0.05995780      0.00000000
 2 0a20aa      -0.00000000     -0.00000000      0.00000000     -0.05832575      0.00000022      0.00000000     -0.00000003
 2 a20aa0       0.00000000     -0.00000000      0.00000000      0.05786704     -0.00000023      0.00000000     -0.00000004
 2 abaa0a      -0.00000000     -0.04123137     -0.00000000      0.00000000      0.00000000      0.05603937      0.00000000
 2 aab0aa      -0.00000005      0.00000000     -0.04123137      0.00000000      0.00000018     -0.00000000      0.05603937
 2 abaaa0      -0.04123140      0.00000000      0.00000005      0.00000022      0.05603936     -0.00000000     -0.00000018
 2 aabaa0      -0.04123141      0.00000000      0.00000005     -0.00000022     -0.05603935      0.00000000      0.00000018
 2 baa0aa      -0.00000005      0.00000000     -0.04123143     -0.00000000     -0.00000018      0.00000000     -0.05603933
 2 baaa0a      -0.00000000     -0.04123143     -0.00000000     -0.00000000     -0.00000000     -0.05603933     -0.00000000
 2 a02aa0      -0.00000000     -0.00000000      0.00000000     -0.05406246      0.00000020      0.00000000     -0.00000004
 
 Energy:     -294.32772005   -294.32772004   -294.32772004   -294.30944773   -294.30944773   -294.30944772   -294.30944772

 State:              8               9
 2 2aa00a       0.80846425     -0.57123161
 2 a2aa00       0.36806921      0.57123109
 2 2aaa00      -0.00000000      0.00000000
 2 2aa0a0       0.00000071     -0.00000000
 2 aa2a00       0.00000018     -0.00000000
 2 a2a0a0      -0.00000018      0.00000000
 2 aa200a       0.00000071     -0.00000000
 2 a2a00a       0.00000000      0.00000000
 2 aa20a0      -0.44039573     -0.57123115
 2 20aa0a       0.06708391     -0.05168809
 2 2a00aa      -0.06667968      0.05168810
 2 02aa0a      -0.02695926     -0.05168806
 2 2a0aa0      -0.00000000      0.00000000
 2 20aaa0       0.00000006     -0.00000000
 2 0a2a0a      -0.00000002      0.00000000
 2 02a0aa       0.00000002     -0.00000000
 2 a02a0a      -0.00000006      0.00000000
 2 a200aa      -0.00000000     -0.00000000
 2 0a20aa       0.03314473      0.05168806
 2 a20aa0       0.03393925      0.05168805
 2 abaa0a       0.00000000      0.00000000
 2 aab0aa       0.00000006     -0.00000000
 2 abaaa0       0.00000001     -0.00000000
 2 aabaa0      -0.00000001      0.00000000
 2 baa0aa      -0.00000006      0.00000000
 2 baaa0a      -0.00000000      0.00000000
 2 a02aa0       0.03972048      0.05168806
 
 Energy:     -294.30944772   -294.28426562
 


 **********************************************************************************************************************************
 DATASETS  * FILE   NREC   LENGTH (MB)   RECORD NAMES
              1      21       57.06       500      610      700      900      950      970     1000      129      960     1100   
                                          VAR    BASINP    GEOM    SYMINP    ZMAT    AOBASIS   BASIS     P2S    ABASIS      S 
                                         1400     1410     1420     1200     1210     1080     1700     1600     1650     1380   
                                           T        V       ECP      H0       H01     AOSYM    OPER      SMH    MOLCAS    JKOP   
                                         1700(1)
                                         OPER   

              2       5        1.43       700     1000      520     2100     2140   
                                         GEOM     BASIS   MCVARS     RHF     MCSCF   

 PROGRAMS   *        TOTAL     MULTI   RHF-SCF       INT
 CPU TIMES  *        10.00      6.36      0.47      2.96
 REAL TIME  *        15.51 SEC
 DISK USED  *        58.59 MB (local),      751.82 MB (total)
 SF USED    *        72.65 MB
 GA USED    *         0.00 MB       (max)       0.00 MB       (current)
 **********************************************************************************************************************************

 Energies and &lt;L**2&gt; values

         ENERGY     LL
    -294.6628544   2.0
    -294.6628544   2.0
    -294.6628544   2.0
    -294.3015377   2.0
    -294.3015377   2.0
    -294.3015377   2.0
    -294.2954479   6.0
    -294.2954479   6.0
    -294.2954479   6.0
    -294.2954479   6.0
    -294.2954479   6.0
    -294.2825732   0.0
    -294.3277201   2.0
    -294.3277200   2.0
    -294.3277200   2.0
    -294.3094477   6.0
    -294.3094477   6.0
    -294.3094477   6.0
    -294.3094477   6.0
    -294.3094477   6.0
    -294.2842656   0.0
                                                  


 PROGRAM * CI (Multireference internally contracted CI)     Authors: H.-J. Werner, P.J. Knowles, 1987


 Convergence thresholds:  THRVAR = 1.00D-08  THRDEN = 1.00D-06

 Number of optimized states: 12  Roots:   1   2   3   4   5   6   7   8   9  10  11  12
 Number of reference states: 12  Roots:   1   2   3   4   5   6   7   8   9  10  11  12

 Reference symmetry:                   2   Doublet 
 Number of electrons:                 25
 Maximum number of shells:             6
 Maximum number of spin couplings:   132

 Reference space:      252 conf      420 CSFs
 N elec internal:    15576 conf    58240 CSFs
 N-1 el internal:    19959 conf   132244 CSFs
 N-2 el internal:    14819 conf   136456 CSFs

 Number of electrons in valence space:                     25
 Maximum number of open shell orbitals in reference space:  5
 Maximum number of open shell orbitals in internal spaces: 11


 Number of closed-shell orbitals:   9 (   6   3 )
 Number of active  orbitals:        7 (   1   6 )
 Number of external orbitals:     169 (  85  84 )

 Molecular orbitals read from record     2140.2  Type=MCSCF/NATURAL (state averaged)

 Valence orbitals related to previous ones by unitary transformation. Operators transformed.


 Number of p-space configurations:  30

 Reference wavefunction optimized for reference space (refopt=1)

 State     Reference Energy 
     1      -294.66285436
     2      -294.66285436
     3      -294.66285436
     4      -294.30153771
     5      -294.30153771
     6      -294.30153771
     7      -294.29544794
     8      -294.29544794
     9      -294.29544793
    10      -294.29544793
    11      -294.29544793
    12      -294.28257319

 ?WARNING: SMALL EIGENVALUE OF PAIR OVERLAP MATRIX:  0.7094D-07

 Number of blocks in overlap matrix:  1066   Smallest eigenvalue:  0.71D-07
 Number of N-2 electron functions:    3028
 Number of N-1 electron functions:  132244

 Number of internal configurations:                29358
 Number of singly external configurations:      11174352
 Number of doubly external configurations:      21633184
 Total number of contracted configurations:     32836894
 Total number of uncontracted configurations:  983949316

 Diagonal Coupling coefficients finished.               Storage:  34450777 words, CPU-Time:    175.75 seconds.
 Energy denominators for pairs finished in 1 passes.    Storage:   2723986 words, CPU-time:      2.45 seconds.

  ITER. STATE  ROOT     SQ.NORM     CORR.ENERGY   TOTAL ENERGY   ENERGY CHANGE       DEN1      VAR(S)    VAR(P)      TIME
    1     1     1     1.00000000     0.00000000  -294.66285436    -0.00000000    -1.10264791  0.32D-01  0.11D+00   192.87
    1     2     2     1.00000000     0.00000000  -294.66285436     0.00000000    -1.10287291  0.32D-01  0.11D+00   192.87
    1     3     3     1.00000000     0.00000000  -294.66285436    -0.00000000    -1.10252755  0.32D-01  0.11D+00   192.87
    1     4     4     1.00000000     0.00000000  -294.30153771    -0.00000000    -1.14949855  0.10D+00  0.12D+00   192.87
    1     5     5     1.00000000     0.00000000  -294.30153771     0.00000000    -1.14948372  0.10D+00  0.12D+00   192.87
    1     6     6     1.00000000     0.00000000  -294.30153771     0.00000000    -1.14945465  0.10D+00  0.12D+00   192.87
    1     7     7     1.00000000     0.00000000  -294.29544794    -0.00000000    -1.15280247  0.99D-01  0.11D+00   192.87
    1     8     8     1.00000000     0.00000000  -294.29544794    -0.00000000    -1.15334807  0.99D-01  0.12D+00   192.87
    1     9     9     1.00000000     0.00000000  -294.29544793    -0.00000000    -1.15331857  0.99D-01  0.12D+00   192.87
    1    10    10     1.00000000     0.00000000  -294.29544793     0.00000000    -1.15333339  0.99D-01  0.12D+00   192.87
    1    11    11     1.00000000     0.00000000  -294.29544793    -0.00000000    -1.15451565  0.11D+00  0.12D+00   192.87
    1    12    12     1.00000000     0.00000000  -294.28257319    -0.00000000    -1.16267772  0.11D+00  0.12D+00   192.87
    2     1     1     1.09732376    -0.91640065  -295.57925501    -0.91640065    -0.02423229  0.27D-02  0.17D-02  2769.85
    2     2     2     1.09732429    -0.91638838  -295.57924274    -0.91638838    -0.02425496  0.27D-02  0.17D-02  2769.85
    2     3     3     1.09732179    -0.91635323  -295.57920759    -0.91635323    -0.02427946  0.27D-02  0.17D-02  2769.85
    2     4     4     1.13514430    -0.91129727  -295.21283498    -0.91129727    -0.03370167  0.83D-02  0.21D-02  2769.85
    2     5     5     1.13550458    -0.91118367  -295.21272138    -0.91118367    -0.03382419  0.83D-02  0.22D-02  2769.85
    2     6     6     1.13552106    -0.91115197  -295.21268968    -0.91115197    -0.03386007  0.83D-02  0.22D-02  2769.85
    2     7     7     1.13554289    -0.91720502  -295.21265297    -0.91720502    -0.03389670  0.83D-02  0.22D-02  2769.85
    2     8     8     1.13648190    -0.91558870  -295.21103665    -0.91558870    -0.03463604  0.92D-02  0.22D-02  2769.85
    2     9     9     1.13660496    -0.91487346  -295.21032139    -0.91487346    -0.03685257  0.10D-01  0.22D-02  2769.85
    2    10    10     1.13662573    -0.91481813  -295.21026606    -0.91481813    -0.03691261  0.10D-01  0.22D-02  2769.85
    2    11    11     1.13661301    -0.91481126  -295.21025919    -0.91481126    -0.03691406  0.10D-01  0.22D-02  2769.85
    2    12    12     1.14564592    -0.91715299  -295.19972618    -0.91715299    -0.03686746  0.10D-01  0.23D-02  2769.85
    3     1     1     1.09248552    -0.94019968  -295.60305404    -0.02379903    -0.00084512  0.53D-04  0.12D-03  5349.90
    3     2     2     1.09248762    -0.94019685  -295.60305121    -0.02380847    -0.00084689  0.54D-04  0.12D-03  5349.90
    3     3     3     1.09247621    -0.94019367  -295.60304803    -0.02384045    -0.00085008  0.54D-04  0.12D-03  5349.90
    3     4     4     1.10636728    -0.94513407  -295.24667179    -0.03383681    -0.00112056  0.23D-03  0.13D-03  5349.90
    3     5     5     1.10635490    -0.94512876  -295.24666647    -0.03394509    -0.00112451  0.23D-03  0.13D-03  5349.90
    3     6     6     1.10636436    -0.94512873  -295.24666644    -0.03397676    -0.00112540  0.23D-03  0.13D-03  5349.90
    3     7     7     1.10912827    -0.95064220  -295.24609015    -0.03343718    -0.00102891  0.16D-03  0.13D-03  5349.90
    3     8     8     1.10912669    -0.95064099  -295.24608893    -0.03505228    -0.00102991  0.16D-03  0.13D-03  5349.90
    3     9     9     1.10908617    -0.95063795  -295.24608588    -0.03576449    -0.00102983  0.16D-03  0.13D-03  5349.90
    3    10    10     1.10912786    -0.95063650  -295.24608443    -0.03581836    -0.00103324  0.16D-03  0.13D-03  5349.90
    3    11    11     1.10937250    -0.95046801  -295.24591594    -0.03565676    -0.00116250  0.20D-03  0.15D-03  5349.90
    3    12    12     1.11163793    -0.95338760  -295.23596079    -0.03623462    -0.00110108  0.18D-03  0.14D-03  5349.90
    4     1     1     1.09474163    -0.94128835  -295.60414271    -0.00108867    -0.00010042  0.60D-05  0.12D-04  7919.16
    4     2     2     1.09473893    -0.94128757  -295.60414193    -0.00109072    -0.00010100  0.60D-05  0.12D-04  7919.16
    4     3     3     1.09473650    -0.94128746  -295.60414182    -0.00109379    -0.00010108  0.60D-05  0.12D-04  7919.16
    4     4     4     1.10440056    -0.94644501  -295.24798272    -0.00131094    -0.00008356  0.68D-05  0.13D-04  7919.16
    4     5     5     1.10439694    -0.94644474  -295.24798244    -0.00131598    -0.00008384  0.68D-05  0.13D-04  7919.16
    4     6     6     1.10439597    -0.94644467  -295.24798237    -0.00131593    -0.00008392  0.68D-05  0.13D-04  7919.16
    4     7     7     1.10772969    -0.95190124  -295.24734918    -0.00125903    -0.00010055  0.72D-05  0.16D-04  7919.16
    4     8     8     1.10773072    -0.95190101  -295.24734896    -0.00126003    -0.00010071  0.73D-05  0.16D-04  7919.16
    4     9     9     1.10772849    -0.95190037  -295.24734830    -0.00126242    -0.00010110  0.73D-05  0.16D-04  7919.16
    4    10    10     1.10772370    -0.95189916  -295.24734709    -0.00126266    -0.00010160  0.73D-05  0.16D-04  7919.16
    4    11    11     1.10774381    -0.95189023  -295.24733816    -0.00142222    -0.00010846  0.82D-05  0.17D-04  7919.16
    4    12    12     1.10952862    -0.95473277  -295.23730596    -0.00134517    -0.00009873  0.77D-05  0.16D-04  7919.16
    5     1     1     1.09561447    -0.94141437  -295.60426873    -0.00012602    -0.00000830  0.30D-06  0.11D-05 10494.73
    5     2     2     1.09561430    -0.94141431  -295.60426867    -0.00012674    -0.00000834  0.30D-06  0.11D-05 10494.73
    5     3     3     1.09561399    -0.94141431  -295.60426867    -0.00012685    -0.00000835  0.30D-06  0.11D-05 10494.73
    5     4     4     1.10456639    -0.94655235  -295.24809007    -0.00010734    -0.00000910  0.51D-06  0.15D-05 10494.73
    5     5     5     1.10456561    -0.94655232  -295.24809003    -0.00010758    -0.00000913  0.51D-06  0.15D-05 10494.73
    5     6     6     1.10456580    -0.94655226  -295.24808997    -0.00010760    -0.00000915  0.51D-06  0.15D-05 10494.73
    5     7     7     1.10822148    -0.95203876  -295.24748670    -0.00013752    -0.00001341  0.89D-06  0.21D-05 10494.73
    5     8     8     1.10822110    -0.95203871  -295.24748665    -0.00013770    -0.00001344  0.89D-06  0.21D-05 10494.73
    5     9     9     1.10822062    -0.95203864  -295.24748657    -0.00013827    -0.00001349  0.88D-06  0.21D-05 10494.73
    5    10    10     1.10822165    -0.95203830  -295.24748623    -0.00013914    -0.00001365  0.90D-06  0.22D-05 10494.73
    5    11    11     1.10822145    -0.95203703  -295.24748496    -0.00014680    -0.00001440  0.96D-06  0.23D-05 10494.73
    5    12    12     1.10997198    -0.95486666  -295.23743984    -0.00013389    -0.00001237  0.91D-06  0.20D-05 10494.73
    6     1     1     1.09560200    -0.94142481  -295.60427917    -0.00001044    -0.00000086  0.46D-07  0.11D-06 13076.30
    6     2     2     1.09560174    -0.94142480  -295.60427916    -0.00001049    -0.00000087  0.47D-07  0.11D-06 13076.30
    6     3     3     1.09560189    -0.94142480  -295.60427916    -0.00001049    -0.00000087  0.46D-07  0.11D-06 13076.30
    6     4     4     1.10464025    -0.94656457  -295.24810228    -0.00001222    -0.00000123  0.78D-07  0.18D-06 13076.30
    6     5     5     1.10464014    -0.94656457  -295.24810227    -0.00001225    -0.00000123  0.79D-07  0.18D-06 13076.30
    6     6     6     1.10464014    -0.94656455  -295.24810226    -0.00001229    -0.00000124  0.79D-07  0.19D-06 13076.30
    6     7     7     1.10832930    -0.95205722  -295.24750516    -0.00001846    -0.00000207  0.10D-06  0.31D-06 13076.30
    6     8     8     1.10832922    -0.95205721  -295.24750515    -0.00001850    -0.00000207  0.10D-06  0.31D-06 13076.30
    6     9     9     1.10832897    -0.95205721  -295.24750514    -0.00001857    -0.00000208  0.10D-06  0.32D-06 13076.30
    6    10    10     1.10832812    -0.95205713  -295.24750506    -0.00001884    -0.00000212  0.11D-06  0.32D-06 13076.30
    6    11    11     1.10832400    -0.95205690  -295.24750483    -0.00001987    -0.00000224  0.11D-06  0.34D-06 13076.30
    6    12    12     1.11005522    -0.95488359  -295.23745678    -0.00001694    -0.00000186  0.88D-07  0.29D-06 13076.30
    7     1     1     1.09563183    -0.94142590  -295.60428025    -0.00000109    -0.00000012  0.13D-07  0.13D-07 15645.50
    7     2     2     1.09563175    -0.94142589  -295.60428025    -0.00000109    -0.00000013  0.13D-07  0.13D-07 15645.50
    7     3     3     1.09563175    -0.94142589  -295.60428025    -0.00000110    -0.00000013  0.13D-07  0.13D-07 15645.50
    7     4     4     1.10469759    -0.94656615  -295.24810387    -0.00000158    -0.00000020  0.18D-07  0.28D-07 15645.50
    7     5     5     1.10469761    -0.94656616  -295.24810386    -0.00000159    -0.00000019  0.18D-07  0.27D-07 15645.50
    7     6     6     1.10469757    -0.94656615  -295.24810386    -0.00000160    -0.00000020  0.18D-07  0.28D-07 15645.50
    7     7     7     1.10840045    -0.95205992  -295.24750786    -0.00000270    -0.00000036  0.34D-07  0.49D-07 15645.50
    7     8     8     1.10840054    -0.95205991  -295.24750786    -0.00000270    -0.00000036  0.34D-07  0.49D-07 15645.50
    7     9     9     1.10840055    -0.95205992  -295.24750786    -0.00000271    -0.00000036  0.34D-07  0.49D-07 15645.50
    7    10    10     1.10840027    -0.95205991  -295.24750784    -0.00000278    -0.00000037  0.36D-07  0.51D-07 15645.50
    7    11    11     1.10839870    -0.95205983  -295.24750776    -0.00000293    -0.00000039  0.37D-07  0.53D-07 15645.50
    7    12    12     1.11012564    -0.95488604  -295.23745923    -0.00000244    -0.00000031  0.27D-07  0.43D-07 15645.50
    8     1     1     1.09563779    -0.94142604  -295.60428040    -0.00000015    -0.00000002  0.85D-09  0.21D-08 18219.82
    8     2     2     1.09563780    -0.94142604  -295.60428040    -0.00000015    -0.00000002  0.85D-09  0.21D-08 18219.82
    8     3     3     1.09563777    -0.94142604  -295.60428040    -0.00000015    -0.00000002  0.85D-09  0.21D-08 18219.82
    8     4     4     1.10469186    -0.94656640  -295.24810411    -0.00000025    -0.00000004  0.27D-08  0.52D-08 18219.82
    8     5     5     1.10469190    -0.94656640  -295.24810411    -0.00000025    -0.00000004  0.27D-08  0.51D-08 18219.82
    8     6     6     1.10469187    -0.94656640  -295.24810411    -0.00000025    -0.00000004  0.27D-08  0.52D-08 18219.82
    8     7     7     1.10839525    -0.95206037  -295.24750831    -0.00000045    -0.00000007  0.51D-08  0.99D-08 18219.82
    8     8     8     1.10839512    -0.95206036  -295.24750831    -0.00000045    -0.00000007  0.53D-08  0.10D-07 18219.82
    8     9     9     1.10839528    -0.95206037  -295.24750830    -0.00000045    -0.00000007  0.50D-08  0.98D-08 18219.82
    8    10    10     1.10839529    -0.95206037  -295.24750830    -0.00000046    -0.00000007  0.50D-08  0.98D-08 18219.82
    8    11    11     1.10839497    -0.95206031  -295.24750824    -0.00000048    -0.00000007  0.59D-08  0.11D-07 18219.82
    8    12    12     1.11012022    -0.95488643  -295.23745962    -0.00000039    -0.00000006  0.47D-08  0.80D-08 18219.82
    9     1     1     1.09563779    -0.94142604  -295.60428040    -0.00000000    -0.00000002  0.85D-09  0.21D-08 19725.32
    9     2     2     1.09563780    -0.94142604  -295.60428040    -0.00000000    -0.00000002  0.84D-09  0.21D-08 19725.32
    9     3     3     1.09563777    -0.94142604  -295.60428040    -0.00000000    -0.00000002  0.85D-09  0.21D-08 19725.32
    9     4     4     1.10469186    -0.94656640  -295.24810411    -0.00000000    -0.00000004  0.27D-08  0.52D-08 19725.32
    9     5     5     1.10469190    -0.94656640  -295.24810411    -0.00000000    -0.00000004  0.27D-08  0.51D-08 19725.32
    9     6     6     1.10469187    -0.94656640  -295.24810411    -0.00000000    -0.00000004  0.27D-08  0.52D-08 19725.32
    9     7     7     1.10840192    -0.95206047  -295.24750841    -0.00000010    -0.00000001  0.44D-09  0.94D-09 19725.32
    9     8     8     1.10840190    -0.95206047  -295.24750841    -0.00000010    -0.00000001  0.42D-09  0.91D-09 19725.32
    9     9     9     1.10840190    -0.95206047  -295.24750840    -0.00000010    -0.00000001  0.42D-09  0.90D-09 19725.32
    9    10    10     1.10840190    -0.95206047  -295.24750840    -0.00000010    -0.00000001  0.41D-09  0.90D-09 19725.32
    9    11    11     1.10840207    -0.95206042  -295.24750835    -0.00000011    -0.00000001  0.48D-09  0.98D-09 19725.32
    9    12    12     1.11012527    -0.95488651  -295.23745970    -0.00000008    -0.00000000  0.35D-09  0.70D-09 19725.32


 =====================================
 Analysis of CPU times by interactions
 =====================================

       I      S      P

 I   0.2%
 S   0.2%  17.4%
 P   0.2%  40.7%  33.7%

 Initialization:   0.9%
 Other:            6.7%

 Total CPU:    19725.3 seconds
 =====================================



 Wavefunction saved on  5203.2

 Reference coefficients greater than 0.0500000
 =============================================
 222222222222/000          -0.2576335  -0.0221615   0.9163474  -0.0032232   0.0274894   0.0047001  -0.0000000  -0.0000000
                           -0.0000001  -0.0000001  -0.0000000   0.0000000
 22222222222/2000           0.2559844   0.9122436   0.0940330   0.0107697   0.0055912  -0.0253160   0.0000001  -0.0000000
                            0.0000002  -0.0000001  -0.0000001  -0.0000000
 2222222222/22000           0.8801452  -0.2718071   0.2408816  -0.0257249  -0.0011035  -0.0111874   0.0000000   0.0000000
                            0.0000000   0.0000000   0.0000000  -0.0000000
 22222222222//00\          -0.0000000  -0.0000000   0.0000000   0.0000007   0.0000002  -0.0000004   0.2777883  -0.1029012
                            0.0340617  -0.0354587   0.7013092  -0.5413067
 2222222222/2/\00           0.0000000   0.0000000   0.0000000  -0.0000003  -0.0000006   0.0000028   0.6984027  -0.2615698
                            0.0831099  -0.1034241   0.0906613   0.5413054
 2222222222//200\          -0.0019710  -0.0070240  -0.0007240   0.1826081   0.0948042  -0.4292489  -0.0911021  -0.0030536
                            0.6486347  -0.0864613  -0.0002379  -0.0000000
 22222222222//0\0           0.0019710   0.0070240   0.0007240  -0.1826120  -0.0948045   0.4292606  -0.0911048  -0.0030534
                            0.6486257  -0.0864594  -0.0002354   0.0000001
 2222222222/2/00\           0.0019837   0.0001706  -0.0070556  -0.0546529   0.4661044   0.0796930  -0.0816402   0.0091929
                           -0.0978246  -0.6481953   0.0056644  -0.0000000
 22222222222//\00           0.0019837   0.0001706  -0.0070556  -0.0546521   0.4661102   0.0796944   0.0816398  -0.0091933
                            0.0978225   0.6481914  -0.0056644   0.0000001
 2222222222/2/0\0           0.0067769  -0.0020928   0.0018547   0.4361883   0.0187112   0.1896912  -0.2249824  -0.6199362
                           -0.0312830   0.0242727   0.0009002   0.0000001
 2222222222//2\00           0.0067769  -0.0020928   0.0018547   0.4361891   0.0187116   0.1896935   0.2249809   0.6199355
                            0.0312819  -0.0242734  -0.0009002   0.0000001
 2222222222//20\0          -0.0000000   0.0000000  -0.0000000  -0.0000008  -0.0000006   0.0000035   0.4206132  -0.1586681
                            0.0490481  -0.0679650  -0.6106483  -0.5413062
 22222222222200/0           0.0063635   0.0005474  -0.0226338  -0.0493077   0.4205237   0.0718999  -0.0000002  -0.0000002
                           -0.0000010  -0.0000018   0.0000000   0.0000000
 222222222202200/          -0.0217396   0.0067137  -0.0059498  -0.3935310  -0.0168815  -0.1711412   0.0000007   0.0000003
                            0.0000005   0.0000003   0.0000000  -0.0000001
 2222222222202/00          -0.0063228  -0.0225324  -0.0023226   0.1647516   0.0855329  -0.3872756   0.0000012  -0.0000001
                            0.0000042  -0.0000009  -0.0000012  -0.0000000
 22222222222/\/00          -0.0031444  -0.0002705   0.0111841   0.0400614  -0.3416661  -0.0584171  -0.0037410   0.0004214
                           -0.0044820  -0.0297024   0.0002595  -0.0000000
 2222222222/2\00/          -0.0031445  -0.0002705   0.0111842   0.0400614  -0.3416657  -0.0584170   0.0037414  -0.0004211
                            0.0044836   0.0297054  -0.0002596  -0.0000000
 2222222222/\2/00           0.0107422  -0.0033174   0.0029400   0.3197353   0.0137159   0.1390485   0.0103094   0.0284087
                            0.0014331  -0.0011126  -0.0000413   0.0000001
 2222222222/2\0/0           0.0107423  -0.0033174   0.0029400   0.3197352   0.0137158   0.1390484  -0.0103105  -0.0284093
                           -0.0014339   0.0011121   0.0000412   0.0000001
 22222222222/\0/0           0.0031243   0.0111340   0.0011477  -0.1338567  -0.0694934   0.3146522  -0.0041759  -0.0001398
                            0.0297207  -0.0039614  -0.0000099   0.0000000
 2222222222/\200/           0.0031243   0.0111341   0.0011477  -0.1338567  -0.0694934   0.3146520   0.0041739   0.0001400
                           -0.0297272   0.0039628   0.0000118   0.0000000
 22222222220/2002          -0.0077100  -0.0274757  -0.0028322   0.0137245   0.0071254  -0.0322616  -0.0105844  -0.0003548
                            0.0753586  -0.0100451  -0.0000276  -0.0000000
 22222222222/0020          -0.0077099  -0.0274757  -0.0028322   0.0137250   0.0071254  -0.0322631   0.0105846   0.0003547
                           -0.0753579   0.0100449   0.0000274  -0.0000000
 222222222202/002           0.0077596   0.0006675  -0.0275993  -0.0041077   0.0350318   0.0059896  -0.0094850   0.0010680
                           -0.0113653  -0.0753077   0.0006581  -0.0000000
 222222222220/200           0.0077596   0.0006675  -0.0275994  -0.0041076   0.0350325   0.0059898   0.0094850  -0.0010681
                            0.0113651   0.0753074  -0.0006581   0.0000000
 2222222222/20020          -0.0265090   0.0081865  -0.0072551  -0.0327833  -0.0014063  -0.0142569   0.0261386   0.0720246
                            0.0036345  -0.0028200  -0.0001046  -0.0000000
 2222222222/02200          -0.0265089   0.0081865  -0.0072551  -0.0327835  -0.0014064  -0.0142572  -0.0261385  -0.0720245
                           -0.0036344   0.0028201   0.0001046  -0.0000000
 22222222222/00/\           0.0000000   0.0000000  -0.0000000  -0.0000001  -0.0000000   0.0000000  -0.0245787   0.0090962
                           -0.0030212   0.0030952  -0.0669996   0.0491105
 222222222220//0\           0.0000000   0.0000000  -0.0000000   0.0000001   0.0000000  -0.0000000   0.0278890  -0.0103394
                            0.0034122  -0.0036022   0.0654613  -0.0491105
 22222222222020/0           0.0019166   0.0001649  -0.0068168   0.0073475  -0.0626638  -0.0107141  -0.0052907   0.0005958
                           -0.0063394  -0.0420067   0.0003671  -0.0000000
 22222222220220/0           0.0019165   0.0001649  -0.0068167   0.0073475  -0.0626635  -0.0107140   0.0052908  -0.0005957
                            0.0063397   0.0420074  -0.0003671  -0.0000000
 2222222222/02/0\           0.0067368   0.0240079   0.0024747  -0.0025009  -0.0012985   0.0058788   0.0084689   0.0002838
                           -0.0602963   0.0080373   0.0000220  -0.0000000
 222222222220//\0           0.0067368   0.0240078   0.0024747  -0.0025014  -0.0012985   0.0058800  -0.0084689  -0.0002839
                            0.0602961  -0.0080373  -0.0000220   0.0000000
 2222222222/200/\          -0.0067802  -0.0005832   0.0241159   0.0007486  -0.0063840  -0.0010915   0.0075892  -0.0008546
                            0.0090936   0.0602557  -0.0005266   0.0000000
 2222222222/2\/00           0.0000000   0.0000000   0.0000000  -0.0000001  -0.0000000   0.0000002   0.0065450  -0.0025555
                            0.0006868  -0.0014896  -0.0601208   0.0000001
 222222222220200/          -0.0065475   0.0020220  -0.0017919   0.0586412   0.0025156   0.0255023   0.0145801   0.0401757
                            0.0020272  -0.0015731  -0.0000583   0.0000000
 222222222222000/          -0.0065475   0.0020220  -0.0017919   0.0586411   0.0025155   0.0255022  -0.0145803  -0.0401758
                           -0.0020274   0.0015730   0.0000583   0.0000000
 2222222222220/00          -0.0019043  -0.0067862  -0.0006995  -0.0245503  -0.0127455   0.0577096  -0.0059043  -0.0001979
                            0.0420347  -0.0056030  -0.0000152   0.0000000
 2222222222022/00          -0.0019043  -0.0067862  -0.0006995  -0.0245501  -0.0127455   0.0577088   0.0059039   0.0001979
                           -0.0420361   0.0056033   0.0000155   0.0000000
 2222222222/\/002           0.0000000   0.0000000   0.0000000  -0.0000001  -0.0000000   0.0000000  -0.0213908   0.0079195
[...]
   27    3.2  1.5  1.5   0.005%   0.090%   0.048%   0.034%   2.730%   0.012%   0.169%   0.076%   7.091%   0.393%
   28    4.2  1.5  1.5   0.017%   0.001%   0.196%   0.155%   0.002%   0.551%   1.469%   5.986%   0.068%   1.779%
   29    5.2  1.5  1.5   0.013%   0.001%   0.191%   0.175%   0.003%   0.596%   1.631%   6.062%   0.079%   2.065%
   30    6.2  1.5  1.5   0.001%   0.014%   0.868%   1.028%   0.527%   0.002%   5.644%   1.492%   0.007%   0.002%
   31    7.2  1.5  1.5   0.517%  10.561%   0.151%   0.180%   4.982%   0.023%   2.910%   0.731%  19.303%   0.737%
   32    8.2  1.5  1.5   0.087%   1.780%   0.731%   0.870%   3.600%   0.016%   3.395%   0.853%   5.037%   0.192%
   33    9.2  1.5  1.5   0.000%   0.001%   0.001%   0.002%  14.417%   0.067%   0.964%   0.243%   0.000%   0.000%
   34    1.2  1.5  0.5   0.002%   0.034%   1.786%   2.054%   0.359%   0.002%   1.542%   0.385%   5.426%   0.207%
   35    2.2  1.5  0.5   0.003%   0.063%   1.407%   2.333%   1.760%   0.009%   0.559%   0.179%   5.443%   0.206%
   36    3.2  1.5  0.5   0.002%   0.000%   8.587%   6.709%   0.013%   0.049%   0.121%   0.334%   0.036%   0.003%
   37    4.2  1.5  0.5   0.000%   0.000%   0.536%   0.638%   7.852%   0.029%   0.424%   0.104%   0.554%   0.022%
   38    5.2  1.5  0.5   0.022%   0.465%   0.613%   0.731%   7.108%   0.040%   0.503%   0.135%   0.647%   0.015%
   39    6.2  1.5  0.5   0.182%   0.008%   0.001%   0.000%   0.035%   7.523%   0.105%   0.393%   0.121%   3.438%
   40    7.2  1.5  0.5   1.806%   0.088%   0.589%   0.495%   0.018%   3.988%   0.977%   3.890%   0.179%   4.683%
   41    8.2  1.5  0.5  11.899%   0.587%   0.192%   0.162%   0.021%   4.524%   0.740%   2.945%   0.760%  19.949%
   42    9.2  1.5  0.5   0.000%   0.000%   0.005%   0.004%   0.005%   1.183%   2.939%  11.692%   0.000%   0.000%
   43    1.2  1.5 -0.5   0.034%   0.002%   2.054%   1.786%   0.002%   0.359%   0.385%   1.542%   0.207%   5.426%
   44    2.2  1.5 -0.5   0.063%   0.003%   2.333%   1.407%   0.009%   1.760%   0.179%   0.559%   0.206%   5.443%
   45    3.2  1.5 -0.5   0.000%   0.002%   6.709%   8.587%   0.049%   0.013%   0.334%   0.121%   0.003%   0.036%
   46    4.2  1.5 -0.5   0.000%   0.000%   0.638%   0.536%   0.029%   7.852%   0.104%   0.424%   0.022%   0.554%
   47    5.2  1.5 -0.5   0.465%   0.022%   0.731%   0.613%   0.040%   7.108%   0.135%   0.503%   0.015%   0.647%
   48    6.2  1.5 -0.5   0.008%   0.182%   0.000%   0.001%   7.523%   0.035%   0.393%   0.105%   3.438%   0.121%
   49    7.2  1.5 -0.5   0.088%   1.806%   0.495%   0.589%   3.988%   0.018%   3.890%   0.977%   4.683%   0.179%
   50    8.2  1.5 -0.5   0.587%  11.899%   0.162%   0.192%   4.524%   0.021%   2.945%   0.740%  19.949%   0.760%
   51    9.2  1.5 -0.5   0.000%   0.000%   0.004%   0.005%   1.183%   0.005%  11.692%   2.939%   0.000%   0.000%
   52    1.2  1.5 -1.5   0.000%   0.005%   5.397%   6.425%   0.057%   0.000%   0.669%   0.170%   1.583%   0.059%
   53    2.2  1.5 -1.5   0.001%   0.004%   5.388%   6.407%   0.028%   0.018%   0.611%   0.182%   1.455%   0.217%
   54    3.2  1.5 -1.5   0.090%   0.005%   0.034%   0.048%   0.012%   2.730%   0.076%   0.169%   0.393%   7.091%
   55    4.2  1.5 -1.5   0.001%   0.017%   0.155%   0.196%   0.551%   0.002%   5.986%   1.469%   1.779%   0.068%
   56    5.2  1.5 -1.5   0.001%   0.013%   0.175%   0.191%   0.596%   0.003%   6.062%   1.631%   2.065%   0.079%
   57    6.2  1.5 -1.5   0.014%   0.001%   1.028%   0.868%   0.002%   0.527%   1.492%   5.644%   0.002%   0.007%
   58    7.2  1.5 -1.5  10.561%   0.517%   0.180%   0.151%   0.023%   4.982%   0.731%   2.910%   0.737%  19.303%
   59    8.2  1.5 -1.5   1.780%   0.087%   0.870%   0.731%   0.016%   3.600%   0.853%   3.395%   0.192%   5.037%
   60    9.2  1.5 -1.5   0.001%   0.000%   0.002%   0.001%   0.067%  14.417%   0.243%   0.964%   0.000%   0.000%

   Nr   State  S   Sz      41       42       43       44       45       46       47       48       49       50

    1    1.2  0.5  0.5   0.000%   0.000%   0.000%   0.001%   0.000%   0.001%   0.000%   0.005%   0.036%   0.000%
    2    2.2  0.5  0.5   0.002%   0.000%   0.000%   0.000%   0.004%   0.000%   0.000%   0.000%   0.000%   0.035%
    3    3.2  0.5  0.5   0.000%   0.001%   0.000%   0.001%   0.000%   0.002%   0.000%   0.003%   0.033%   0.003%
    4    4.2  0.5  0.5   0.903%   1.260%   0.915%   2.006%   4.412%   0.910%   0.810%  22.165%   1.637%   0.664%
    5    5.2  0.5  0.5   1.656%   2.091%   0.918%   2.040%   2.954%   8.439%   0.511%  14.880%   1.694%   0.239%
    6    6.2  0.5  0.5   4.868%   1.932%   0.175%   0.458%  15.403%   4.665%   1.024%   5.135%   0.867%   0.779%
    7    7.2  0.5  0.5   3.931%   0.040%   0.417%   0.066%   7.913%   1.042%   0.023%   0.006%   0.000%   0.003%
    8    8.2  0.5  0.5   0.160%   5.893%   0.551%   1.017%   1.244%   0.105%   0.003%   0.012%   0.001%   0.001%
    9    9.2  0.5  0.5   0.075%   0.112%   4.985%   2.742%   0.127%   0.017%   0.399%   0.030%   0.000%   0.002%
   10   10.2  0.5  0.5   1.048%   4.622%   0.727%   1.177%   0.167%   0.034%   0.026%   0.428%   0.000%   0.000%
   11   11.2  0.5  0.5   0.187%   0.046%   4.095%   1.793%   0.022%   0.002%   7.960%   0.118%   0.000%   0.001%
   12   12.2  0.5  0.5   0.003%   0.001%   0.001%   0.000%   0.014%   0.002%   0.009%   0.000%   0.557%   7.451%
   13    1.2  0.5 -0.5   0.000%   0.000%   0.001%   0.000%   0.001%   0.000%   0.005%   0.000%   0.000%   0.036%
   14    2.2  0.5 -0.5   0.000%   0.002%   0.000%   0.000%   0.000%   0.004%   0.000%   0.000%   0.035%   0.000%
   15    3.2  0.5 -0.5   0.001%   0.000%   0.001%   0.000%   0.002%   0.000%   0.003%   0.000%   0.003%   0.033%
   16    4.2  0.5 -0.5   1.260%   0.903%   2.006%   0.915%   0.910%   4.412%  22.165%   0.810%   0.664%   1.637%
   17    5.2  0.5 -0.5   2.091%   1.656%   2.040%   0.918%   8.439%   2.954%  14.880%   0.511%   0.239%   1.694%
   18    6.2  0.5 -0.5   1.932%   4.868%   0.458%   0.175%   4.665%  15.403%   5.135%   1.024%   0.779%   0.867%
   19    7.2  0.5 -0.5   0.040%   3.931%   0.066%   0.417%   1.042%   7.913%   0.006%   0.023%   0.003%   0.000%
   20    8.2  0.5 -0.5   5.893%   0.160%   1.017%   0.551%   0.105%   1.244%   0.012%   0.003%   0.001%   0.001%
   21    9.2  0.5 -0.5   0.112%   0.075%   2.742%   4.985%   0.017%   0.127%   0.030%   0.399%   0.002%   0.000%
   22   10.2  0.5 -0.5   4.622%   1.048%   1.177%   0.727%   0.034%   0.167%   0.428%   0.026%   0.000%   0.000%
   23   11.2  0.5 -0.5   0.046%   0.187%   1.793%   4.095%   0.002%   0.022%   0.118%   7.960%   0.001%   0.000%
   24   12.2  0.5 -0.5   0.001%   0.003%   0.000%   0.001%   0.002%   0.014%   0.000%   0.009%   7.451%   0.557%
   25    1.2  1.5  1.5   1.033%   0.230%   5.380%   2.415%   0.014%   0.002%   1.048%   0.016%   0.124%   1.655%
   26    2.2  1.5  1.5   0.668%   0.142%   5.333%   2.485%   0.236%   0.025%   1.249%   0.038%   0.111%   1.490%
   27    3.2  1.5  1.5   0.008%   0.000%   0.388%   0.522%   0.001%   0.013%   0.034%   0.598%   0.001%   0.010%
   28    4.2  1.5  1.5   1.283%   0.265%   6.926%   3.079%  16.808%   1.938%   0.337%   0.005%   0.267%   3.983%
   29    5.2  1.5  1.5   1.892%   0.330%   6.259%   2.794%  13.598%   1.638%   3.240%   0.043%   0.342%   4.183%
   30    6.2  1.5  1.5   2.023%   9.805%   0.003%   0.001%   0.208%   1.624%   0.003%   0.383%  14.715%   1.094%
   31    7.2  1.5  1.5   0.516%   2.441%   2.326%   5.214%   0.107%   0.921%   0.029%   1.983%   2.916%   0.218%
   32    8.2  1.5  1.5   1.575%   7.264%   0.586%   1.301%   0.110%   0.915%   0.028%   1.898%  11.775%   0.880%
   33    9.2  1.5  1.5   0.000%   0.000%   0.000%   0.000%   0.001%   0.008%   0.001%   0.067%   0.002%   0.000%
   34    1.2  1.5  0.5   0.357%   1.649%   0.312%   0.696%   0.157%   1.283%   0.000%   0.033%   0.560%   0.045%
   35    2.2  1.5  0.5   0.130%   1.964%   0.329%   0.736%   0.099%   1.175%   0.000%   0.000%   0.610%   0.044%
   36    3.2  1.5  0.5   8.423%   1.480%   0.004%   0.007%   2.732%   0.275%   0.001%   0.000%   0.138%   1.956%
   37    4.2  1.5  0.5   1.147%   5.289%   0.656%   1.353%   0.518%   4.553%   0.074%   5.605%  10.791%   0.807%
   38    5.2  1.5  0.5   1.668%   7.674%   0.671%   1.388%   0.157%   1.366%   0.060%   6.786%  10.551%   0.789%
   39    6.2  1.5  0.5   0.146%   0.063%   9.882%   4.508%   0.534%   0.045%  19.561%   0.232%   0.006%   0.004%
   40    7.2  1.5  0.5   7.404%   1.606%   1.444%   0.646%   0.751%   0.090%   1.316%   0.019%   0.889%  11.899%
   41    8.2  1.5  0.5   2.223%   0.470%   5.728%   2.543%   0.528%   0.061%   1.727%   0.025%   0.218%   2.915%
   42    9.2  1.5  0.5   0.000%   0.000%   0.000%   0.000%   0.025%   0.003%   0.014%   0.000%   0.000%   0.005%
   43    1.2  1.5 -0.5   1.649%   0.357%   0.696%   0.312%   1.283%   0.157%   0.033%   0.000%   0.045%   0.560%
   44    2.2  1.5 -0.5   1.964%   0.130%   0.736%   0.329%   1.175%   0.099%   0.000%   0.000%   0.044%   0.610%
   45    3.2  1.5 -0.5   1.480%   8.423%   0.007%   0.004%   0.275%   2.732%   0.000%   0.001%   1.956%   0.138%
   46    4.2  1.5 -0.5   5.289%   1.147%   1.353%   0.656%   4.553%   0.518%   5.605%   0.074%   0.807%  10.791%
   47    5.2  1.5 -0.5   7.674%   1.668%   1.388%   0.671%   1.366%   0.157%   6.786%   0.060%   0.789%  10.551%
   48    6.2  1.5 -0.5   0.063%   0.146%   4.508%   9.882%   0.045%   0.534%   0.232%  19.561%   0.004%   0.006%
   49    7.2  1.5 -0.5   1.606%   7.404%   0.646%   1.444%   0.090%   0.751%   0.019%   1.316%  11.899%   0.889%
   50    8.2  1.5 -0.5   0.470%   2.223%   2.543%   5.728%   0.061%   0.528%   0.025%   1.727%   2.915%   0.218%
   51    9.2  1.5 -0.5   0.000%   0.000%   0.000%   0.000%   0.003%   0.025%   0.000%   0.014%   0.005%   0.000%
   52    1.2  1.5 -1.5   0.230%   1.033%   2.415%   5.380%   0.002%   0.014%   0.016%   1.048%   1.655%   0.124%
   53    2.2  1.5 -1.5   0.142%   0.668%   2.485%   5.333%   0.025%   0.236%   0.038%   1.249%   1.490%   0.111%
   54    3.2  1.5 -1.5   0.000%   0.008%   0.522%   0.388%   0.013%   0.001%   0.598%   0.034%   0.010%   0.001%
   55    4.2  1.5 -1.5   0.265%   1.283%   3.079%   6.926%   1.938%  16.808%   0.005%   0.337%   3.983%   0.267%
   56    5.2  1.5 -1.5   0.330%   1.892%   2.794%   6.259%   1.638%  13.598%   0.043%   3.240%   4.183%   0.342%
   57    6.2  1.5 -1.5   9.805%   2.023%   0.001%   0.003%   1.624%   0.208%   0.383%   0.003%   1.094%  14.715%
   58    7.2  1.5 -1.5   2.441%   0.516%   5.214%   2.326%   0.921%   0.107%   1.983%   0.029%   0.218%   2.916%
   59    8.2  1.5 -1.5   7.264%   1.575%   1.301%   0.586%   0.915%   0.110%   1.898%   0.028%   0.880%  11.775%
   60    9.2  1.5 -1.5   0.000%   0.000%   0.000%   0.000%   0.008%   0.001%   0.067%   0.001%   0.000%   0.002%

   Nr   State  S   Sz      51       52       53       54       55       56       57       58       59       60

    1    1.2  0.5  0.5   0.001%   0.000%   0.003%   0.004%   0.000%   0.031%   0.000%   0.000%   0.000%   0.000%
    2    2.2  0.5  0.5   0.001%   0.005%   0.000%   0.000%   0.030%   0.000%   0.000%   0.000%   0.000%   0.000%
    3    3.2  0.5  0.5   0.002%   0.001%   0.002%   0.003%   0.002%   0.028%   0.000%   0.000%   0.000%   0.000%
    4    4.2  0.5  0.5   0.179%   0.780%   1.430%   1.686%   2.201%   4.349%   0.589%   1.907%   0.038%   9.934%
    5    5.2  0.5  0.5   1.031%   0.913%   0.856%   1.539%   0.858%   5.517%   2.121%   4.281%   0.116%   5.993%
    6    6.2  0.5  0.5   1.558%   2.138%   0.399%   0.453%   3.518%   2.698%   6.711%   3.156%   0.787%   1.884%
    7    7.2  0.5  0.5   6.932%   9.377%   0.435%   0.274%   0.004%   0.001%   6.018%   3.740%   0.328%   0.194%
    8    8.2  0.5  0.5   7.376%   7.965%   0.471%   0.956%   0.000%   0.003%   2.753%   6.751%   0.039%   0.582%
    9    9.2  0.5  0.5   0.626%   0.510%  10.399%   5.028%   0.002%   0.001%   0.650%   0.244%   8.875%   0.271%
   10   10.2  0.5  0.5   7.657%   1.581%   1.798%   5.595%   0.002%   0.016%   3.101%   1.838%   0.303%   4.835%
   11   11.2  0.5  0.5   0.027%   0.100%   9.829%   7.048%   0.003%   0.000%   0.106%   0.107%  10.014%   0.060%
   12   12.2  0.5  0.5   0.006%   0.017%   0.012%   0.008%  61.267%   4.267%   0.000%   0.000%   0.000%   0.000%
   13    1.2  0.5 -0.5   0.000%   0.001%   0.004%   0.003%   0.031%   0.000%   0.000%   0.000%   0.000%   0.000%
   14    2.2  0.5 -0.5   0.005%   0.001%   0.000%   0.000%   0.000%   0.030%   0.000%   0.000%   0.000%   0.000%
   15    3.2  0.5 -0.5   0.001%   0.002%   0.003%   0.002%   0.028%   0.002%   0.000%   0.000%   0.000%   0.000%
   16    4.2  0.5 -0.5   0.780%   0.179%   1.686%   1.430%   4.349%   2.201%   1.907%   0.589%   9.934%   0.038%
   17    5.2  0.5 -0.5   0.913%   1.031%   1.539%   0.856%   5.517%   0.858%   4.281%   2.121%   5.993%   0.116%
   18    6.2  0.5 -0.5   2.138%   1.558%   0.453%   0.399%   2.698%   3.518%   3.156%   6.711%   1.884%   0.787%
   19    7.2  0.5 -0.5   9.377%   6.932%   0.274%   0.435%   0.001%   0.004%   3.740%   6.018%   0.194%   0.328%
   20    8.2  0.5 -0.5   7.965%   7.376%   0.956%   0.471%   0.003%   0.000%   6.751%   2.753%   0.582%   0.039%
   21    9.2  0.5 -0.5   0.510%   0.626%   5.028%  10.399%   0.001%   0.002%   0.244%   0.650%   0.271%   8.875%
   22   10.2  0.5 -0.5   1.581%   7.657%   5.595%   1.798%   0.016%   0.002%   1.838%   3.101%   4.835%   0.303%
   23   11.2  0.5 -0.5   0.100%   0.027%   7.048%   9.829%   0.000%   0.003%   0.107%   0.106%   0.060%  10.014%
   24   12.2  0.5 -0.5   0.017%   0.006%   0.008%   0.012%   4.267%  61.267%   0.000%   0.000%   0.000%   0.000%
   25    1.2  1.5  1.5   0.214%   0.594%   0.015%   0.010%   1.291%   0.090%   2.252%   2.147%   0.306%   0.004%
   26    2.2  1.5  1.5   0.227%   0.587%   0.059%   0.003%   1.326%   0.092%   2.333%   2.046%   0.271%   0.108%
   27    3.2  1.5  1.5   0.053%   0.040%   1.016%   1.493%   0.009%   0.001%   0.343%   0.588%   0.108%  12.881%
   28    4.2  1.5  1.5   0.002%   0.006%   0.001%   0.000%   0.354%   0.022%   0.818%   0.803%   0.096%   0.001%
   29    5.2  1.5  1.5   0.002%   0.006%   0.002%   0.001%   0.332%   0.026%   0.834%   0.767%   0.122%   0.001%
   30    6.2  1.5  1.5   0.000%   0.000%   0.000%   0.000%   0.121%   1.732%   0.722%   0.768%   0.001%   0.100%
   31    7.2  1.5  1.5   0.000%   0.000%   0.000%   0.000%   0.024%   0.340%   0.332%   0.350%   0.006%   0.928%
   32    8.2  1.5  1.5   0.000%   0.000%   0.000%   0.000%   0.098%   1.403%   0.437%   0.453%   0.005%   0.668%
   33    9.2  1.5  1.5   1.357%   0.470%  18.883%  26.561%   0.000%   0.004%   0.746%   0.801%   0.153%  22.554%
   34    1.2  1.5  0.5   1.200%   0.425%   0.217%   0.305%   0.033%   0.435%   4.191%   4.361%   0.013%   2.088%
   35    2.2  1.5  0.5   0.543%   0.225%   0.548%   0.744%   0.033%   0.503%   1.592%   1.867%   0.044%   7.168%
   36    3.2  1.5  0.5   0.088%   0.166%   0.002%   0.023%   1.936%   0.125%   0.847%   0.626%   0.091%   0.043%
   37    4.2  1.5  0.5   0.001%   0.000%   0.003%   0.004%   0.097%   1.401%   0.055%   0.058%   0.013%   1.611%
   38    5.2  1.5  0.5   0.002%   0.001%   0.003%   0.004%   0.098%   1.416%   0.043%   0.049%   0.008%   1.585%
   39    6.2  1.5  0.5   0.000%   0.000%   0.012%   0.009%   0.006%   0.000%   0.053%   0.048%   1.659%   0.010%
   40    7.2  1.5  0.5   0.000%   0.000%   0.000%   0.000%   1.378%   0.096%   0.471%   0.454%   0.678%   0.005%
   41    8.2  1.5  0.5   0.000%   0.000%   0.000%   0.000%   0.344%   0.024%   0.341%   0.324%   0.885%   0.006%
   42    9.2  1.5  0.5  11.877%  33.127%   1.081%   0.772%   0.010%   0.001%  11.737%  11.269%   1.516%   0.012%
   43    1.2  1.5 -0.5   0.425%   1.200%   0.305%   0.217%   0.435%   0.033%   4.361%   4.191%   2.088%   0.013%
   44    2.2  1.5 -0.5   0.225%   0.543%   0.744%   0.548%   0.503%   0.033%   1.867%   1.592%   7.168%   0.044%
   45    3.2  1.5 -0.5   0.166%   0.088%   0.023%   0.002%   0.125%   1.936%   0.626%   0.847%   0.043%   0.091%
   46    4.2  1.5 -0.5   0.000%   0.001%   0.004%   0.003%   1.401%   0.097%   0.058%   0.055%   1.611%   0.013%
   47    5.2  1.5 -0.5   0.001%   0.002%   0.004%   0.003%   1.416%   0.098%   0.049%   0.043%   1.585%   0.008%
   48    6.2  1.5 -0.5   0.000%   0.000%   0.009%   0.012%   0.000%   0.006%   0.048%   0.053%   0.010%   1.659%
   49    7.2  1.5 -0.5   0.000%   0.000%   0.000%   0.000%   0.096%   1.378%   0.454%   0.471%   0.005%   0.678%
   50    8.2  1.5 -0.5   0.000%   0.000%   0.000%   0.000%   0.024%   0.344%   0.324%   0.341%   0.006%   0.885%
   51    9.2  1.5 -0.5  33.127%  11.877%   0.772%   1.081%   0.001%   0.010%  11.269%  11.737%   0.012%   1.516%
   52    1.2  1.5 -1.5   0.594%   0.214%   0.010%   0.015%   0.090%   1.291%   2.147%   2.252%   0.004%   0.306%
   53    2.2  1.5 -1.5   0.587%   0.227%   0.003%   0.059%   0.092%   1.326%   2.046%   2.333%   0.108%   0.271%
   54    3.2  1.5 -1.5   0.040%   0.053%   1.493%   1.016%   0.001%   0.009%   0.588%   0.343%  12.881%   0.108%
   55    4.2  1.5 -1.5   0.006%   0.002%   0.000%   0.001%   0.022%   0.354%   0.803%   0.818%   0.001%   0.096%
   56    5.2  1.5 -1.5   0.006%   0.002%   0.001%   0.002%   0.026%   0.332%   0.767%   0.834%   0.001%   0.122%
   57    6.2  1.5 -1.5   0.000%   0.000%   0.000%   0.000%   1.732%   0.121%   0.768%   0.722%   0.100%   0.001%
   58    7.2  1.5 -1.5   0.000%   0.000%   0.000%   0.000%   0.340%   0.024%   0.350%   0.332%   0.928%   0.006%
   59    8.2  1.5 -1.5   0.000%   0.000%   0.000%   0.000%   1.403%   0.098%   0.453%   0.437%   0.668%   0.005%
   60    9.2  1.5 -1.5   0.470%   1.357%  26.561%  18.883%   0.004%   0.000%   0.801%   0.746%  22.554%   0.153%


 Property matrices transformed in SO basis (not sym. adapted)
 ============================================================

 No matrix element <i|DMX|i> larger than 5E-7
 No matrix element <i|DMX|1> larger than 5E-7

 No matrix element <i|DMY|i> larger than 5E-7
 No matrix element <i|DMY|1> larger than 5E-7

 No matrix element <i|DMZ|i> larger than 5E-7
 No matrix element <i|DMZ|1> larger than 5E-7


 **********************************************************************************************************************************
 DATASETS  * FILE   NREC   LENGTH (MB)   RECORD NAMES
              1      21       57.06       500      610      700      900      950      970     1000      129      960     1100   
                                          VAR    BASINP    GEOM    SYMINP    ZMAT    AOBASIS   BASIS     P2S    ABASIS      S 
                                         1400     1410     1420     1200     1210     1080     1700     1600     1650     1380   
                                           T        V       ECP      H0       H01     AOSYM    OPER      SMH    MOLCAS    JKOP   
                                         1700(1)
                                         OPER   

              2       7     4759.87       700     1000      520     2100     2140     5203     5303   
                                         GEOM     BASIS   MCVARS     RHF     MCSCF    MRCI     MRCI   

 PROGRAMS   *        TOTAL        CI        CI        CI     MULTI   RHF-SCF       INT
 CPU TIMES  *    344947.43 312620.32  10185.40  22131.70      6.36      0.47      2.96
 REAL TIME  *    347870.66 SEC
 DISK USED  *         4.70 GB (local),       37.91 GB (total)
 SF USED    *        30.23 GB
 GA USED    *         0.00 MB       (max)       0.00 MB       (current)
 **********************************************************************************************************************************

 CI/USERDEF energy=   -295.324913544362

              CI              CI           MULTI         RHF-SCF
   -295.23643537   -295.23745970   -294.28426562   -294.74684227
 **********************************************************************************************************************************
 Molpro calculation terminated with 1 warning(s)
