
 Working directory              : /wrk/irikura/molpro.uGFXn7NY0V/
 Global scratch directory       : /wrk/irikura/molpro.uGFXn7NY0V/
 Wavefunction directory         : /home/irikura/wfu/
 Main file repository           : /wrk/irikura/molpro.uGFXn7NY0V/

 id        : nistki

 Nodes            nprocs
 pn112695.nist.gov    8
 GA implementation: MPI file
 GA implementation (serial work in mppx): MPI file

 Using customized tuning parameters: mindgm=1; mindgv=20; mindgc=4; mindgr=1; noblas=0; minvec=7
 default implementation of scratch files=sf  


 Variables initialized (1040), CPU time= 0.01 sec
 ***,I SO-CI
                                                                                 ! active space (7/7)
                                                                                 ! additional diffuse spdf functions
 memory,4000,M;
 
 gprint,orbitals,civector;
                                                                                 !gthresh,energy=1.d-10,coeff=1.d-8;
 
 symmetry,xyz
 geometry={I};
 
 basis={
 ecp,i,ECP28MDF;
 spdfgh,i,aug-cc-pwCVQZ-PP;C; spdf,1,even,nprim=1,ratio=3.0;
 }
 
 {rhf;wf,charge=-1}
 
 NDOUB=12
 NQUAR=9
 
 {multi
     occ,7,9
     closed,6,3
     wf,charge=0,sym=2,spin=1;state,NDOUB; weight,3[25],(NDOUB-3)[1]
     wf,charge=0,sym=2,spin=3;state,NQUAR; weight,all,1
     expec2,lxx,lyy,lzz;
 }
 table, energy, ll
 title, Energies and &lt;L**2&gt; values
 
 core,0,0
 
 {ci;wf,sym=2,spin=1;state,NDOUB; save,5203.2}
 hlsdiag = energd4
 {ci;wf,sym=2,spin=3;state,NQUAR; save,5303.2}
 hlsdiag(NDOUB+1) = energd4
 
 table,hlsdiag
 
 {ci;hlsmat,ecp,5203.2,5303.2;print,vls=0,hls=0}                                 !compute and diagonalize SO matrix
 Commands initialized (846), CPU time= 0.01 sec, 717 directives.
 Default parameters read. Elapsed time= 0.11 sec

 Checking input...
 Passed
1


                                         ***  PROGRAM SYSTEM MOLPRO  ***
                                       Copyright, TTI GmbH Stuttgart, 2015
                                    Version 2023.2 linked Fri Sep 22 03:27:09 2023


 **********************************************************************************************************************************
 LABEL *   I SO-CI                                                                                                                                                       
  (32 PROC) 64 bit mpp version                                                           DATE: 04-Nov-24          TIME: 10:02:57  
 **********************************************************************************************************************************

 SHA1:             3c61bfe44d37c8635c785372c339f5cbdd4e4b59
 **********************************************************************************************************************************

 Memory per process:      4000 MW
 Total memory per node:  32000 MW

 GA preallocation disabled
 GA check disabled

 Variable memory set to 4000.0 MW


 ZSYMEL=XYZ

 SETTING BASIS          =    USERDEF


 Recomputing integrals since basis changed


 Using spherical harmonics

 Library entry I    ECP ECP28MDF                 selected for group  1
 Library entry I      S AUG-CC-PWCVQZ-PP     selected for orbital group  1
 Even tempered I  S diffuse               selected for group 1    nprim= 1    centre=  0.011    ratio= 3.000    dratio= 1.000
 Library entry I      P AUG-CC-PWCVQZ-PP     selected for orbital group  1
 Even tempered I  P diffuse               selected for group 1    nprim= 1    centre=  0.009    ratio= 3.000    dratio= 1.000
 Library entry I      D AUG-CC-PWCVQZ-PP     selected for orbital group  1
 Even tempered I  D diffuse               selected for group 1    nprim= 1    centre=  0.021    ratio= 3.000    dratio= 1.000
 Library entry I      F AUG-CC-PWCVQZ-PP     selected for orbital group  1
 Even tempered I  F diffuse               selected for group 1    nprim= 1    centre=  0.042    ratio= 3.000    dratio= 1.000
 Library entry I      G AUG-CC-PWCVQZ-PP     selected for orbital group  1
 Library entry I      H AUG-CC-PWCVQZ-PP     selected for orbital group  1


 PROGRAM * SEWARD (Integral evaluation for generally contracted gaussian basis sets)     Author: Roland Lindh, 1990

 Geometry written to block  1 of record 700

 Orientation using atomic masses  
 Molecule type: Atom
 User-specified symmetry elements: XYZ
 Symmetry elements: XYZ
 Rotational constants:       0.0000000      0.0000000      0.0000000 GHz  (calculated with average atomic masses)

 Point group  Ci  



 ATOMIC COORDINATES

 NR  ATOM    CHARGE       X              Y              Z

   1  I      25.00    0.000000000    0.000000000    0.000000000

 NUCLEAR CHARGE:                   25
 NUMBER OF PRIMITIVE AOS:         320
 NUMBER OF SYMMETRY AOS:          248
 NUMBER OF CONTRACTIONS:          185   (   92Ag  +   93Au  )
 NUMBER OF INNER CORE ORBITALS:     0   (    0Ag  +    0Au  )
 NUMBER OF OUTER CORE ORBITALS:     9   (    6Ag  +    3Au  )
 NUMBER OF VALENCE ORBITALS:        4   (    1Ag  +    3Au  )


 LX: Ag           LY: Ag           LZ: Ag 


 NUCLEAR REPULSION ENERGY    0.00000000

 EXTRA SYMMETRY OF AOS IN SYMMETRY 1:   1 1 1 1 1 1 1 1 1 1   1 2 3 4 5 6 2 3 4 5   6 2 3 4 5 6 2 3 4 5   6 2 3 4 5 6 2 3 4 5
                                        6 2 3 4 5 6 2 3 4 5   6 2 3 4 5 6 7 8 910  1112131415 7 8 91011  12131415 7 8 9101112
                                       131415 7 8 910111213  1415
 EXTRA SYMMETRY OF AOS IN SYMMETRY 2:   1 2 3 1 2 3 1 2 3 1   2 3 1 2 3 1 2 3 1 2   3 1 2 3 1 2 3 1 2 3   1 2 3 4 5 6 7 8 910
                                        4 5 6 7 8 910 4 5 6   7 8 910 4 5 6 7 8 9  10 4 5 6 7 8 910 4 5   6 7 8 910 4 5 6 7 8
                                        9101112131415161718  192021


 Eigenvalues of metric

         1 0.194E-05 0.816E-04 0.816E-04 0.816E-04 0.816E-04 0.816E-04 0.434E-03 0.969E-03
         2 0.110E-03 0.110E-03 0.110E-03 0.120E-02 0.120E-02 0.120E-02 0.837E-02 0.837E-02


 Contracted 2-electron integrals neglected if value below      1.0D-12
 AO integral compression algorithm  1   Integral accuracy      1.0D-12

     159.646 MB (compressed) written to integral file ( 14.8%)

     Node minimum: 15.466 MB, node maximum: 24.904 MB


 NUMBER OF SORTED TWO-ELECTRON INTEGRALS:    9344772.     BUFFER LENGTH:  32768
 NUMBER OF SEGMENTS:   1  SEGMENT LENGTH:    9344772      RECORD LENGTH: 524288

 Memory used in sort:       9.90 MW

 SORT1 READ   134353782. AND WROTE     1729514. INTEGRALS IN      5 RECORDS. CPU TIME:     0.54 SEC, REAL TIME:     0.57 SEC
 SORT2 READ    13879740. AND WROTE    74805201. INTEGRALS IN    680 RECORDS. CPU TIME:     0.19 SEC, REAL TIME:     0.21 SEC

 Node minimum:     9343692.  Node maximum:     9360852. integrals

 OPERATOR DM      FOR CENTER  0  COORDINATES:    0.000000    0.000000    0.000000


 **********************************************************************************************************************************
 DATASETS  * FILE   NREC   LENGTH (MB)   RECORD NAMES
              1      19       29.52       500      610      700      900      950      970     1000      129      960     1100   
                                          VAR    BASINP    GEOM    SYMINP    ZMAT    AOBASIS   BASIS     P2S    ABASIS      S 
                                         1400     1410     1420     1200     1210     1080     1700     1600     1650   
                                           T        V       ECP      H0       H01     AOSYM    OPER      SMH    MOLCAS    

 PROGRAMS   *        TOTAL       INT
 CPU TIMES  *         3.15      2.94
 REAL TIME  *         5.18 SEC
 DISK USED  *        29.89 MB (local),      522.56 MB (total)
 GA USED    *         0.00 MB       (max)       0.00 MB       (current)
 **********************************************************************************************************************************


 Program * Restricted Hartree-Fock

 Orbital guess generated from atomic densities.

 Initial occupancy:   7   6

 NELEC=   26   SYM=1   MS2= 0   THRE=1.0D-08   THRD=3.2D-06   THRG=3.2D-06  HFMA2=F  DIIS_START=2   DIIS_MAX=10   DIIS_INCORE=F

 Level shifts:    0.00 (CLOSED)    0.00 (OPEN)    0.30 (GAP_MIN)

 ITER           ETOT              DE          GRAD        DDIFF     DIIS  NEXP   TIME(IT)  TIME(TOT)  DIAG
   1     -294.71888598    -294.71888598     0.00D+00     0.73D-01     0     0       0.04      0.09    start
   2     -294.74431542      -0.02542943     0.35D-02     0.39D-02     1     0       0.04      0.13    diag
   3     -294.74637849      -0.00206307     0.19D-02     0.94D-03     2     0       0.04      0.17    diag
   4     -294.74675619      -0.00037770     0.35D-03     0.57D-03     3     0       0.04      0.21    diag
   5     -294.74683481      -0.00007862     0.12D-03     0.29D-03     4     0       0.04      0.25    diag
   6     -294.74684197      -0.00000716     0.31D-04     0.11D-03     5     0       0.04      0.29    diag
   7     -294.74684226      -0.00000028     0.51D-05     0.26D-04     6     0       0.05      0.34    diag
   8     -294.74684227      -0.00000001     0.10D-05     0.46D-05     7     0       0.04      0.38    fixocc
   9     -294.74684227      -0.00000000     0.18D-06     0.15D-05     8     0       0.04      0.42    diag
  10     -294.74684227      -0.00000000     0.29D-07     0.96D-07     0     0       0.05      0.47    diag/orth

 Final occupancy:   7   6

 !RHF STATE 1.1 Energy               -294.746842268717
  RHF One-electron energy            -520.926302813549
  RHF Two-electron energy             226.179460544832
  RHF Kinetic energy                  110.887727635287
  RHF Nuclear energy                    0.000000000000
  RHF Virial quotient                  -2.658065491595

 !RHF STATE 1.1 Dipole moment           0.00000000     0.00000000     0.00000000
 Dipole moment /Debye                   0.00000000     0.00000000     0.00000000

 ELECTRON ORBITALS
 =================

  Orbital  Occupation    Energy    Cen Mu Typ  Coefficients
    1.1     2.00000    -7.45092     1  1  s    1.00212
    2.1     2.00000    -2.00365     1  1  d1+  0.99786
    3.1     2.00000    -2.00365     1  1  d2+  0.99931
    4.1     2.00000    -2.00365     1  1  d1-  0.96775
    5.1     2.00000    -2.00365     1  1  d2-  0.96973
    6.1     2.00000    -2.00365     1  1  d0   0.99958
    7.1     2.00000    -0.60773     1  2  s    0.97340
    1.2     2.00000    -5.27628     1  1  px   1.00042
    2.2     2.00000    -5.27628     1  1  pz   1.00033
    3.2     2.00000    -5.27628     1  1  py   1.00033
    4.2     2.00000    -0.12599     1  1  px  -0.32248    1  4  px   0.40596    1  5  px   0.45491    1  6  px   0.25437
    5.2     2.00000    -0.12599     1  1  py  -0.32248    1  4  py   0.40596    1  5  py   0.45490    1  6  py   0.25437
    6.2     2.00000    -0.12599     1  1  pz  -0.32248    1  4  pz   0.40596    1  5  pz   0.45490    1  6  pz   0.25437


 HOMO      6.2    -0.125989 =      -3.4283eV
 LUMO      7.2     0.097564 =       2.6549eV
 LUMO-HOMO         0.223553 =       6.0832eV

 Orbitals saved in record  2100.2


 **********************************************************************************************************************************
 DATASETS  * FILE   NREC   LENGTH (MB)   RECORD NAMES
              1      19       29.52       500      610      700      900      950      970     1000      129      960     1100   
                                          VAR    BASINP    GEOM    SYMINP    ZMAT    AOBASIS   BASIS     P2S    ABASIS      S 
                                         1400     1410     1420     1200     1210     1080     1700     1600     1650   
                                           T        V       ECP      H0       H01     AOSYM    OPER      SMH    MOLCAS    

              2       4        0.67       700     1000      520     2100   
                                         GEOM     BASIS   MCVARS     RHF  

 PROGRAMS   *        TOTAL   RHF-SCF       INT
 CPU TIMES  *         3.62      0.47      2.94
 REAL TIME  *         6.28 SEC
 DISK USED  *        31.41 MB (local),      534.71 MB (total)
 GA USED    *         0.00 MB       (max)       0.00 MB       (current)
 **********************************************************************************************************************************
 SETTING NDOUB          =        12.00000000                                  
 SETTING NQUAR          =         9.00000000                                  

 PROGRAM * MULTI (Direct Multiconfiguration SCF)       Authors: P.J. Knowles, H.-J. Werner (1984)
                                                                D.A. Kreplin, P.J. Knowles, H.-J. Werner (2019)

 Number of closed-shell orbitals:   9 (    6    3)
 Number of active  orbitals:        7 (    1    6)
 Number of external orbitals:     169 (   85   84)

 State symmetry 1

 Number of active electrons:   7    Spin symmetry=Doublet   Space symmetry=2
 Number of states:            12
 Number of CSFs:             420   (600 determinants, 1225 intermediate states)

 State symmetry 2

 Number of active electrons:   7    Spin symmetry=Quartet   Space symmetry=2
 Number of states:             9
 Number of CSFs:             168   (180 determinants, 441 intermediate states)

 Molecular orbitals read from record     2100.2  Type=RHF/CANONICAL  
 *** IN SYMMETRY 1 ORBITAL  2 SYMMETRY CONTAMINATION OF 0.586D-01 HAS BEEN REMOVED
 *** IN SYMMETRY 1 ORBITAL  3 SYMMETRY CONTAMINATION OF 0.276D-01 HAS BEEN REMOVED
 *** IN SYMMETRY 1 ORBITAL  4 SYMMETRY CONTAMINATION OF 0.250D+00 HAS BEEN REMOVED
 *** IN SYMMETRY 1 ORBITAL  5 SYMMETRY CONTAMINATION OF 0.208D+00 HAS BEEN REMOVED
 *** IN SYMMETRY 1 ORBITAL  6 SYMMETRY CONTAMINATION OF 0.298D-03 HAS BEEN REMOVED

 EXTRA SYMMETRY OF MOS IN SYMMETRY 1:   1 4 5 6 3 2 1 1 3 5   4 6 2 1 3 5 2 6 4 1   4 6 2 5 31514 7 812  11 91310 1 2 6 4 3 5
                                       1415 812 911 71310 2   6 4 3 5 1 812 71415  1311 910 2 6 4 3 5 1   812151411 91310 7 2
                                        6 4 3 5 1 2 6 3 4 5   1 1
 *** IN SYMMETRY 2 ORBITAL  2 SYMMETRY CONTAMINATION OF 0.133D-01 HAS BEEN REMOVED
 *** IN SYMMETRY 2 ORBITAL  3 SYMMETRY CONTAMINATION OF 0.133D-01 HAS BEEN REMOVED
 *** IN SYMMETRY 2 ORBITAL  5 SYMMETRY CONTAMINATION OF 0.255D-02 HAS BEEN REMOVED
 *** IN SYMMETRY 2 ORBITAL  6 SYMMETRY CONTAMINATION OF 0.255D-02 HAS BEEN REMOVED
 *** IN SYMMETRY 2 ORBITAL  7 SYMMETRY CONTAMINATION OF 0.392D-01 HAS BEEN REMOVED
 *** IN SYMMETRY 2 ORBITAL  8 SYMMETRY CONTAMINATION OF 0.170D-01 HAS BEEN REMOVED
 *** IN SYMMETRY 2 ORBITAL  9 SYMMETRY CONTAMINATION OF 0.272D-01 HAS BEEN REMOVED
 EXTRA SYMMETRY OF MOS IN SYMMETRY 2:   1 3 2 1 2 3 1 2 3 1   2 3 7 9 810 6 5 4 1   2 310 8 7 9 6 4 5 1   2 310 8 7 9 4 5 6 8
                                       10 5 4 7 9 6 1 2 310   8 6 5 4 7 914161915  1718202113121110 8 7   9 5 4 6 1 2 3 1 2 3
                                        9 7 8 610 5 4 2 3 1   2 1 3

 Wavefunction dump at record             2140.2

 Convergence thresholds  0.10E-04 (gradient)  0.10E-05 (energy)

 Weight factors for state symmetry  1:    0.26882   0.26882   0.26882   0.01075   0.01075   0.01075   0.01075   0.01075
                                          0.01075   0.01075   0.01075   0.01075
 Weight factors for state symmetry  2:    0.01075   0.01075   0.01075   0.01075   0.01075   0.01075   0.01075   0.01075
                                          0.01075
 
 Number of orbital rotations:  1375  ( 24 closed/active, 762 closed/virtual, 0 active/active, 589 active/virtual )
 Total number of variables:    10195
 
 Second-order MCSCF: L-BFGS accelerated
 
 ITER  MIC  NCI  NEG     ENERGY(VAR)    ENERGY(PROJ) ENERGY CHANGE       GRAD(0)  GRAD(ORB)   GRAD(CI)      STEP      TIME
   1   12   31    0   -294.54853603    -294.61667442   -0.06813839    0.27390605 0.00090373 0.00217507  0.12E+01      1.95
   2    8   24    0   -294.59385501    -294.60063387   -0.00677886    0.21765030 0.00058546 0.00064058  0.49E+00      3.96
   3    7   21    0   -294.60069168    -294.60069368   -0.00000200    0.00229100 0.00000029 0.00000182  0.14E-01      5.88
   4    5   13    0   -294.60069368    -294.60069368   -0.00000000    0.00000085 0.00000000 0.00000004  0.37E-05      7.33

 CONVERGENCE REACHED!  Final gradient:    0.00000001 ( 0.70E-08)
                       Final energy:   -294.60069368
 
 Results for state 1.2 Doublet
 =============================
 !MCSCF STATE 1.2 Doublet Energy              -294.656626531569
 Nuclear energy                                  0.00000000
 Kinetic energy                                110.88934988
 One electron energy                          -513.86120858
 Two electron energy                           219.20458205
 Virial ratio                                    3.65721304
 
 !MCSCF STATE 1.2 Doublet Dipole moment          0.00000000     0.00000000     0.00000000
 Dipole moment /Debye                            0.00000000     0.00000000     0.00000000
 
 Results for state 2.2 Doublet
 =============================
 !MCSCF STATE 2.2 Doublet Energy              -294.656626531489
 Nuclear energy                                  0.00000000
 Kinetic energy                                110.88934989
 One electron energy                          -513.86120860
 Two electron energy                           219.20458207
 Virial ratio                                    3.65721304
 
 !MCSCF STATE 2.2 Doublet Dipole moment          0.00000000     0.00000000     0.00000000
 Dipole moment /Debye                            0.00000000     0.00000000     0.00000000
 
 Results for state 3.2 Doublet
 =============================
 !MCSCF STATE 3.2 Doublet Energy              -294.656626531469
 Nuclear energy                                  0.00000000
 Kinetic energy                                110.88934989
 One electron energy                          -513.86120860
 Two electron energy                           219.20458207
 Virial ratio                                    3.65721304
 
 !MCSCF STATE 3.2 Doublet Dipole moment          0.00000000     0.00000000     0.00000000
 Dipole moment /Debye                            0.00000000     0.00000000     0.00000000
 
 Results for state 4.2 Doublet
 =============================
 !MCSCF STATE 4.2 Doublet Energy              -294.366536218632
 Nuclear energy                                  0.00000000
 Kinetic energy                                110.20203443
 One electron energy                          -507.68929212
 Two electron energy                           213.32275590
 Virial ratio                                    3.67115338
 
 !MCSCF STATE 4.2 Doublet Dipole moment          0.00000000     0.00000000     0.00000000
 Dipole moment /Debye                            0.00000000     0.00000000     0.00000000
 
 Results for state 5.2 Doublet
 =============================
 !MCSCF STATE 5.2 Doublet Energy              -294.366536218217
 Nuclear energy                                  0.00000000
 Kinetic energy                                110.20203444
 One electron energy                          -507.68929215
 Two electron energy                           213.32275593
 Virial ratio                                    3.67115338
 
 !MCSCF STATE 5.2 Doublet Dipole moment          0.00000000     0.00000000     0.00000000
 Dipole moment /Debye                            0.00000000     0.00000000     0.00000000
 
 Results for state 6.2 Doublet
 =============================
 !MCSCF STATE 6.2 Doublet Energy              -294.366536218066
 Nuclear energy                                  0.00000000
 Kinetic energy                                110.20203444
 One electron energy                          -507.68929216
 Two electron energy                           213.32275594
 Virial ratio                                    3.67115338
 
 !MCSCF STATE 6.2 Doublet Dipole moment          0.00000000     0.00000000     0.00000000
 Dipole moment /Debye                            0.00000000     0.00000000     0.00000000
 
 Results for state 7.2 Doublet
 =============================
 !MCSCF STATE 7.2 Doublet Energy              -294.366536216682
 Nuclear energy                                  0.00000000
 Kinetic energy                                110.20203445
 One electron energy                          -507.68929225
 Two electron energy                           213.32275604
 Virial ratio                                    3.67115337
 
 !MCSCF STATE 7.2 Doublet Dipole moment          0.00000000     0.00000000     0.00000000
 Dipole moment /Debye                            0.00000000     0.00000000     0.00000000
 
 Results for state 8.2 Doublet
 =============================
 !MCSCF STATE 8.2 Doublet Energy              -294.366536216679
 Nuclear energy                                  0.00000000
 Kinetic energy                                110.20203445
 One electron energy                          -507.68929225
 Two electron energy                           213.32275604
 Virial ratio                                    3.67115337
 
 !MCSCF STATE 8.2 Doublet Dipole moment          0.00000000     0.00000000     0.00000000
 Dipole moment /Debye                            0.00000000     0.00000000     0.00000000
 
 Results for state 9.2 Doublet
 =============================
 !MCSCF STATE 9.2 Doublet Energy              -294.360199404929
 Nuclear energy                                  0.00000000
 Kinetic energy                                110.25742815
 One electron energy                          -507.91229887
 Two electron energy                           213.55209947
 Virial ratio                                    3.66975391
 
 !MCSCF STATE 9.2 Doublet Dipole moment          0.00000000     0.00000000     0.00000000
 Dipole moment /Debye                            0.00000000     0.00000000     0.00000000
 
 Results for state 10.2 Doublet
 ==============================
 !MCSCF STATE 10.2 Doublet Energy             -294.360199404742
 Nuclear energy                                  0.00000000
 Kinetic energy                                110.25742815
 One electron energy                          -507.91229888
 Two electron energy                           213.55209948
 Virial ratio                                    3.66975391
 
 !MCSCF STATE 10.2 Doublet Dipole moment         0.00000000     0.00000000     0.00000000
 Dipole moment /Debye                            0.00000000     0.00000000     0.00000000
 
 Results for state 11.2 Doublet
 ==============================
 !MCSCF STATE 11.2 Doublet Energy             -294.360199402933
 Nuclear energy                                  0.00000000
 Kinetic energy                                110.25742816
 One electron energy                          -507.91229896
 Two electron energy                           213.55209955
 Virial ratio                                    3.66975391
 
 !MCSCF STATE 11.2 Doublet Dipole moment         0.00000000     0.00000000     0.00000000
 Dipole moment /Debye                            0.00000000     0.00000000     0.00000000
 
 Results for state 12.2 Doublet
 ==============================
 !MCSCF STATE 12.2 Doublet Energy             -294.359032689951
 Nuclear energy                                  0.00000000
 Kinetic energy                                110.19813074
 One electron energy                          -507.67787341
 Two electron energy                           213.31884072
 Virial ratio                                    3.67117991
 
 !MCSCF STATE 12.2 Doublet Dipole moment         0.00000000     0.00000000     0.00000000
 Dipole moment /Debye                            0.00000000     0.00000000     0.00000000
 
 Results for state 1.2 Quartet
 =============================
 !MCSCF STATE 1.2 Quartet Energy              -294.377996244978
 Nuclear energy                                  0.00000000
 Kinetic energy                                110.17456889
 One electron energy                          -507.60011811
 Two electron energy                           213.22212187
 Virial ratio                                    3.67192329
 
 !MCSCF STATE 1.2 Quartet Dipole moment          0.00000000     0.00000000     0.00000000
 Dipole moment /Debye                            0.00000000     0.00000000     0.00000000
 
 Results for state 2.2 Quartet
 =============================
 !MCSCF STATE 2.2 Quartet Energy              -294.377996244901
 Nuclear energy                                  0.00000000
 Kinetic energy                                110.17456889
 One electron energy                          -507.60011812
 Two electron energy                           213.22212188
 Virial ratio                                    3.67192329
 
 !MCSCF STATE 2.2 Quartet Dipole moment          0.00000000     0.00000000     0.00000000
 Dipole moment /Debye                            0.00000000     0.00000000     0.00000000
 
 Results for state 3.2 Quartet
 =============================
 !MCSCF STATE 3.2 Quartet Energy              -294.377996244225
 Nuclear energy                                  0.00000000
 Kinetic energy                                110.17456890
 One electron energy                          -507.60011821
 Two electron energy                           213.22212196
 Virial ratio                                    3.67192329
 
 !MCSCF STATE 3.2 Quartet Dipole moment          0.00000000     0.00000000     0.00000000
 Dipole moment /Debye                            0.00000000     0.00000000     0.00000000
 
 Results for state 4.2 Quartet
 =============================
 !MCSCF STATE 4.2 Quartet Energy              -294.370352940324
 Nuclear energy                                  0.00000000
 Kinetic energy                                110.18453511
 One electron energy                          -507.63351623
 Two electron energy                           213.26316329
 Virial ratio                                    3.67161224
 
 !MCSCF STATE 4.2 Quartet Dipole moment          0.00000000     0.00000000     0.00000000
 Dipole moment /Debye                            0.00000000     0.00000000     0.00000000
 
 Results for state 5.2 Quartet
 =============================
 !MCSCF STATE 5.2 Quartet Energy              -294.370352940005
 Nuclear energy                                  0.00000000
 Kinetic energy                                110.18453511
 One electron energy                          -507.63351626
 Two electron energy                           213.26316332
 Virial ratio                                    3.67161224
 
 !MCSCF STATE 5.2 Quartet Dipole moment          0.00000000     0.00000000     0.00000000
 Dipole moment /Debye                            0.00000000     0.00000000     0.00000000
 
 Results for state 6.2 Quartet
 =============================
 !MCSCF STATE 6.2 Quartet Energy              -294.370352939885
 Nuclear energy                                  0.00000000
 Kinetic energy                                110.18453511
 One electron energy                          -507.63351627
 Two electron energy                           213.26316333
 Virial ratio                                    3.67161224
 
 !MCSCF STATE 6.2 Quartet Dipole moment          0.00000000     0.00000000     0.00000000
 Dipole moment /Debye                            0.00000000     0.00000000     0.00000000
 
 Results for state 7.2 Quartet
 =============================
 !MCSCF STATE 7.2 Quartet Energy              -294.370352938817
 Nuclear energy                                  0.00000000
 Kinetic energy                                110.18453513
 One electron energy                          -507.63351636
 Two electron energy                           213.26316342
 Virial ratio                                    3.67161224
 
 !MCSCF STATE 7.2 Quartet Dipole moment          0.00000000     0.00000000     0.00000000
 Dipole moment /Debye                            0.00000000     0.00000000     0.00000000
 
 Results for state 8.2 Quartet
 =============================
 !MCSCF STATE 8.2 Quartet Energy              -294.370352938813
 Nuclear energy                                  0.00000000
 Kinetic energy                                110.18453513
 One electron energy                          -507.63351636
 Two electron energy                           213.26316342
 Virial ratio                                    3.67161224
 
 !MCSCF STATE 8.2 Quartet Dipole moment          0.00000000     0.00000000     0.00000000
 Dipole moment /Debye                            0.00000000     0.00000000     0.00000000
 
 Results for state 9.2 Quartet
 =============================
 !MCSCF STATE 9.2 Quartet Energy              -294.359457029755
 Nuclear energy                                  0.00000000
 Kinetic energy                                110.19391205
 One electron energy                          -507.66225322
 Two electron energy                           213.30279619
 Virial ratio                                    3.67128602
 
 !MCSCF STATE 9.2 Quartet Dipole moment          0.00000000     0.00000000     0.00000000
 Dipole moment /Debye                            0.00000000     0.00000000     0.00000000
 
 State-averaged charge density matrix saved on record 2140.2 (density set 1)
 
 No non-zero expectation values
 
 Expectation values for two-electron operators:
 
 ? Warning
 ? Transition properties are only calculated between states of the same symmetry
 ? The problem occurs in mu_properties_expec2

 !MCSCF expec      <1.2 Doublet|LXLX|1.2 Doublet>     0.999999999601
 !MCSCF expec      <2.2 Doublet|LXLX|2.2 Doublet>     0.999999971128
 !MCSCF expec      <3.2 Doublet|LXLX|3.2 Doublet>     0.000000029270
 !MCSCF expec      <4.2 Doublet|LXLX|4.2 Doublet>     3.150778657838
 !MCSCF expec      <5.2 Doublet|LXLX|5.2 Doublet>     3.999999999328
 !MCSCF expec      <6.2 Doublet|LXLX|6.2 Doublet>     1.000000000549
 !MCSCF expec      <7.2 Doublet|LXLX|7.2 Doublet>     0.999999231927
 !MCSCF expec      <8.2 Doublet|LXLX|8.2 Doublet>     0.849222110407
 !MCSCF expec      <9.2 Doublet|LXLX|9.2 Doublet>    -0.000000000006
 !MCSCF expec    <10.2 Doublet|LXLX|10.2 Doublet>     1.000000000001
 !MCSCF expec    <11.2 Doublet|LXLX|11.2 Doublet>     1.000000000001
 !MCSCF expec    <12.2 Doublet|LXLX|12.2 Doublet>    -0.000000000004
 !MCSCF expec      <1.2 Quartet|LXLX|1.2 Quartet>     0.000000005760
 !MCSCF expec      <2.2 Quartet|LXLX|2.2 Quartet>     0.999999994237
 !MCSCF expec      <3.2 Quartet|LXLX|3.2 Quartet>     1.000000000004
 !MCSCF expec      <4.2 Quartet|LXLX|4.2 Quartet>     3.154170710881
 !MCSCF expec      <5.2 Quartet|LXLX|5.2 Quartet>     3.999999941084
 !MCSCF expec      <6.2 Quartet|LXLX|6.2 Quartet>     1.000000043215
 !MCSCF expec      <7.2 Quartet|LXLX|7.2 Quartet>     1.000000000004
 !MCSCF expec      <8.2 Quartet|LXLX|8.2 Quartet>     0.845827359052
 !MCSCF expec      <9.2 Quartet|LXLX|9.2 Quartet>    -0.000000000005
 
 !MCSCF expec      <1.2 Doublet|LYLY|1.2 Doublet>     0.000000000404
 !MCSCF expec      <2.2 Doublet|LYLY|2.2 Doublet>     0.999999999994
 !MCSCF expec      <3.2 Doublet|LYLY|3.2 Doublet>     0.999999999601
 !MCSCF expec      <4.2 Doublet|LYLY|4.2 Doublet>     0.008001564729
 !MCSCF expec      <5.2 Doublet|LYLY|5.2 Doublet>     0.999999999948
 !MCSCF expec      <6.2 Doublet|LYLY|6.2 Doublet>     1.000000000010
 !MCSCF expec      <7.2 Doublet|LYLY|7.2 Doublet>     3.999999958751
 !MCSCF expec      <8.2 Doublet|LYLY|8.2 Doublet>     3.991998476612
 !MCSCF expec      <9.2 Doublet|LYLY|9.2 Doublet>     1.000000000001
 !MCSCF expec    <10.2 Doublet|LYLY|10.2 Doublet>     1.000000000000
 !MCSCF expec    <11.2 Doublet|LYLY|11.2 Doublet>    -0.000000000005
 !MCSCF expec    <12.2 Doublet|LYLY|12.2 Doublet>    -0.000000000005
 !MCSCF expec      <1.2 Quartet|LYLY|1.2 Quartet>     1.000000000004
 !MCSCF expec      <2.2 Quartet|LYLY|2.2 Quartet>     1.000000000003
 !MCSCF expec      <3.2 Quartet|LYLY|3.2 Quartet>    -0.000000000007
 !MCSCF expec      <4.2 Quartet|LYLY|4.2 Quartet>     0.008376742570
 !MCSCF expec      <5.2 Quartet|LYLY|5.2 Quartet>     1.000000000004
 !MCSCF expec      <6.2 Quartet|LYLY|6.2 Quartet>     1.000000000004
 !MCSCF expec      <7.2 Quartet|LYLY|7.2 Quartet>     4.000000000022
 !MCSCF expec      <8.2 Quartet|LYLY|8.2 Quartet>     3.991623041878
 !MCSCF expec      <9.2 Quartet|LYLY|9.2 Quartet>    -0.000000000005
 
 !MCSCF expec      <1.2 Doublet|LZLZ|1.2 Doublet>     0.999999999994
 !MCSCF expec      <2.2 Doublet|LZLZ|2.2 Doublet>     0.000000028877
 !MCSCF expec      <3.2 Doublet|LZLZ|3.2 Doublet>     0.999999971128
 !MCSCF expec      <4.2 Doublet|LZLZ|4.2 Doublet>     2.841219777463
 !MCSCF expec      <5.2 Doublet|LZLZ|5.2 Doublet>     1.000000000754
 !MCSCF expec      <6.2 Doublet|LZLZ|6.2 Doublet>     3.999999999470
 !MCSCF expec      <7.2 Doublet|LZLZ|7.2 Doublet>     1.000000809352
 !MCSCF expec      <8.2 Doublet|LZLZ|8.2 Doublet>     1.158779413011
 !MCSCF expec      <9.2 Doublet|LZLZ|9.2 Doublet>     1.000000000001
 !MCSCF expec    <10.2 Doublet|LZLZ|10.2 Doublet>    -0.000000000005
 !MCSCF expec    <11.2 Doublet|LZLZ|11.2 Doublet>     1.000000000000
 !MCSCF expec    <12.2 Doublet|LZLZ|12.2 Doublet>    -0.000000000004
 !MCSCF expec      <1.2 Quartet|LZLZ|1.2 Quartet>     0.999999994237
 !MCSCF expec      <2.2 Quartet|LZLZ|2.2 Quartet>     0.000000005761
 !MCSCF expec      <3.2 Quartet|LZLZ|3.2 Quartet>     1.000000000004
 !MCSCF expec      <4.2 Quartet|LZLZ|4.2 Quartet>     2.837452546578
 !MCSCF expec      <5.2 Quartet|LZLZ|5.2 Quartet>     1.000000058942
 !MCSCF expec      <6.2 Quartet|LZLZ|6.2 Quartet>     3.999999956811
 !MCSCF expec      <7.2 Quartet|LZLZ|7.2 Quartet>     1.000000000004
 !MCSCF expec      <8.2 Quartet|LZLZ|8.2 Quartet>     1.162549599100
 !MCSCF expec      <9.2 Quartet|LZLZ|9.2 Quartet>    -0.000000000004
 
 !MCSCF expec      <1.2 Doublet|L**2|1.2 Doublet>     2.000000000000
 !MCSCF expec      <2.2 Doublet|L**2|2.2 Doublet>     2.000000000000
 !MCSCF expec      <3.2 Doublet|L**2|3.2 Doublet>     2.000000000000
 !MCSCF expec      <4.2 Doublet|L**2|4.2 Doublet>     6.000000000029
 !MCSCF expec      <5.2 Doublet|L**2|5.2 Doublet>     6.000000000029
 !MCSCF expec      <6.2 Doublet|L**2|6.2 Doublet>     6.000000000029
 !MCSCF expec      <7.2 Doublet|L**2|7.2 Doublet>     6.000000000030
 !MCSCF expec      <8.2 Doublet|L**2|8.2 Doublet>     6.000000000030
 !MCSCF expec      <9.2 Doublet|L**2|9.2 Doublet>     1.999999999996
 !MCSCF expec    <10.2 Doublet|L**2|10.2 Doublet>     1.999999999997
 !MCSCF expec    <11.2 Doublet|L**2|11.2 Doublet>     1.999999999996
 !MCSCF expec    <12.2 Doublet|L**2|12.2 Doublet>    -0.000000000013
 !MCSCF expec      <1.2 Quartet|L**2|1.2 Quartet>     2.000000000001
 !MCSCF expec      <2.2 Quartet|L**2|2.2 Quartet>     2.000000000001
 !MCSCF expec      <3.2 Quartet|L**2|3.2 Quartet>     2.000000000001
 !MCSCF expec      <4.2 Quartet|L**2|4.2 Quartet>     6.000000000030
 !MCSCF expec      <5.2 Quartet|L**2|5.2 Quartet>     6.000000000030
 !MCSCF expec      <6.2 Quartet|L**2|6.2 Quartet>     6.000000000030
 !MCSCF expec      <7.2 Quartet|L**2|7.2 Quartet>     6.000000000030
 !MCSCF expec      <8.2 Quartet|L**2|8.2 Quartet>     6.000000000030
 !MCSCF expec      <9.2 Quartet|L**2|9.2 Quartet>    -0.000000000014
 
 EXTRA SYMMETRY OF MOS IN SYMMETRY 1:   1 2 6 4 3 5 1 1 6 2   4 3 5 1 2 6 4 3 5 1   6 2 4 3 511 7 812 9  15141310 1 2 6 4 3 5
                                       11 712 8 915141310 2   6 4 3 5 111 7 9 812  15141310 2 6 4 3 5 1  11 7 9 81215141310 2
                                        6 4 3 5 1 2 6 4 3 5   1 1
 EXTRA SYMMETRY OF MOS IN SYMMETRY 2:   3 2 1 1 2 3 1 2 3 1   3 2 5 6 810 4 9 7 1   3 2 5 610 8 4 9 7 5   6 4 810 7 9 3 1 2 5
                                        6 4 810 7 9 3 2 1 5   6 410 8 7 912192113  11141615172018 5 6 4  10 8 7 9 3 2 1 3 2 1
                                        6 5 4 810 7 9 3 2 1   3 2 1
 
  NATURAL ORBITALS (STATE AVERAGED)
  =================================

  Orbital  Occupation    Energy    Cen Mu Typ  Coefficients
    1.1     2.00000    -7.78665     1  1  s    1.00208
    2.1     2.00000    -2.33877     1  1  d0   1.00018
    3.1     2.00000    -2.33877     1  1  d1-  1.00018
    4.1     2.00000    -2.33877     1  1  d1+  1.00018
    5.1     2.00000    -2.33877     1  1  d2-  1.00018
    6.1     2.00000    -2.33877     1  1  d2+  1.00018
    7.1     1.99963    -0.90831     1  2  s    1.00575
    1.2     2.00000    -5.61136     1  1  pz   0.99997
    2.2     2.00000    -5.61136     1  1  py   0.99997
    3.2     2.00000    -5.61136     1  1  px   0.99997
    4.2     1.60028    -0.36421     1  1  px  -0.35116    1  4  px   0.46484    1  5  px   0.50605
    5.2     1.60028    -0.36421     1  1  py  -0.35116    1  4  py   0.46484    1  5  py   0.50605
    6.2     1.60028    -0.36421     1  1  pz  -0.35116    1  4  pz   0.46484    1  5  pz   0.50605
    7.2     0.06651     0.06466     1 10  px   0.76376    1 11  px   0.29862
    8.2     0.06651     0.06466     1 10  py   0.76376    1 11  py   0.29862
    9.2     0.06651     0.06466     1 10  pz   0.76376    1 11  pz   0.29862
 
 Natural orbital dump (state averaged) at molpro section 2140.2 (Orbital set 2)
 
 Transform the CI vectors
 
 CI Coefficients of symmetry 2 (Doublet)
 =======================================

 State:              1               2               3               4               5               6               7
 2 2a2000       0.99847063      0.00000248      0.00001994     -0.00000000      0.00000000      0.00000000     -0.00000000
 2 22a000      -0.00000248      0.99847061      0.00016966     -0.00000000      0.00000000      0.00000001      0.00000000
 2 a22000      -0.00001994     -0.00016966      0.99847061     -0.00000000      0.00000001     -0.00000000      0.00000000
 2 a2a0b0       0.00000000      0.00000000     -0.00000000      0.66077097      0.00000559      0.00000391     -0.00006718
 2 2aab00      -0.00000000      0.00000000     -0.00000000      0.30476566      0.00000389      0.00000406     -0.00131763
 2 2aa0b0       0.00000005     -0.02207419     -0.00000375     -0.00000329      0.00000776      0.57281773      0.00000022
 2 aa20b0      -0.00000044     -0.00000375      0.02207419      0.00000479     -0.57281772      0.00000776     -0.00000070
 2 a2a00b      -0.00000044     -0.00000375      0.02207419     -0.00000479      0.57281745     -0.00000776      0.00000070
 2 a2ab00       0.00000005     -0.02207419     -0.00000375      0.00000329     -0.00000776     -0.57281744     -0.00000022
 2 2aa00b       0.02207419      0.00000005      0.00000044      0.00000069     -0.00000070     -0.00000022      0.57281616
 2 aa2b00      -0.02207419     -0.00000005     -0.00000044      0.00000069     -0.00000070     -0.00000022      0.57281613
 2 aa200b      -0.00000000      0.00000000      0.00000000      0.35600503      0.00000170     -0.00000016      0.00125045
 2 a2ba00      -0.00000003      0.01294044      0.00000220     -0.00000168      0.00000397      0.29280473      0.00000011
 2 b2a00a       0.00000026      0.00000220     -0.01294044      0.00000245     -0.29280474      0.00000397     -0.00000036
 2 ab2a00       0.01294044      0.00000003      0.00000026     -0.00000035      0.00000036      0.00000011     -0.29280408
 2 2ba00a      -0.01294044     -0.00000003     -0.00000026     -0.00000035      0.00000036      0.00000011     -0.29280410
 2 ba20a0       0.00000026      0.00000220     -0.01294044     -0.00000245      0.29280492     -0.00000397      0.00000036
 2 2ab0a0      -0.00000003      0.01294044      0.00000220      0.00000168     -0.00000397     -0.29280493     -0.00000011
 2 b2a0a0       0.00000000     -0.00000000     -0.00000000     -0.33095762     -0.00000277     -0.00000191      0.00000492
 2 a2b0a0      -0.00000000      0.00000000      0.00000000     -0.32981335     -0.00000282     -0.00000200      0.00006227
 2 2baa00      -0.00000000      0.00000000      0.00000000     -0.14102959     -0.00000186     -0.00000199      0.00067203
 2 2aba00       0.00000000     -0.00000000     -0.00000000     -0.16373607     -0.00000203     -0.00000207      0.00064560
 2 ab200a       0.00000000     -0.00000000     -0.00000000     -0.16722141     -0.00000075      0.00000017     -0.00064069
 2 2ba0a0      -0.00000002      0.00913375      0.00000155      0.00000161     -0.00000379     -0.28001280     -0.00000011
 2 ab20a0       0.00000018      0.00000155     -0.00913375     -0.00000234      0.28001280     -0.00000379      0.00000034
 2 a2b00a       0.00000018      0.00000155     -0.00913375      0.00000234     -0.28001271      0.00000379     -0.00000034
 2 b2aa00      -0.00000002      0.00913375      0.00000155     -0.00000161      0.00000379      0.28001271      0.00000011
 2 2ab00a      -0.00913375     -0.00000002     -0.00000018     -0.00000034      0.00000034      0.00000011     -0.28001205
 2 ba2a00       0.00913375      0.00000002      0.00000018     -0.00000034      0.00000034      0.00000011     -0.28001205
 2 ba200a       0.00000000      0.00000000      0.00000000     -0.18878362     -0.00000096     -0.00000001     -0.00060976
 2 2020a0      -0.00958397     -0.00000002     -0.00000019     -0.00000000      0.00000000      0.00000000     -0.00000001
 2 022a00       0.00000019      0.00000163     -0.00958397     -0.00000000      0.00000004     -0.00000000      0.00000000
 2 22000a       0.00000002     -0.00958397     -0.00000163     -0.00000000      0.00000000      0.00000005      0.00000000
 2 20a020       0.00000004     -0.01423112     -0.00000242     -0.00000036      0.00000084      0.06220261      0.00000002
 2 a02020       0.00000028      0.00000242     -0.01423112     -0.00000052      0.06220261     -0.00000084      0.00000008
 2 a20002       0.00000028      0.00000242     -0.01423113      0.00000052     -0.06220258      0.00000084     -0.00000008
 2 02a200       0.00000004     -0.01423113     -0.00000242      0.00000036     -0.00000084     -0.06220258     -0.00000002
 2 2a0002      -0.01423113     -0.00000004     -0.00000028     -0.00000008      0.00000008      0.00000002     -0.06220244
 2 0a2200      -0.01423113     -0.00000004     -0.00000028      0.00000008     -0.00000008     -0.00000002      0.06220244
 
 Energy:     -294.65662653   -294.65662653   -294.65662653   -294.36653622   -294.36653622   -294.36653622   -294.36653622

 State:              8               9              10              11              12
 2 2a2000      -0.00000000      0.00000000      0.00000004     -0.04120287     -0.00000000
 2 22a000      -0.00000000     -0.00000000      0.04120287      0.00000004      0.00000000
 2 a22000      -0.00000000     -0.04120287     -0.00000000     -0.00000000      0.00000000
 2 a2a0b0       0.02958300     -0.00000000      0.00000000      0.00000000     -0.46805368
 2 2aab00       0.58703441      0.00000000     -0.00000000     -0.00000000      0.46805389
 2 2aa0b0      -0.00000226     -0.00000001      0.52979008      0.00000046      0.00000000
 2 aa20b0       0.00000131      0.52979009      0.00000001      0.00000000     -0.00000000
 2 a2a00b      -0.00000131      0.52979037      0.00000001      0.00000000     -0.00000000
 2 a2ab00       0.00000226     -0.00000001      0.52979039      0.00000046      0.00000000
 2 2aa00b       0.00128536     -0.00000000     -0.00000046      0.52979021      0.00000000
 2 aa2b00       0.00128536      0.00000000      0.00000046     -0.52979024      0.00000000
 2 aa200b      -0.55745145      0.00000000     -0.00000000     -0.00000000      0.46805387
 2 a2ba00      -0.00000116      0.00000001     -0.40727401     -0.00000036     -0.00000000
 2 b2a00a       0.00000067     -0.40727400     -0.00000001     -0.00000000      0.00000000
 2 ab2a00      -0.00065703     -0.00000000     -0.00000036      0.40727395      0.00000000
 2 2ba00a      -0.00065703      0.00000000      0.00000036     -0.40727393     -0.00000000
 2 ba20a0      -0.00000067     -0.40727386     -0.00000001     -0.00000000      0.00000000
 2 2ab0a0       0.00000116      0.00000001     -0.40727385     -0.00000036     -0.00000000
 2 b2a0a0      -0.00201226      0.00000000     -0.00000000      0.00000000      0.23402684
 2 a2b0a0      -0.02757074      0.00000000     -0.00000000     -0.00000000      0.23402684
 2 2baa00      -0.29941134     -0.00000000      0.00000000      0.00000000     -0.23402694
 2 2aba00      -0.28762307     -0.00000000      0.00000000      0.00000000     -0.23402695
 2 ab200a       0.28561083     -0.00000000      0.00000000      0.00000000     -0.23402693
 2 2ba0a0       0.00000110      0.00000000     -0.12251623     -0.00000011     -0.00000000
 2 ab20a0      -0.00000064     -0.12251623     -0.00000000     -0.00000000      0.00000000
 2 a2b00a       0.00000064     -0.12251637     -0.00000000     -0.00000000     -0.00000000
 2 b2aa00      -0.00000110      0.00000000     -0.12251637     -0.00000011     -0.00000000
 2 2ab00a      -0.00062833      0.00000000      0.00000011     -0.12251628     -0.00000000
 2 ba2a00      -0.00062833     -0.00000000     -0.00000011      0.12251629     -0.00000000
 2 ba200a       0.27184062     -0.00000000      0.00000000     -0.00000000     -0.23402694
 2 2020a0      -0.00000000      0.00000000      0.00000021     -0.23606968     -0.00000000
 2 022a00      -0.00000000     -0.23606966     -0.00000001     -0.00000000      0.00000000
 2 22000a      -0.00000000     -0.00000001      0.23606966      0.00000021      0.00000000
 2 20a020      -0.00000025     -0.00000000      0.04781401      0.00000004      0.00000000
 2 a02020      -0.00000014     -0.04781402     -0.00000000     -0.00000000      0.00000000
 2 a20002       0.00000014     -0.04781405     -0.00000000     -0.00000000      0.00000000
 2 02a200       0.00000025     -0.00000000      0.04781405      0.00000004      0.00000000
 2 2a0002      -0.00013958      0.00000000      0.00000004     -0.04781403     -0.00000000
 2 0a2200       0.00013958      0.00000000      0.00000004     -0.04781403      0.00000000
 
 Energy:     -294.36653622   -294.36019940   -294.36019940   -294.36019940   -294.35903269
 
 
 CI Coefficients of symmetry 2 (Quartet)
 =======================================

 State:              1               2               3               4               5               6               7
 2 a2a0a0       0.00000000      0.00000000     -0.00000000      0.81085478     -0.00001915      0.00000286      0.00000001
 2 2aaa00      -0.00000000     -0.00000000      0.00000000      0.37325837     -0.00000910      0.00000137      0.00000000
 2 2aa0a0      -0.00005343      0.70351669     -0.00000076      0.00000247     -0.00009853     -0.70295713     -0.00000011
 2 aa20a0       0.70351668      0.00005343     -0.00000005      0.00001659      0.70295714     -0.00009853     -0.00000014
 2 2aa00a      -0.00000005     -0.00000076     -0.70351661     -0.00000001      0.00000014     -0.00000011      0.70295722
 2 aa2a00       0.00000005      0.00000076      0.70351660     -0.00000001      0.00000014     -0.00000011      0.70295724
 2 a2a00a       0.70351652      0.00005343     -0.00000005     -0.00001659     -0.70295730      0.00009853      0.00000014
 2 a2aa00      -0.00005343      0.70351652     -0.00000076     -0.00000247      0.00009853      0.70295731      0.00000011
 2 aa200a      -0.00000000     -0.00000000      0.00000000      0.43759621     -0.00001005      0.00000148      0.00000000
 2 02aaa0       0.00000000      0.00000000     -0.00000000      0.05453931     -0.00000129      0.00000019      0.00000000
 2 a200aa       0.00000000      0.00000000     -0.00000000      0.05434599     -0.00000128      0.00000019      0.00000000
 
 Energy:     -294.37799624   -294.37799624   -294.37799624   -294.37035294   -294.37035294   -294.37035294   -294.37035294

 State:              8               9
 2 a2a0a0       0.03714548     -0.57337417
 2 2aaa00       0.72079351      0.57337433
 2 2aa0a0       0.00000006      0.00000000
 2 aa20a0       0.00000029      0.00000000
 2 2aa00a      -0.00000000      0.00000000
 2 aa2a00       0.00000000      0.00000000
 2 a2a00a      -0.00000029      0.00000000
 2 a2aa00      -0.00000006     -0.00000000
 2 aa200a      -0.68364806      0.57337431
 2 02aaa0       0.00038407     -0.04106008
 2 a200aa       0.00460399     -0.04106008
 
 Energy:     -294.37035294   -294.35945703
 


 **********************************************************************************************************************************
 DATASETS  * FILE   NREC   LENGTH (MB)   RECORD NAMES
              1      21       57.06       500      610      700      900      950      970     1000      129      960     1100   
                                          VAR    BASINP    GEOM    SYMINP    ZMAT    AOBASIS   BASIS     P2S    ABASIS      S 
                                         1400     1410     1420     1200     1210     1080     1700     1600     1650     1380   
                                           T        V       ECP      H0       H01     AOSYM    OPER      SMH    MOLCAS    JKOP   
                                         1700(1)
                                         OPER   

              2       5        1.43       700     1000      520     2100     2140   
                                         GEOM     BASIS   MCVARS     RHF     MCSCF   

 PROGRAMS   *        TOTAL     MULTI   RHF-SCF       INT
 CPU TIMES  *         9.56      5.94      0.47      2.94
 REAL TIME  *        14.43 SEC
 DISK USED  *        58.59 MB (local),      752.17 MB (total)
 SF USED    *        72.65 MB
 GA USED    *         0.00 MB       (max)       0.00 MB       (current)
 **********************************************************************************************************************************

 Energies and &lt;L**2&gt; values

         ENERGY     LL
    -294.6566265   2.0
    -294.6566265   2.0
    -294.6566265   2.0
    -294.3665362   6.0
    -294.3665362   6.0
    -294.3665362   6.0
    -294.3665362   6.0
    -294.3665362   6.0
    -294.3601994   2.0
    -294.3601994   2.0
    -294.3601994   2.0
    -294.3590327  -0.0
    -294.3779962   2.0
    -294.3779962   2.0
    -294.3779962   2.0
    -294.3703529   6.0
    -294.3703529   6.0
    -294.3703529   6.0
    -294.3703529   6.0
    -294.3703529   6.0
    -294.3594570  -0.0
                                                  


 PROGRAM * CI (Multireference internally contracted CI)     Authors: H.-J. Werner, P.J. Knowles, 1987


 Convergence thresholds:  THRVAR = 1.00D-08  THRDEN = 1.00D-06

 Number of optimized states: 12  Roots:   1   2   3   4   5   6   7   8   9  10  11  12
 Number of reference states: 12  Roots:   1   2   3   4   5   6   7   8   9  10  11  12

 Reference symmetry:                   2   Doublet 
 Number of electrons:                 25
 Maximum number of shells:             6
 Maximum number of spin couplings:   132

 Reference space:      252 conf      420 CSFs
 N elec internal:    15576 conf    58240 CSFs
 N-1 el internal:    19959 conf   132244 CSFs
 N-2 el internal:    14819 conf   136456 CSFs

 Number of electrons in valence space:                     25
 Maximum number of open shell orbitals in reference space:  5
 Maximum number of open shell orbitals in internal spaces: 11


 Number of closed-shell orbitals:   9 (   6   3 )
 Number of active  orbitals:        7 (   1   6 )
 Number of external orbitals:     169 (  85  84 )

 Molecular orbitals read from record     2140.2  Type=MCSCF/NATURAL (state averaged)

 Valence orbitals related to previous ones by unitary transformation. Operators transformed.


 Number of p-space configurations:  30

 Reference wavefunction optimized for reference space (refopt=1)

 State     Reference Energy 
     1      -294.65662653
     2      -294.65662653
     3      -294.65662653
     4      -294.36653622
     5      -294.36653622
     6      -294.36653622
     7      -294.36653622
     8      -294.36653622
     9      -294.36019940
    10      -294.36019940
    11      -294.36019940
    12      -294.35903269

 ?WARNING: SMALL EIGENVALUE OF PAIR OVERLAP MATRIX:  0.3789D-06

 ?WARNING: SMALL EIGENVALUE OF PAIR OVERLAP MATRIX:  0.1434D-06

 Number of blocks in overlap matrix:  1138   Smallest eigenvalue:  0.14D-06
 Number of N-2 electron functions:    2969
 Number of N-1 electron functions:  132244

 Number of internal configurations:                29358
 Number of singly external configurations:      11174352
 Number of doubly external configurations:      21207416
 Total number of contracted configurations:     32411126
 Total number of uncontracted configurations:  983949316

 Diagonal Coupling coefficients finished.               Storage:  34419218 words, CPU-Time:    171.08 seconds.
 Energy denominators for pairs finished in 1 passes.    Storage:   2705342 words, CPU-time:      2.23 seconds.

  ITER. STATE  ROOT     SQ.NORM     CORR.ENERGY   TOTAL ENERGY   ENERGY CHANGE       DEN1      VAR(S)    VAR(P)      TIME
    1     1     1     1.00000000     0.00000000  -294.65662653    -0.00000000    -1.11185127  0.27D-01  0.12D+00   188.23
    1     2     2     1.00000000     0.00000000  -294.65662653     0.00000000    -1.11247723  0.27D-01  0.12D+00   188.23
    1     3     3     1.00000000     0.00000000  -294.65662653     0.00000000    -1.11228997  0.27D-01  0.12D+00   188.23
    1     4     4     1.00000000     0.00000000  -294.36653622     0.00000000    -1.10817519  0.47D-01  0.12D+00   188.23
    1     5     5     1.00000000     0.00000000  -294.36653622     0.00000000    -1.10590579  0.47D-01  0.12D+00   188.23
    1     6     6     1.00000000     0.00000000  -294.36653622     0.00000000    -1.10579674  0.47D-01  0.12D+00   188.23
    1     7     7     1.00000000     0.00000000  -294.36653622    -0.00000000    -1.10572348  0.47D-01  0.12D+00   188.23
    1     8     8     1.00000000     0.00000000  -294.36653622     0.00000000    -1.10529072  0.47D-01  0.11D+00   188.23
    1     9     9     1.00000000     0.00000000  -294.36019940     0.00000000    -1.11450161  0.53D-01  0.12D+00   188.23
    1    10    10     1.00000000     0.00000000  -294.36019940    -0.00000000    -1.11444705  0.53D-01  0.12D+00   188.23
    1    11    11     1.00000000     0.00000000  -294.36019940    -0.00000000    -1.11446580  0.53D-01  0.12D+00   188.23
    1    12    12     1.00000000     0.00000000  -294.35903269     0.00000000    -1.11071301  0.50D-01  0.12D+00   188.23
    2     1     1     1.09930917    -0.92144715  -295.57807368    -0.92144715    -0.02385783  0.29D-02  0.17D-02  2615.01
    2     2     2     1.09929977    -0.92142655  -295.57805308    -0.92142655    -0.02388079  0.29D-02  0.17D-02  2615.01
    2     3     3     1.09922607    -0.92139627  -295.57802280    -0.92139627    -0.02387914  0.29D-02  0.17D-02  2615.01
    2     4     4     1.10881176    -0.90703650  -295.27357272    -0.90703650    -0.02410887  0.35D-02  0.18D-02  2615.01
    2     5     5     1.10869121    -0.90702924  -295.27356546    -0.90702924    -0.02409789  0.35D-02  0.17D-02  2615.01
    2     6     6     1.10880513    -0.90696447  -295.27350069    -0.90696447    -0.02416782  0.35D-02  0.18D-02  2615.01
    2     7     7     1.10886764    -0.90694749  -295.27348371    -0.90694749    -0.02420548  0.35D-02  0.18D-02  2615.01
    2     8     8     1.10918210    -0.90660452  -295.27314073    -0.90660452    -0.02460918  0.35D-02  0.18D-02  2615.01
    2     9     9     1.11119185    -0.90602348  -295.26622289    -0.90602348    -0.02501041  0.38D-02  0.19D-02  2615.01
    2    10    10     1.11285882    -0.90570003  -295.26589943    -0.90570003    -0.02739100  0.52D-02  0.19D-02  2615.01
    2    11    11     1.11287837    -0.90567792  -295.26587732    -0.90567792    -0.02740640  0.52D-02  0.19D-02  2615.01
    2    12    12     1.11288889    -0.90682695  -295.26585964    -0.90682695    -0.02742836  0.52D-02  0.19D-02  2615.01
    3     1     1     1.09426387    -0.94473686  -295.60136339    -0.02328971    -0.00066547  0.50D-04  0.90D-04  5045.83
    3     2     2     1.09425820    -0.94473217  -295.60135871    -0.02330563    -0.00066984  0.51D-04  0.91D-04  5045.83
    3     3     3     1.09422304    -0.94471948  -295.60134601    -0.02332321    -0.00067763  0.51D-04  0.92D-04  5045.83
    3     4     4     1.09627267    -0.93053697  -295.29707319    -0.02350047    -0.00052809  0.56D-04  0.71D-04  5045.83
    3     5     5     1.09630139    -0.93053240  -295.29706861    -0.02350315    -0.00053224  0.56D-04  0.72D-04  5045.83
    3     6     6     1.09626917    -0.93053118  -295.29706739    -0.02356670    -0.00053271  0.57D-04  0.72D-04  5045.83
    3     7     7     1.09624973    -0.93052583  -295.29706205    -0.02357834    -0.00053500  0.57D-04  0.72D-04  5045.83
    3     8     8     1.09624856    -0.93052467  -295.29706088    -0.02392015    -0.00053636  0.57D-04  0.72D-04  5045.83
    3     9     9     1.09700207    -0.93220492  -295.29240432    -0.02618144    -0.00060917  0.69D-04  0.79D-04  5045.83
    3    10    10     1.09699795    -0.93220138  -295.29240079    -0.02650136    -0.00061097  0.69D-04  0.79D-04  5045.83
    3    11    11     1.09699945    -0.93220129  -295.29240069    -0.02652337    -0.00061162  0.69D-04  0.79D-04  5045.83
    3    12    12     1.09711753    -0.93168875  -295.29072144    -0.02486180    -0.00056832  0.66D-04  0.76D-04  5045.83
    4     1     1     1.09594289    -0.94553037  -295.60215690    -0.00079351    -0.00006054  0.33D-05  0.81D-05  7486.37
    4     2     2     1.09593783    -0.94552952  -295.60215605    -0.00079735    -0.00006115  0.33D-05  0.82D-05  7486.37
    4     3     3     1.09593098    -0.94552816  -295.60215469    -0.00080868    -0.00006223  0.34D-05  0.83D-05  7486.37
    4     4     4     1.09640915    -0.93117404  -295.29771026    -0.00063707    -0.00004808  0.26D-05  0.79D-05  7486.37
    4     5     5     1.09641122    -0.93117393  -295.29771015    -0.00064154    -0.00004807  0.26D-05  0.79D-05  7486.37
    4     6     6     1.09640764    -0.93117312  -295.29770934    -0.00064195    -0.00004857  0.26D-05  0.80D-05  7486.37
    4     7     7     1.09640196    -0.93117251  -295.29770873    -0.00064668    -0.00004919  0.27D-05  0.80D-05  7486.37
    4     8     8     1.09640112    -0.93117232  -295.29770854    -0.00064766    -0.00004916  0.26D-05  0.81D-05  7486.37
    4     9     9     1.09690960    -0.93291258  -295.29311198    -0.00070766    -0.00004937  0.33D-05  0.80D-05  7486.37
    4    10    10     1.09690653    -0.93291195  -295.29311136    -0.00071057    -0.00004974  0.33D-05  0.81D-05  7486.37
    4    11    11     1.09690577    -0.93291176  -295.29311116    -0.00071047    -0.00004978  0.33D-05  0.81D-05  7486.37
    4    12    12     1.09709435    -0.93238310  -295.29141579    -0.00069436    -0.00005071  0.27D-05  0.82D-05  7486.37
    5     1     1     1.09660500    -0.94560377  -295.60223030    -0.00007340    -0.00000420  0.15D-06  0.57D-06  9928.18
    5     2     2     1.09660475    -0.94560369  -295.60223022    -0.00007417    -0.00000426  0.15D-06  0.58D-06  9928.18
    5     3     3     1.09660419    -0.94560361  -295.60223014    -0.00007545    -0.00000432  0.15D-06  0.59D-06  9928.18
    5     4     4     1.09682595    -0.93123818  -295.29777440    -0.00006414    -0.00000486  0.23D-06  0.76D-06  9928.18
    5     5     5     1.09682845    -0.93123812  -295.29777434    -0.00006419    -0.00000492  0.22D-06  0.77D-06  9928.18
    5     6     6     1.09682803    -0.93123803  -295.29777425    -0.00006491    -0.00000498  0.23D-06  0.78D-06  9928.18
    5     7     7     1.09682799    -0.93123800  -295.29777421    -0.00006548    -0.00000502  0.23D-06  0.78D-06  9928.18
    5     8     8     1.09682736    -0.93123799  -295.29777420    -0.00006566    -0.00000497  0.23D-06  0.77D-06  9928.18
    5     9     9     1.09725686    -0.93297818  -295.29317758    -0.00006560    -0.00000520  0.25D-06  0.83D-06  9928.18
    5    10    10     1.09725665    -0.93297810  -295.29317751    -0.00006615    -0.00000526  0.25D-06  0.84D-06  9928.18
    5    11    11     1.09725690    -0.93297804  -295.29317745    -0.00006628    -0.00000527  0.25D-06  0.84D-06  9928.18
    5    12    12     1.09753331    -0.93245041  -295.29148310    -0.00006730    -0.00000476  0.23D-06  0.72D-06  9928.18
    6     1     1     1.09663395    -0.94560884  -295.60223538    -0.00000508    -0.00000032  0.16D-07  0.43D-07 12373.74
    6     2     2     1.09663384    -0.94560884  -295.60223537    -0.00000515    -0.00000033  0.17D-07  0.44D-07 12373.74
    6     3     3     1.09663321    -0.94560883  -295.60223537    -0.00000522    -0.00000033  0.17D-07  0.44D-07 12373.74
    6     4     4     1.09686699    -0.93124438  -295.29778060    -0.00000620    -0.00000052  0.21D-07  0.85D-07 12373.74
    6     5     5     1.09686683    -0.93124438  -295.29778060    -0.00000626    -0.00000053  0.21D-07  0.86D-07 12373.74
    6     6     6     1.09686654    -0.93124437  -295.29778059    -0.00000634    -0.00000053  0.21D-07  0.86D-07 12373.74
    6     7     7     1.09686670    -0.93124433  -295.29778055    -0.00000634    -0.00000050  0.20D-07  0.82D-07 12373.74
    6     8     8     1.09686594    -0.93124430  -295.29778052    -0.00000631    -0.00000052  0.21D-07  0.84D-07 12373.74
    6     9     9     1.09730030    -0.93298485  -295.29318426    -0.00000668    -0.00000058  0.27D-07  0.94D-07 12373.74
    6    10    10     1.09730043    -0.93298485  -295.29318425    -0.00000674    -0.00000057  0.27D-07  0.93D-07 12373.74
    6    11    11     1.09730030    -0.93298482  -295.29318422    -0.00000677    -0.00000058  0.28D-07  0.94D-07 12373.74
    6    12    12     1.09757279    -0.93245635  -295.29148904    -0.00000594    -0.00000045  0.16D-07  0.74D-07 12373.74
    7     1     1     1.09664940    -0.94560923  -295.60223576    -0.00000039    -0.00000004  0.37D-08  0.44D-08 14806.74
    7     2     2     1.09664951    -0.94560923  -295.60223576    -0.00000039    -0.00000004  0.37D-08  0.44D-08 14806.74
    7     3     3     1.09664959    -0.94560923  -295.60223576    -0.00000040    -0.00000004  0.35D-08  0.43D-08 14806.74
    7     4     4     1.09688416    -0.93124506  -295.29778128    -0.00000068    -0.00000007  0.61D-08  0.11D-07 14806.74
    7     5     5     1.09688402    -0.93124506  -295.29778128    -0.00000068    -0.00000007  0.61D-08  0.11D-07 14806.74
    7     6     6     1.09688414    -0.93124505  -295.29778127    -0.00000068    -0.00000007  0.59D-08  0.10D-07 14806.74
    7     7     7     1.09688421    -0.93124498  -295.29778120    -0.00000065    -0.00000007  0.56D-08  0.10D-07 14806.74
    7     8     8     1.09688391    -0.93124497  -295.29778119    -0.00000067    -0.00000007  0.60D-08  0.10D-07 14806.74
    7     9     9     1.09731980    -0.93298559  -295.29318500    -0.00000074    -0.00000008  0.73D-08  0.12D-07 14806.74
    7    10    10     1.09731980    -0.93298558  -295.29318498    -0.00000073    -0.00000008  0.72D-08  0.12D-07 14806.74
    7    11    11     1.09731975    -0.93298556  -295.29318497    -0.00000075    -0.00000008  0.74D-08  0.12D-07 14806.74
    7    12    12     1.09759107    -0.93245692  -295.29148961    -0.00000057    -0.00000006  0.45D-08  0.86D-08 14806.74
    8     1     1     1.09664931    -0.94560923  -295.60223577    -0.00000000    -0.00000004  0.36D-08  0.43D-08 16738.97
    8     2     2     1.09664945    -0.94560923  -295.60223576    -0.00000000    -0.00000004  0.36D-08  0.43D-08 16738.97
    8     3     3     1.09664954    -0.94560923  -295.60223576    -0.00000000    -0.00000003  0.35D-08  0.42D-08 16738.97
    8     4     4     1.09688348    -0.93124515  -295.29778137    -0.00000009    -0.00000001  0.49D-09  0.17D-08 16738.97
    8     5     5     1.09688348    -0.93124515  -295.29778137    -0.00000009    -0.00000001  0.49D-09  0.17D-08 16738.97
    8     6     6     1.09688353    -0.93124514  -295.29778136    -0.00000009    -0.00000001  0.47D-09  0.16D-08 16738.97
    8     7     7     1.09688349    -0.93124507  -295.29778128    -0.00000009    -0.00000001  0.46D-09  0.16D-08 16738.97
    8     8     8     1.09688347    -0.93124506  -295.29778128    -0.00000009    -0.00000001  0.47D-09  0.16D-08 16738.97
    8     9     9     1.09731868    -0.93298571  -295.29318511    -0.00000011    -0.00000001  0.37D-09  0.10D-08 16738.97
    8    10    10     1.09731776    -0.93298568  -295.29318508    -0.00000010    -0.00000001  0.61D-09  0.18D-08 16738.97
    8    11    11     1.09731859    -0.93298568  -295.29318508    -0.00000011    -0.00000001  0.38D-09  0.10D-08 16738.97
    8    12    12     1.09759179    -0.93245700  -295.29148969    -0.00000008    -0.00000000  0.22D-09  0.70D-09 16738.97


 =====================================
 Analysis of CPU times by interactions
 =====================================

       I      S      P

 I   0.2%
 S   0.2%  18.4%
 P   0.2%  41.6%  31.5%

 Initialization:   1.0%
 Other:            6.9%

 Total CPU:    16739.0 seconds
 =====================================



 Wavefunction saved on  5203.2

 Reference coefficients greater than 0.0500000
 =============================================
 222222222222/000          -0.0578841   0.1080000   0.9462652  -0.0000000  -0.0000000  -0.0000001  -0.0000000  -0.0000000
                           -0.0000802   0.0185989  -0.0037301  -0.0000000
 22222222222/2000           0.8618264   0.4094534   0.0059868   0.0000000   0.0000000  -0.0000000   0.0000000  -0.0000000
                            0.0000852  -0.0037297  -0.0185988   0.0000000
 2222222222/22000          -0.4053854   0.8550534  -0.1223876   0.0000002  -0.0000000   0.0000000   0.0000000   0.0000000
                           -0.0189689  -0.0000954  -0.0000678   0.0000000
 22222222222//\00           0.0000000  -0.0000000  -0.0000000  -0.0011086   0.0003155  -0.0031822   0.1089359   0.7654591
                            0.0000001   0.0000001  -0.0000002  -0.5469685
 2222222222/2/0\0          -0.0000000  -0.0000000  -0.0000000  -0.0020290   0.0101389   0.0035682   0.7172868   0.2884173
                            0.0000000   0.0000001  -0.0000000   0.5469700
 2222222222/2/\00           0.0006294  -0.0011743  -0.0102892   0.0146333  -0.0215115  -0.6690602   0.0050700  -0.0034729
                           -0.0026225   0.6079144  -0.1219207   0.0000001
 22222222222//0\0           0.0006294  -0.0011743  -0.0102892  -0.0146333   0.0215114   0.6690579  -0.0050700   0.0034727
                           -0.0026226   0.6079169  -0.1219213  -0.0000002
 2222222222/2/00\          -0.0044080   0.0092975  -0.0013308  -0.6664445   0.0626866  -0.0166060  -0.0023996  -0.0007187
                            0.6200111   0.0031190   0.0022158  -0.0000001
 2222222222//20\0          -0.0044080   0.0092974  -0.0013308   0.6664368  -0.0626859   0.0166059   0.0023997   0.0007185
                            0.6200195   0.0031191   0.0022157   0.0000000
 2222222222//2\00          -0.0093711  -0.0044522  -0.0000651   0.0632012   0.6662320  -0.0201166  -0.0095793   0.0010965
                            0.0027858  -0.1219090  -0.6079159   0.0000001
 22222222222//00\           0.0093711   0.0044522   0.0000651   0.0632009   0.6662285  -0.0201164  -0.0095793   0.0010967
                           -0.0027858   0.1219098   0.6079196  -0.0000001
 2222222222//200\          -0.0000000  -0.0000000  -0.0000000  -0.0009202   0.0098234   0.0067500   0.6083548  -0.4770426
                           -0.0000001  -0.0000001  -0.0000000  -0.5469668
 2222222222022/00           0.0043221  -0.0091164   0.0013049   0.0000014  -0.0000001   0.0000000  -0.0000000   0.0000000
                           -0.2235940  -0.0011248  -0.0007991   0.0000000
 222222222222000/           0.0006172  -0.0011515  -0.0100890   0.0000000  -0.0000000  -0.0000004  -0.0000000  -0.0000000
                           -0.0009458   0.2192320  -0.0439682  -0.0000000
 22222222222020/0          -0.0091887  -0.0043656  -0.0000638   0.0000000   0.0000006  -0.0000000  -0.0000000  -0.0000000
                            0.0010046  -0.0439638  -0.2192313   0.0000000
 2222222222/\20/0          -0.0011500   0.0024255  -0.0003472   0.0086309  -0.0008118   0.0002151   0.0000311   0.0000093
                            0.1912509   0.0009621   0.0006835  -0.0000000
 2222222222/2\00/          -0.0011499   0.0024255  -0.0003472  -0.0086334   0.0008121  -0.0002151  -0.0000311  -0.0000093
                            0.1912509   0.0009621   0.0006835  -0.0000000
 2222222222/2\/00          -0.0001642   0.0003064   0.0026843  -0.0001895   0.0002787   0.0086665  -0.0000657   0.0000450
                            0.0008090  -0.1875201   0.0376082  -0.0000000
 22222222222/\0/0          -0.0001642   0.0003064   0.0026843   0.0001895  -0.0002786  -0.0086656   0.0000657  -0.0000449
                            0.0008090  -0.1875200   0.0376082   0.0000000
 22222222222/\00/           0.0024446   0.0011614   0.0000170   0.0008186   0.0086289  -0.0002605  -0.0001241   0.0000142
                           -0.0008593   0.0376044   0.1875193  -0.0000000
 2222222222/\2/00           0.0024446   0.0011614   0.0000170  -0.0008187  -0.0086300   0.0002606   0.0001241  -0.0000142
                           -0.0008593   0.0376044   0.1875193  -0.0000000
 2222222222///0\\          -0.0048672   0.0102661  -0.0014694  -0.0000004   0.0000000  -0.0000000  -0.0000000  -0.0000000
                            0.0712261   0.0003583   0.0002545  -0.0000000
 2222222222///\\0          -0.0006950   0.0012967   0.0113613   0.0000000   0.0000000   0.0000001   0.0000000   0.0000000
                            0.0003013  -0.0698370   0.0140062   0.0000000
 2222222222///\0\          -0.0103474  -0.0049160  -0.0000719   0.0000000   0.0000002  -0.0000000  -0.0000000  -0.0000000
                            0.0003200  -0.0140047  -0.0698363   0.0000000
 222222222202/200           0.0007267  -0.0013559  -0.0118797   0.0013307  -0.0019561  -0.0608402   0.0004610  -0.0003158
                           -0.0002000   0.0463579  -0.0092973   0.0000000
 222222222220/020           0.0007267  -0.0013559  -0.0118797  -0.0013307   0.0019561   0.0608400  -0.0004610   0.0003158
                           -0.0002000   0.0463580  -0.0092974  -0.0000000
 2222222222/20002           0.0050893  -0.0107345   0.0015365   0.0606022  -0.0057003   0.0015101   0.0002182   0.0000653
                           -0.0472796  -0.0002378  -0.0001690   0.0000000
 2222222222/02020           0.0050893  -0.0107345   0.0015365  -0.0606018   0.0057003  -0.0015100  -0.0002182  -0.0000653
                           -0.0472805  -0.0002379  -0.0001690  -0.0000000
 22222222220/2200          -0.0108196  -0.0051404  -0.0000752   0.0057471   0.0605831  -0.0018293  -0.0008711   0.0000997
                            0.0002124  -0.0092963  -0.0463573   0.0000000
 22222222222/0002          -0.0108195  -0.0051404  -0.0000752  -0.0057471  -0.0605828   0.0018293   0.0008711  -0.0000997
                            0.0002124  -0.0092964  -0.0463577   0.0000000
 222222222202//\0          -0.0000000   0.0000000  -0.0000000  -0.0001489   0.0007360   0.0002538   0.0522035   0.0221373
                            0.0000000   0.0000000  -0.0000000   0.0388649

 Coefficients of fixed reference functions:
 ==========================================

 State      Coefficients
 1           0.862262   -0.057913   -0.405591   -0.000000    0.000000   -0.000000    0.000000   -0.000000    0.008615   -0.001230
            -0.018315    0.000000
 2           0.409661    0.108055    0.855486   -0.000000   -0.000000    0.000000    0.000000    0.000000   -0.018171    0.002295
            -0.008702    0.000000
 3           0.005990    0.946744   -0.122450   -0.000000    0.000000    0.000000    0.000000   -0.000000    0.002601    0.020110
            -0.000127    0.000000
 4          -0.000000   -0.000000   -0.000000   -0.002497    0.950304   -0.020866    0.090121   -0.000246   -0.000006    0.000000
            -0.000000   -0.000000
 5          -0.000000    0.000000    0.000000    0.012812   -0.089387    0.030674    0.950004   -0.006211    0.000001   -0.000000
            -0.000003   -0.000000
 6           0.000000    0.000000   -0.000000    0.004719    0.023679    0.954038   -0.028685   -0.006877   -0.000000   -0.000002
             0.000000    0.000000
 7           0.000000    0.000000    0.000000    0.900845    0.003422   -0.007230   -0.013660   -0.316021    0.000000   -0.000000
             0.000000   -0.000002
 8           0.000000    0.000000   -0.000000    0.316112    0.001025    0.004952    0.001564    0.900937   -0.000000   -0.000000
             0.000000    0.000000
 9          -0.000092    0.000087    0.020513   -0.000000    0.000006   -0.000000    0.000000    0.000000    0.954354   -0.004037
            -0.004288    0.000000
 10          0.004033   -0.020112    0.000103    0.000000    0.000000    0.000002    0.000001    0.000000    0.004801    0.935731
             0.187648    0.000000
 11          0.020112    0.004034    0.000073   -0.000000   -0.000000   -0.000000    0.000003   -0.000000    0.003411   -0.187666
             0.935733    0.000000
 12         -0.000000   -0.000000   -0.000000    0.000002    0.000000   -0.000000   -0.000000   -0.000001   -0.000000   -0.000000
            -0.000000    0.954492

 Coefficients of rotated reference functions:
 ============================================

 State      Coefficients
 1           0.954864    0.000000    0.000000   -0.000000    0.000000    0.000000    0.000000   -0.000000   -0.000052    0.000028
             0.000105   -0.000000
 2           0.000000    0.954864   -0.000000    0.000000    0.000000   -0.000000    0.000000    0.000000    0.000108   -0.000003
             0.000054    0.000000
 3           0.000000   -0.000000    0.954864   -0.000000   -0.000000   -0.000000    0.000000   -0.000000   -0.000015   -0.000117
             0.000024   -0.000000
 4          -0.000000    0.000000   -0.000000    0.954799    0.000000    0.000000    0.000000    0.000000    0.000000   -0.000000
            -0.000000    0.000000
 5           0.000000    0.000000   -0.000000    0.000000    0.954799   -0.000000   -0.000000    0.000000   -0.000000   -0.000000
            -0.000000   -0.000000
 6           0.000000   -0.000000   -0.000000    0.000000   -0.000000    0.954799   -0.000000    0.000000    0.000000    0.000000
            -0.000000   -0.000000
 7           0.000000    0.000000    0.000000    0.000000   -0.000000   -0.000000    0.954799   -0.000000    0.000000    0.000000
             0.000000   -0.000000
 8          -0.000000    0.000000   -0.000000    0.000000    0.000000    0.000000   -0.000000    0.954799    0.000000    0.000000
            -0.000000    0.000000
 9          -0.000052    0.000108   -0.000015    0.000000   -0.000000    0.000000    0.000000    0.000000    0.954593   -0.000000
             0.000000   -0.000000
 10          0.000028   -0.000003   -0.000117   -0.000000   -0.000000    0.000000    0.000000    0.000000   -0.000000    0.954593
            -0.000000   -0.000000
 11          0.000105    0.000054    0.000024   -0.000000   -0.000000   -0.000000    0.000000   -0.000000    0.000000   -0.000000
             0.954593   -0.000000
 12         -0.000000    0.000000   -0.000000    0.000000   -0.000000   -0.000000   -0.000000    0.000000   -0.000000   -0.000000
            -0.000000    0.954492


 RESULTS FOR STATE 1.2
 =====================

 Coefficient of reference function:   C(0) = 0.86226248 (fixed)   0.95491010 (relaxed)   0.95486406 (rotated)

 Energy contributions of configuration classes

 CLASS          SQ.NORM        ECORR1        ECORR2
 +++++++++++++++++++++++++++++++++++++++++++++++++++
 Internals    0.00011314   -0.00009178   -0.83025006
 Singles      0.00929319   -0.03512005   -0.04002544
 Pairs        0.08736706   -0.00000000   -0.07533374
 Total        1.09677339   -0.03521183   -0.94560923
 +++++++++++++++++++++++++++++++++++++++++++++++++++


 Reference energy                    -294.65649126
 Nuclear energy                         0.00000000
 Kinetic energy                       111.75794829
 One electron energy                 -513.44694945
 Two electron energy                  217.84471369
 Virial quotient                       -2.64502203
 Correlation energy                    -0.94574451
 !MRCI STATE 1.2 Energy              -295.602235765090

 Properties without orbital relaxation:

 !MRCI STATE 1.2 Dipole moment          0.00000000     0.00000000     0.00000000
 Dipole moment /Debye                   0.00000000     0.00000000     0.00000000

 Cluster corrected energies          -295.69375866 (Davidson, fixed reference)
 Cluster corrected energies          -295.69365865 (Davidson, relaxed reference)
 Cluster corrected energies          -295.69375866 (Davidson, rotated reference)

 Cluster corrected energies          -295.69341388 (Pople, fixed reference)
 Cluster corrected energies          -295.69330570 (Pople, relaxed reference)
 Cluster corrected energies          -295.69341388 (Pople, rotated reference)



 RESULTS FOR STATE 2.2
 =====================

 Maximum overlap with reference state  3

 Coefficient of reference function:   C(0) = 0.85548613 (fixed)   0.95491004 (relaxed)   0.95486400 (rotated)

 Energy contributions of configuration classes

 CLASS          SQ.NORM        ECORR1        ECORR2
 +++++++++++++++++++++++++++++++++++++++++++++++++++
 Internals    0.00011314   -0.00009178   -0.83025000
 Singles      0.00929317   -0.03512000   -0.04002541
 Pairs        0.08736722    0.00000000   -0.07533383
 Total        1.09677352   -0.03521178   -0.94560923
 +++++++++++++++++++++++++++++++++++++++++++++++++++


 Reference energy                    -294.65649126
 Nuclear energy                         0.00000000
 Kinetic energy                       111.75794882
 One electron energy                 -513.44694849
 Two electron energy                  217.84471273
 Virial quotient                       -2.64502202
 Correlation energy                    -0.94574451
 !MRCI STATE 2.2 Energy              -295.602235764808

 Properties without orbital relaxation:

 !MRCI STATE 2.2 Dipole moment          0.00000000     0.00000000     0.00000000
 Dipole moment /Debye                   0.00000000     0.00000000     0.00000000

 Cluster corrected energies          -295.69375879 (Davidson, fixed reference)
 Cluster corrected energies          -295.69365878 (Davidson, relaxed reference)
 Cluster corrected energies          -295.69375879 (Davidson, rotated reference)

 Cluster corrected energies          -295.69341401 (Pople, fixed reference)
 Cluster corrected energies          -295.69330583 (Pople, relaxed reference)
 Cluster corrected energies          -295.69341401 (Pople, rotated reference)



 RESULTS FOR STATE 3.2
 =====================

 Maximum overlap with reference state  2

 Coefficient of reference function:   C(0) = 0.94674403 (fixed)   0.95491000 (relaxed)   0.95486396 (rotated)

 Energy contributions of configuration classes

 CLASS          SQ.NORM        ECORR1        ECORR2
 +++++++++++++++++++++++++++++++++++++++++++++++++++
 Internals    0.00011314   -0.00009178   -0.83025011
 Singles      0.00929307   -0.03511980   -0.04002529
 Pairs        0.08736740   -0.00000000   -0.07533382
 Total        1.09677361   -0.03521158   -0.94560923
 +++++++++++++++++++++++++++++++++++++++++++++++++++


 Reference energy                    -294.65649126
 Nuclear energy                         0.00000000
 Kinetic energy                       111.75794378
 One electron energy                 -513.44694152
 Two electron energy                  217.84470576
 Virial quotient                       -2.64502214
 Correlation energy                    -0.94574451
 !MRCI STATE 3.2 Energy              -295.602235763355

 Properties without orbital relaxation:

 !MRCI STATE 3.2 Dipole moment          0.00000000     0.00000000     0.00000000
[...]
   27    3.2  1.5  1.5   0.032%   0.000%   0.134%   0.044%   0.048%   2.451%   0.000%   0.018%   0.015%   6.266%
   28    4.2  1.5  1.5   0.000%   1.157%   0.385%   1.163%   0.113%   0.003%   0.003%   0.225%   3.064%   0.011%
   29    5.2  1.5  1.5   0.000%   0.879%   0.385%   1.151%   0.102%   0.001%   0.003%   0.217%   2.312%   0.008%
   30    6.2  1.5  1.5   0.008%   0.002%   1.116%   0.416%   0.001%   0.100%   0.877%   0.007%   0.004%   0.006%
   31    7.2  1.5  1.5   0.000%   0.000%   1.269%   0.376%   0.002%   0.081%   0.901%   0.004%   0.001%   0.012%
   32    8.2  1.5  1.5   9.974%   0.001%   0.063%   0.020%   0.029%   1.543%   0.002%   0.000%   0.092%  24.517%
   33    9.2  1.5  1.5   0.001%   0.000%   1.164%   0.370%   0.413%  22.212%   0.000%   0.000%   0.000%   0.000%
   34    1.2  1.5  0.5   0.008%   0.000%   1.246%   0.399%   0.007%   0.410%   5.377%   0.012%   0.019%   4.989%
   35    2.2  1.5  0.5   0.014%   0.000%   0.520%   0.172%   0.025%   1.368%   5.436%   0.020%   0.016%   4.434%
   36    3.2  1.5  0.5   0.000%   0.000%   0.093%   0.225%   0.023%   0.000%   0.076%  21.522%   0.014%   0.005%
   37    4.2  1.5  0.5   0.186%   0.000%   0.076%   0.026%   0.030%   1.503%   0.695%   0.004%   0.005%   0.908%
   38    5.2  1.5  0.5   0.010%   0.003%   0.077%   0.029%   0.017%   1.520%   0.683%   0.004%   0.018%   0.515%
   39    6.2  1.5  0.5   0.000%   0.105%   0.031%   0.082%   1.498%   0.016%   0.001%   0.000%   2.008%   0.014%
   40    7.2  1.5  0.5   0.002%  11.502%   0.022%   0.066%   1.564%   0.031%   0.000%   0.003%  26.725%   0.104%
   41    8.2  1.5  0.5   0.000%   0.006%   0.390%   1.253%   0.080%   0.002%   0.005%   0.929%   0.076%   0.000%
   42    9.2  1.5  0.5   0.000%   0.000%   5.346%  17.198%   1.508%   0.031%   0.000%   0.001%   0.000%   0.000%
   43    1.2  1.5 -0.5   0.000%   0.008%   0.399%   1.246%   0.410%   0.007%   0.012%   5.377%   4.989%   0.019%
   44    2.2  1.5 -0.5   0.000%   0.014%   0.172%   0.520%   1.368%   0.025%   0.020%   5.436%   4.434%   0.016%
   45    3.2  1.5 -0.5   0.000%   0.000%   0.225%   0.093%   0.000%   0.023%  21.522%   0.076%   0.005%   0.014%
   46    4.2  1.5 -0.5   0.000%   0.186%   0.026%   0.076%   1.503%   0.030%   0.004%   0.695%   0.908%   0.005%
   47    5.2  1.5 -0.5   0.003%   0.010%   0.029%   0.077%   1.520%   0.017%   0.004%   0.683%   0.515%   0.018%
   48    6.2  1.5 -0.5   0.105%   0.000%   0.082%   0.031%   0.016%   1.498%   0.000%   0.001%   0.014%   2.008%
   49    7.2  1.5 -0.5  11.502%   0.002%   0.066%   0.022%   0.031%   1.564%   0.003%   0.000%   0.104%  26.725%
   50    8.2  1.5 -0.5   0.006%   0.000%   1.253%   0.390%   0.002%   0.080%   0.929%   0.005%   0.000%   0.076%
   51    9.2  1.5 -0.5   0.000%   0.000%  17.198%   5.346%   0.031%   1.508%   0.001%   0.000%   0.000%   0.000%
   52    1.2  1.5 -1.5   0.002%   0.000%   0.635%   0.190%   0.003%   0.055%  16.134%   0.093%   0.011%   1.947%
   53    2.2  1.5 -1.5   0.004%   0.000%   0.640%   0.206%   0.005%   0.044%  16.065%   0.093%   0.001%   2.193%
   54    3.2  1.5 -1.5   0.000%   0.032%   0.044%   0.134%   2.451%   0.048%   0.018%   0.000%   6.266%   0.015%
   55    4.2  1.5 -1.5   1.157%   0.000%   1.163%   0.385%   0.003%   0.113%   0.225%   0.003%   0.011%   3.064%
   56    5.2  1.5 -1.5   0.879%   0.000%   1.151%   0.385%   0.001%   0.102%   0.217%   0.003%   0.008%   2.312%
   57    6.2  1.5 -1.5   0.002%   0.008%   0.416%   1.116%   0.100%   0.001%   0.007%   0.877%   0.006%   0.004%
   58    7.2  1.5 -1.5   0.000%   0.000%   0.376%   1.269%   0.081%   0.002%   0.004%   0.901%   0.012%   0.001%
   59    8.2  1.5 -1.5   0.001%   9.974%   0.020%   0.063%   1.543%   0.029%   0.000%   0.002%  24.517%   0.092%
   60    9.2  1.5 -1.5   0.000%   0.001%   0.370%   1.164%  22.212%   0.413%   0.000%   0.000%   0.000%   0.000%

   Nr   State  S   Sz      41       42       43       44       45       46       47       48       49       50

    1    1.2  0.5  0.5   0.000%   0.000%   0.000%   0.000%   0.011%   0.000%   0.007%   0.000%   0.000%   0.008%
    2    2.2  0.5  0.5   0.000%   0.000%   0.000%   0.000%   0.015%   0.000%   0.003%   0.000%   0.000%   0.007%
    3    3.2  0.5  0.5   0.000%   0.000%   0.000%   0.000%   0.000%   0.001%   0.000%   0.017%   0.009%   0.000%
    4    4.2  0.5  0.5   0.008%   5.269%   0.006%   0.986%   0.035%   0.000%   0.328%   0.010%   0.001%   0.133%
    5    5.2  0.5  0.5   0.012%   3.017%   0.005%   2.513%   0.146%   0.000%   0.199%   0.005%   0.002%   0.661%
    6    6.2  0.5  0.5   0.052%   0.007%   4.904%   0.009%   0.001%   0.310%   0.001%   0.015%   0.228%   0.001%
    7    7.2  0.5  0.5   8.873%   0.018%   2.744%   0.001%   0.000%   0.037%   0.005%   0.183%   0.055%   0.001%
    8    8.2  0.5  0.5   2.766%   0.004%   8.885%   0.007%   0.001%   0.146%   0.001%   0.043%   0.581%   0.002%
    9    9.2  0.5  0.5   0.000%   0.001%   0.000%   0.001%  18.294%   0.109%   1.628%   0.047%   0.015%   3.787%
   10   10.2  0.5  0.5   0.005%   0.000%   0.002%   0.000%   0.460%   0.918%   1.334%  16.964%   4.825%   0.304%
   11   11.2  0.5  0.5   0.000%   0.000%   0.000%   0.003%   9.610%   0.164%   8.685%   1.411%   0.324%   4.282%
   12   12.2  0.5  0.5   0.002%   0.000%   0.001%   0.000%   0.000%   0.001%   0.000%   0.001%  22.359%   0.093%
   13    1.2  0.5 -0.5   0.000%   0.000%   0.000%   0.000%   0.000%   0.011%   0.000%   0.007%   0.008%   0.000%
   14    2.2  0.5 -0.5   0.000%   0.000%   0.000%   0.000%   0.000%   0.015%   0.000%   0.003%   0.007%   0.000%
   15    3.2  0.5 -0.5   0.000%   0.000%   0.000%   0.000%   0.001%   0.000%   0.017%   0.000%   0.000%   0.009%
   16    4.2  0.5 -0.5   5.269%   0.008%   0.986%   0.006%   0.000%   0.035%   0.010%   0.328%   0.133%   0.001%
   17    5.2  0.5 -0.5   3.017%   0.012%   2.513%   0.005%   0.000%   0.146%   0.005%   0.199%   0.661%   0.002%
   18    6.2  0.5 -0.5   0.007%   0.052%   0.009%   4.904%   0.310%   0.001%   0.015%   0.001%   0.001%   0.228%
   19    7.2  0.5 -0.5   0.018%   8.873%   0.001%   2.744%   0.037%   0.000%   0.183%   0.005%   0.001%   0.055%
   20    8.2  0.5 -0.5   0.004%   2.766%   0.007%   8.885%   0.146%   0.001%   0.043%   0.001%   0.002%   0.581%
   21    9.2  0.5 -0.5   0.001%   0.000%   0.001%   0.000%   0.109%  18.294%   0.047%   1.628%   3.787%   0.015%
   22   10.2  0.5 -0.5   0.000%   0.005%   0.000%   0.002%   0.918%   0.460%  16.964%   1.334%   0.304%   4.825%
   23   11.2  0.5 -0.5   0.000%   0.000%   0.003%   0.000%   0.164%   9.610%   1.411%   8.685%   4.282%   0.324%
   24   12.2  0.5 -0.5   0.000%   0.002%   0.000%   0.001%   0.001%   0.000%   0.001%   0.000%   0.093%  22.359%
   25    1.2  1.5  1.5   0.386%   0.001%   8.494%   0.003%   0.000%   0.007%   0.001%   0.023%   0.302%   0.002%
   26    2.2  1.5  1.5   1.817%   0.002%   6.899%   0.007%   0.000%   0.000%   0.001%   0.027%   0.326%   0.001%
   27    3.2  1.5  1.5   0.001%   0.081%   0.006%   1.525%   0.038%   0.000%   0.002%   0.000%   0.001%   0.088%
   28    4.2  1.5  1.5  13.896%   0.009%   7.124%   0.007%   0.002%   0.719%   0.470%  12.727%   2.900%   0.023%
   29    5.2  1.5  1.5   8.371%   0.025%  13.394%   0.012%   0.004%   0.884%   0.408%  12.690%   2.823%   0.048%
   30    6.2  1.5  1.5   0.010%   5.479%   0.025%   0.142%   0.760%   0.001%  11.963%   0.528%   0.082%  11.185%
   31    7.2  1.5  1.5   0.017%   5.458%   0.004%   0.080%   0.550%   0.004%  12.472%   0.321%   0.041%  11.220%
   32    8.2  1.5  1.5   0.000%   0.240%   0.005%   6.521%  12.770%   0.077%   0.538%   0.015%   0.000%   0.011%
   33    9.2  1.5  1.5   0.000%   0.000%   0.000%   0.008%   1.159%   0.007%   0.074%   0.002%   0.002%   0.506%
   34    1.2  1.5  0.5   0.002%   2.101%   0.001%   1.806%   0.016%   0.000%   0.024%   0.001%   0.002%   0.345%
   35    2.2  1.5  0.5   0.007%   3.660%   0.001%   0.689%   0.026%   0.000%   0.008%   0.000%   0.001%   0.852%
   36    3.2  1.5  0.5  11.465%   0.006%   0.292%   0.001%   0.000%   0.000%   0.001%   0.013%   1.225%   0.002%
   37    4.2  1.5  0.5   0.016%   9.751%   0.005%   0.954%  12.772%   0.052%   0.815%   0.027%   0.038%   8.785%
   38    5.2  1.5  0.5   0.012%  11.092%   0.045%   0.022%  12.813%   0.031%   0.677%   0.027%   0.036%   8.647%
   39    6.2  1.5  0.5   0.777%   0.022%  27.385%   0.020%   0.030%  13.435%   0.031%   0.767%   0.001%   0.015%
   40    7.2  1.5  0.5   0.003%   0.003%   4.377%   0.004%   0.055%  12.868%   0.018%   0.547%   0.020%   0.002%
   41    8.2  1.5  0.5   5.240%   0.007%   0.076%   0.000%   0.003%   0.569%   0.383%  12.483%  11.660%   0.050%
   42    9.2  1.5  0.5   0.009%   0.000%   0.000%   0.000%   0.000%   0.087%   0.031%   0.999%   1.077%   0.004%
   43    1.2  1.5 -0.5   2.101%   0.002%   1.806%   0.001%   0.000%   0.016%   0.001%   0.024%   0.345%   0.002%
   44    2.2  1.5 -0.5   3.660%   0.007%   0.689%   0.001%   0.000%   0.026%   0.000%   0.008%   0.852%   0.001%
   45    3.2  1.5 -0.5   0.006%  11.465%   0.001%   0.292%   0.000%   0.000%   0.013%   0.001%   0.002%   1.225%
   46    4.2  1.5 -0.5   9.751%   0.016%   0.954%   0.005%   0.052%  12.772%   0.027%   0.815%   8.785%   0.038%
   47    5.2  1.5 -0.5  11.092%   0.012%   0.022%   0.045%   0.031%  12.813%   0.027%   0.677%   8.647%   0.036%
   48    6.2  1.5 -0.5   0.022%   0.777%   0.020%  27.385%  13.435%   0.030%   0.767%   0.031%   0.015%   0.001%
   49    7.2  1.5 -0.5   0.003%   0.003%   0.004%   4.377%  12.868%   0.055%   0.547%   0.018%   0.002%   0.020%
   50    8.2  1.5 -0.5   0.007%   5.240%   0.000%   0.076%   0.569%   0.003%  12.483%   0.383%   0.050%  11.660%
   51    9.2  1.5 -0.5   0.000%   0.009%   0.000%   0.000%   0.087%   0.000%   0.999%   0.031%   0.004%   1.077%
   52    1.2  1.5 -1.5   0.001%   0.386%   0.003%   8.494%   0.007%   0.000%   0.023%   0.001%   0.002%   0.302%
   53    2.2  1.5 -1.5   0.002%   1.817%   0.007%   6.899%   0.000%   0.000%   0.027%   0.001%   0.001%   0.326%
   54    3.2  1.5 -1.5   0.081%   0.001%   1.525%   0.006%   0.000%   0.038%   0.000%   0.002%   0.088%   0.001%
   55    4.2  1.5 -1.5   0.009%  13.896%   0.007%   7.124%   0.719%   0.002%  12.727%   0.470%   0.023%   2.900%
   56    5.2  1.5 -1.5   0.025%   8.371%   0.012%  13.394%   0.884%   0.004%  12.690%   0.408%   0.048%   2.823%
   57    6.2  1.5 -1.5   5.479%   0.010%   0.142%   0.025%   0.001%   0.760%   0.528%  11.963%  11.185%   0.082%
   58    7.2  1.5 -1.5   5.458%   0.017%   0.080%   0.004%   0.004%   0.550%   0.321%  12.472%  11.220%   0.041%
   59    8.2  1.5 -1.5   0.240%   0.000%   6.521%   0.005%   0.077%  12.770%   0.015%   0.538%   0.011%   0.000%
   60    9.2  1.5 -1.5   0.000%   0.000%   0.008%   0.000%   0.007%   1.159%   0.002%   0.074%   0.506%   0.002%

   Nr   State  S   Sz      51       52       53       54       55       56       57       58       59       60

    1    1.2  0.5  0.5   0.000%   0.000%   0.000%   0.001%   0.014%   0.000%   0.000%   0.000%   0.000%   0.000%
    2    2.2  0.5  0.5   0.000%   0.001%   0.000%   0.001%   0.014%   0.000%   0.000%   0.000%   0.000%   0.000%
    3    3.2  0.5  0.5   0.000%   0.000%   0.000%   0.000%   0.000%   0.014%   0.000%   0.000%   0.000%   0.000%
    4    4.2  0.5  0.5   0.008%   2.735%   0.300%  13.291%   0.000%   0.000%  10.993%   0.378%   1.425%   0.006%
    5    5.2  0.5  0.5   0.018%   5.612%   0.186%  10.062%   0.001%   0.000%   7.269%   0.193%   5.331%   0.006%
    6    6.2  0.5  0.5  16.126%   0.007%   0.247%   0.016%   0.000%   0.000%   0.017%   0.439%   0.003%  12.333%
    7    7.2  0.5  0.5   4.700%   0.001%  12.025%   0.239%   0.000%   0.000%   0.313%   9.917%   0.001%   2.736%
    8    8.2  0.5  0.5  12.147%   0.000%   4.283%   0.096%   0.000%   0.000%   0.081%   2.658%   0.004%  10.214%
    9    9.2  0.5  0.5   0.000%   0.912%   0.008%   0.381%   8.880%   0.080%   1.251%   0.033%  10.554%   0.003%
   10   10.2  0.5  0.5   0.052%   0.004%   0.109%   0.036%   0.738%   8.436%   0.987%   9.930%   0.293%   0.384%
   11   11.2  0.5  0.5   0.002%   0.098%   0.029%   0.488%   8.331%   0.744%   4.212%   1.071%   6.404%   0.021%
   12   12.2  0.5  0.5   0.394%   0.000%   0.502%   0.011%   0.320%  34.398%   0.000%   0.000%   0.000%   0.000%
   13    1.2  0.5 -0.5   0.000%   0.000%   0.001%   0.000%   0.000%   0.014%   0.000%   0.000%   0.000%   0.000%
   14    2.2  0.5 -0.5   0.001%   0.000%   0.001%   0.000%   0.000%   0.014%   0.000%   0.000%   0.000%   0.000%
   15    3.2  0.5 -0.5   0.000%   0.000%   0.000%   0.000%   0.014%   0.000%   0.000%   0.000%   0.000%   0.000%
   16    4.2  0.5 -0.5   2.735%   0.008%  13.291%   0.300%   0.000%   0.000%   0.378%  10.993%   0.006%   1.425%
   17    5.2  0.5 -0.5   5.612%   0.018%  10.062%   0.186%   0.000%   0.001%   0.193%   7.269%   0.006%   5.331%
   18    6.2  0.5 -0.5   0.007%  16.126%   0.016%   0.247%   0.000%   0.000%   0.439%   0.017%  12.333%   0.003%
   19    7.2  0.5 -0.5   0.001%   4.700%   0.239%  12.025%   0.000%   0.000%   9.917%   0.313%   2.736%   0.001%
   20    8.2  0.5 -0.5   0.000%  12.147%   0.096%   4.283%   0.000%   0.000%   2.658%   0.081%  10.214%   0.004%
   21    9.2  0.5 -0.5   0.912%   0.000%   0.381%   0.008%   0.080%   8.880%   0.033%   1.251%   0.003%  10.554%
   22   10.2  0.5 -0.5   0.004%   0.052%   0.036%   0.109%   8.436%   0.738%   9.930%   0.987%   0.384%   0.293%
   23   11.2  0.5 -0.5   0.098%   0.002%   0.488%   0.029%   0.744%   8.331%   1.071%   4.212%   0.021%   6.404%
   24   12.2  0.5 -0.5   0.000%   0.394%   0.011%   0.502%  34.398%   0.320%   0.000%   0.000%   0.000%   0.000%
   25    1.2  1.5  1.5   0.071%   0.004%   2.931%   0.063%   0.013%   1.383%   0.129%   4.074%   0.008%   0.156%
   26    2.2  1.5  1.5   0.096%   0.005%   2.873%   0.068%   0.013%   1.370%   0.146%   4.063%   0.012%   0.152%
   27    3.2  1.5  1.5   0.000%   7.746%   0.008%   0.131%   0.000%   0.002%   0.447%   0.033%  12.761%   0.004%
   28    4.2  1.5  1.5   0.042%   0.000%   0.003%   0.000%   0.024%   1.679%   0.097%   2.582%   0.000%   0.092%
   29    5.2  1.5  1.5   0.017%   0.000%   0.001%   0.001%   0.043%   1.680%   0.112%   2.551%   0.000%   0.105%
   30    6.2  1.5  1.5   0.000%   0.204%   0.012%   0.506%   6.350%   0.089%   2.556%   0.131%   0.101%   0.000%
   31    7.2  1.5  1.5   0.000%   0.196%   0.010%   0.463%   6.421%   0.055%   2.566%   0.078%   0.066%   0.000%
   32    8.2  1.5  1.5   0.000%   0.033%   0.000%   0.000%   0.009%   0.000%   0.059%   0.003%   2.576%   0.001%
   33    9.2  1.5  1.5   0.000%  42.536%   0.017%   0.703%   0.000%   0.000%   0.500%   0.023%  14.057%   0.003%
   34    1.2  1.5  0.5   0.000%   2.078%   0.089%   3.770%   0.458%   0.004%   7.449%   0.272%   2.661%   0.000%
   35    2.2  1.5  0.5   0.000%   2.948%   0.063%   2.462%   0.440%   0.001%   3.871%   0.139%   6.373%   0.002%
   36    3.2  1.5  0.5   0.003%   0.003%   0.515%   0.027%   0.012%   1.773%   0.083%   1.375%   0.003%   0.062%
   37    4.2  1.5  0.5   0.000%   0.044%   0.006%   0.256%   4.803%   0.046%   0.105%   0.005%   2.556%   0.002%
   38    5.2  1.5  0.5   0.000%   0.353%   0.003%   0.174%   4.735%   0.045%   0.085%   0.006%   2.646%   0.003%
   39    6.2  1.5  0.5   0.081%   0.001%   0.005%   0.000%   0.009%   0.001%   0.007%   0.100%   0.003%   2.685%
   40    7.2  1.5  0.5   0.027%   0.000%   0.002%   0.000%   0.001%   0.010%   0.003%   0.062%   0.002%   2.601%
   41    8.2  1.5  0.5   0.176%   0.000%   0.081%   0.002%   0.062%   6.498%   0.084%   2.506%   0.000%   0.058%
   42    9.2  1.5  0.5   0.519%   0.000%  41.512%   0.931%   0.000%   0.000%   0.449%  13.508%   0.002%   0.528%
   43    1.2  1.5 -0.5   2.078%   0.000%   3.770%   0.089%   0.004%   0.458%   0.272%   7.449%   0.000%   2.661%
   44    2.2  1.5 -0.5   2.948%   0.000%   2.462%   0.063%   0.001%   0.440%   0.139%   3.871%   0.002%   6.373%
   45    3.2  1.5 -0.5   0.003%   0.003%   0.027%   0.515%   1.773%   0.012%   1.375%   0.083%   0.062%   0.003%
   46    4.2  1.5 -0.5   0.044%   0.000%   0.256%   0.006%   0.046%   4.803%   0.005%   0.105%   0.002%   2.556%
   47    5.2  1.5 -0.5   0.353%   0.000%   0.174%   0.003%   0.045%   4.735%   0.006%   0.085%   0.003%   2.646%
   48    6.2  1.5 -0.5   0.001%   0.081%   0.000%   0.005%   0.001%   0.009%   0.100%   0.007%   2.685%   0.003%
   49    7.2  1.5 -0.5   0.000%   0.027%   0.000%   0.002%   0.010%   0.001%   0.062%   0.003%   2.601%   0.002%
   50    8.2  1.5 -0.5   0.000%   0.176%   0.002%   0.081%   6.498%   0.062%   2.506%   0.084%   0.058%   0.000%
   51    9.2  1.5 -0.5   0.000%   0.519%   0.931%  41.512%   0.000%   0.000%  13.508%   0.449%   0.528%   0.002%
   52    1.2  1.5 -1.5   0.004%   0.071%   0.063%   2.931%   1.383%   0.013%   4.074%   0.129%   0.156%   0.008%
   53    2.2  1.5 -1.5   0.005%   0.096%   0.068%   2.873%   1.370%   0.013%   4.063%   0.146%   0.152%   0.012%
   54    3.2  1.5 -1.5   7.746%   0.000%   0.131%   0.008%   0.002%   0.000%   0.033%   0.447%   0.004%  12.761%
   55    4.2  1.5 -1.5   0.000%   0.042%   0.000%   0.003%   1.679%   0.024%   2.582%   0.097%   0.092%   0.000%
   56    5.2  1.5 -1.5   0.000%   0.017%   0.001%   0.001%   1.680%   0.043%   2.551%   0.112%   0.105%   0.000%
   57    6.2  1.5 -1.5   0.204%   0.000%   0.506%   0.012%   0.089%   6.350%   0.131%   2.556%   0.000%   0.101%
   58    7.2  1.5 -1.5   0.196%   0.000%   0.463%   0.010%   0.055%   6.421%   0.078%   2.566%   0.000%   0.066%
   59    8.2  1.5 -1.5   0.033%   0.000%   0.000%   0.000%   0.000%   0.009%   0.003%   0.059%   0.001%   2.576%
   60    9.2  1.5 -1.5  42.536%   0.000%   0.703%   0.017%   0.000%   0.000%   0.023%   0.500%   0.003%  14.057%


 Property matrices transformed in SO basis (not sym. adapted)
 ============================================================

 No matrix element <i|DMX|i> larger than 5E-7
 No matrix element <i|DMX|1> larger than 5E-7

 No matrix element <i|DMY|i> larger than 5E-7
 No matrix element <i|DMY|1> larger than 5E-7

 No matrix element <i|DMZ|i> larger than 5E-7
 No matrix element <i|DMZ|1> larger than 5E-7


 **********************************************************************************************************************************
 DATASETS  * FILE   NREC   LENGTH (MB)   RECORD NAMES
              1      21       57.06       500      610      700      900      950      970     1000      129      960     1100   
                                          VAR    BASINP    GEOM    SYMINP    ZMAT    AOBASIS   BASIS     P2S    ABASIS      S 
                                         1400     1410     1420     1200     1210     1080     1700     1600     1650     1380   
                                           T        V       ECP      H0       H01     AOSYM    OPER      SMH    MOLCAS    JKOP   
                                         1700(1)
                                         OPER   

              2       7     4714.53       700     1000      520     2100     2140     5203     5303   
                                         GEOM     BASIS   MCVARS     RHF     MCSCF    MRCI     MRCI   

 PROGRAMS   *        TOTAL        CI        CI        CI     MULTI   RHF-SCF       INT
 CPU TIMES  *    330457.43 301911.86   9480.94  19055.04      5.94      0.47      2.94
 REAL TIME  *    333578.28 SEC
 DISK USED  *         4.66 GB (local),       37.56 GB (total)
 SF USED    *        29.86 GB
 GA USED    *         0.00 MB       (max)       0.00 MB       (current)
 **********************************************************************************************************************************

 CI/USERDEF energy=   -295.363002498991

              CI              CI           MULTI         RHF-SCF
   -295.29132024   -295.29148969   -294.35945703   -294.74684227
 **********************************************************************************************************************************
 Molpro calculation terminated with 1 warning(s)
