
 Working directory              : /wrk/irikura/molpro.eIU1Ewrc2Y/
 Global scratch directory       : /wrk/irikura/molpro.eIU1Ewrc2Y/
 Wavefunction directory         : /home/irikura/wfu/
 Main file repository           : /wrk/irikura/molpro.eIU1Ewrc2Y/

 id        : nistki

 Nodes     nprocs
 comp-29      3
 GA implementation: MPI file
 GA implementation (serial work in mppx): MPI file

 Using customized tuning parameters: mindgm=1; mindgv=20; mindgc=4; mindgr=1; noblas=0; minvec=7
 default implementation of scratch files=sf  


 Variables initialized (1042), CPU time= 0.00 sec
 ***,I SO-CI
                                                                                 ! active space (7/4)
                                                                                 ! additional diffuse spdf functions
 memory,3000,M;
 
 gprint,orbitals,civector;
                                                                                 !gthresh,energy=1.d-10,coeff=1.d-8;
 
 symmetry,xyz
 geometry={I};
 
 basis={
 ecp,i,ECP28MDF;
 spdfg,i,aug-cc-pwCVTZ-PP;C; spdf,1,even,nprim=1,ratio=3.0;
 }
 
 {rhf;wf,charge=-1}
 
 NDOUB=3
 NQUAR=8
 
 {multi
     occ,8,9
     closed,6,3
     wf,charge=0,sym=2,spin=1;state,NDOUB;
     wf,charge=0,sym=2,spin=3;state,NQUAR;
     expec2,lxx,lyy,lzz;
 }
 table, energy, ll
 title, Energies and &lt;L**2&gt; values
 
 core,0,0
 
 {ci;wf,sym=2,spin=1;state,NDOUB; save,5203.2}
 hlsdiag = energd4
 {ci;wf,sym=2,spin=3;state,NQUAR; save,5303.2}
 hlsdiag(NDOUB+1) = energd4
 
 table,hlsdiag
 
 {ci;hlsmat,ecp,5203.2,5303.2;print,vls=0,hls=0}                                 !compute and diagonalize SO matrix
 Commands initialized (847), CPU time= 0.01 sec, 718 directives.
 Default parameters read. Elapsed time= 0.13 sec

 Checking input...
 Passed
1


                                         ***  PROGRAM SYSTEM MOLPRO  ***
                                       Copyright, TTI GmbH Stuttgart, 2015
                                    Version 2024.1 linked Mon Jun 17 07:53:25 2024


 **********************************************************************************************************************************
 LABEL *   I SO-CI                                                                                                                                                       
  (64 PROC) 64 bit mpp version                                                           DATE: 29-Jul-24          TIME: 11:23:17  
 **********************************************************************************************************************************

 SHA1:             0134236b472f03f1f5189f93707d8671e415b05c
 **********************************************************************************************************************************

 Memory per process:      3000 MW
 Total memory per node:   9000 MW

 GA preallocation disabled
 GA check disabled

 Variable memory set to 3000.0 MW


 ZSYMEL=XYZ

 SETTING BASIS          =    USERDEF


 Recomputing integrals since basis changed


 Using spherical harmonics

 Library entry I    ECP ECP28MDF                 selected for group  1
 Library entry I      S AUG-CC-PWCVTZ-PP     selected for orbital group  1
 Even tempered I  S diffuse               selected for group 1    nprim= 1    centre=  0.014    ratio= 3.000    dratio= 1.000
 Library entry I      P AUG-CC-PWCVTZ-PP     selected for orbital group  1
 Even tempered I  P diffuse               selected for group 1    nprim= 1    centre=  0.012    ratio= 3.000    dratio= 1.000
 Library entry I      D AUG-CC-PWCVTZ-PP     selected for orbital group  1
 Even tempered I  D diffuse               selected for group 1    nprim= 1    centre=  0.026    ratio= 3.000    dratio= 1.000
 Library entry I      F AUG-CC-PWCVTZ-PP     selected for orbital group  1
 Even tempered I  F diffuse               selected for group 1    nprim= 1    centre=  0.062    ratio= 3.000    dratio= 1.000
 Library entry I      G AUG-CC-PWCVTZ-PP     selected for orbital group  1


 PROGRAM * SEWARD (Integral evaluation for generally contracted gaussian basis sets)     Author: Roland Lindh, 1990

 Geometry written to block  1 of record 700

 Orientation using atomic masses  
 Molecule type: Atom
 User-specified symmetry elements: XYZ
 Symmetry elements: XYZ
 Rotational constants:       0.0000000      0.0000000      0.0000000 GHz  (calculated with average atomic masses)

 Point group  Ci  



 ATOMIC COORDINATES

 NR  ATOM    CHARGE       X              Y              Z

   1  I      25.00    0.000000000    0.000000000    0.000000000

 NUCLEAR CHARGE:                   25
 NUMBER OF PRIMITIVE AOS:         204
 NUMBER OF SYMMETRY AOS:          170
 NUMBER OF CONTRACTIONS:          112   (   53Ag  +   59Au  )
 NUMBER OF INNER CORE ORBITALS:     0   (    0Ag  +    0Au  )
 NUMBER OF OUTER CORE ORBITALS:     9   (    6Ag  +    3Au  )
 NUMBER OF VALENCE ORBITALS:        4   (    1Ag  +    3Au  )


 LX: Ag           LY: Ag           LZ: Ag 


 NUCLEAR REPULSION ENERGY    0.00000000

 EXTRA SYMMETRY OF AOS IN SYMMETRY 1:   1 1 1 1 1 1 1 1 1 2   3 4 5 6 2 3 4 5 6 2   3 4 5 6 2 3 4 5 6 2   3 4 5 6 2 3 4 5 6 2
                                        3 4 5 6 7 8 9101112  131415
 EXTRA SYMMETRY OF AOS IN SYMMETRY 2:   1 2 3 1 2 3 1 2 3 1   2 3 1 2 3 1 2 3 1 2   3 1 2 3 4 5 6 7 8 9  10 4 5 6 7 8 910 4 5
                                        6 7 8 910 4 5 6 7 8   910 4 5 6 7 8 910


 Eigenvalues of metric

         1 0.169E-04 0.125E-02 0.515E-02 0.515E-02 0.515E-02 0.515E-02 0.515E-02 0.549E-02
         2 0.573E-02 0.573E-02 0.573E-02 0.118E-01 0.118E-01 0.118E-01 0.908E-01 0.908E-01


 Contracted 2-electron integrals neglected if value below      1.0D-12
 AO integral compression algorithm  1   Integral accuracy      1.0D-12

     27.787 MB (compressed) written to integral file ( 16.7%)

     Node minimum: 7.864 MB, node maximum: 11.534 MB


 NUMBER OF SORTED TWO-ELECTRON INTEGRALS:    3397914.     BUFFER LENGTH:  32768
 NUMBER OF SEGMENTS:   1  SEGMENT LENGTH:    3397914      RECORD LENGTH: 524288

 Memory used in sort:       3.95 MW

 SORT1 READ    21109381. AND WROTE      662546. INTEGRALS IN      2 RECORDS. CPU TIME:     0.06 SEC, REAL TIME:     0.08 SEC
 SORT2 READ     2032599. AND WROTE    10190541. INTEGRALS IN     90 RECORDS. CPU TIME:     0.06 SEC, REAL TIME:     0.07 SEC

 Node minimum:     3395780.  Node maximum:     3397914. integrals

 OPERATOR DM      FOR CENTER  0  COORDINATES:    0.000000    0.000000    0.000000


 **********************************************************************************************************************************
 DATASETS  * FILE   NREC   LENGTH (MB)   RECORD NAMES
              1      19       28.94       500      610      700      900      950      970     1000      129      960     1100   
                                          VAR    BASINP    GEOM    SYMINP    ZMAT    AOBASIS   BASIS     P2S    ABASIS      S 
                                         1400     1410     1420     1200     1210     1080     1700     1600     1650   
                                           T        V       ECP      H0       H01     AOSYM    OPER      SMH    MOLCAS    

 PROGRAMS   *        TOTAL       INT
 CPU TIMES  *         1.23      1.10
 REAL TIME  *         2.61 SEC
 DISK USED  *        29.28 MB (local),      127.56 MB (total)
 GA USED    *         0.00 MB       (max)       0.00 MB       (current)
 **********************************************************************************************************************************


 Program * Restricted Hartree-Fock

 Orbital guess generated from atomic densities.

 Initial occupancy:   7   6

 NELEC=   26   SYM=1   MS2= 0   THRE=1.0D-08   THRD=3.2D-06   THRG=3.2D-06  HFMA2=F  DIIS_START=2   DIIS_MAX=10   DIIS_INCORE=F

 Level shifts:    0.00 (CLOSED)    0.00 (OPEN)    0.30 (GAP_MIN)

 ITER           ETOT              DE          GRAD        DDIFF     DIIS  NEXP   TIME(IT)  TIME(TOT)  DIAG
   1     -294.71863326    -294.71863326     0.00D+00     0.13D+00     0     0       0.01      0.03    start
   2     -294.74411714      -0.02548388     0.46D-02     0.13D-01     1     0       0.02      0.05    diag
   3     -294.74616668      -0.00204954     0.26D-02     0.21D-02     2     0       0.01      0.06    diag
   4     -294.74648011      -0.00031343     0.44D-03     0.85D-03     3     0       0.02      0.08    diag
   5     -294.74653920      -0.00005909     0.14D-03     0.53D-03     4     0       0.02      0.10    diag
   6     -294.74654357      -0.00000437     0.33D-04     0.18D-03     5     0       0.02      0.12    diag
   7     -294.74654371      -0.00000014     0.45D-05     0.24D-04     6     0       0.01      0.13    diag
   8     -294.74654372      -0.00000001     0.98D-06     0.95D-05     7     0       0.02      0.15    fixocc
   9     -294.74654372      -0.00000000     0.70D-07     0.30D-06     8     0       0.01      0.16    diag
  10     -294.74654372      -0.00000000     0.13D-07     0.34D-07     0     0       0.02      0.18    diag/orth

 Final occupancy:   7   6

 !RHF STATE 1.1 Energy               -294.746543715315
  RHF One-electron energy            -520.925437582746
  RHF Two-electron energy             226.178893867431
  RHF Kinetic energy                  110.887384553765
  RHF Nuclear energy                    0.000000000000
  RHF Virial quotient                  -2.658071023151

 !RHF STATE 1.1 Dipole moment           0.00000000     0.00000000     0.00000000
 Dipole moment /Debye                   0.00000000     0.00000000     0.00000000

 ELECTRON ORBITALS
 =================

  Orbital  Occupation    Energy    Cen Mu Typ  Coefficients
    1.1     2.00000    -7.45092     1  1  s    1.00263
    2.1     2.00000    -2.00367     1  1  d0   0.99954
    3.1     2.00000    -2.00367     1  1  d2- -0.30112    1  1  d1-  0.94619
    4.1     2.00000    -2.00367     1  1  d1+  0.76932    1  1  d2+  0.63318
    5.1     2.00000    -2.00367     1  1  d1+ -0.62204    1  1  d2+  0.76574
    6.1     2.00000    -2.00367     1  1  d2-  0.94676    1  1  d1-  0.28943
    7.1     2.00000    -0.60771     1  2  s    0.97222
    1.2     2.00000    -5.27630     1  1  pz   0.99906
    2.2     2.00000    -5.27630     1  1  px   0.99773
    3.2     2.00000    -5.27630     1  1  py   0.99835
    4.2     2.00000    -0.12598     1  2  py   0.87696
    5.2     2.00000    -0.12598     1  2  px   0.87696
    6.2     2.00000    -0.12598     1  2  pz   0.87696


 HOMO      6.2    -0.125977 =      -3.4280eV
 LUMO      7.2     0.121193 =       3.2978eV
 LUMO-HOMO         0.247170 =       6.7258eV

 Orbitals saved in record  2100.2


 **********************************************************************************************************************************
 DATASETS  * FILE   NREC   LENGTH (MB)   RECORD NAMES
              1      19       28.94       500      610      700      900      950      970     1000      129      960     1100   
                                          VAR    BASINP    GEOM    SYMINP    ZMAT    AOBASIS   BASIS     P2S    ABASIS      S 
                                         1400     1410     1420     1200     1210     1080     1700     1600     1650   
                                           T        V       ECP      H0       H01     AOSYM    OPER      SMH    MOLCAS    

              2       4        0.48       700     1000      520     2100   
                                         GEOM     BASIS   MCVARS     RHF  

 PROGRAMS   *        TOTAL   RHF-SCF       INT
 CPU TIMES  *         1.42      0.19      1.10
 REAL TIME  *         2.91 SEC
 DISK USED  *        29.93 MB (local),      129.50 MB (total)
 GA USED    *         0.00 MB       (max)       0.00 MB       (current)
 **********************************************************************************************************************************
 SETTING NDOUB          =         3.00000000                                  
 SETTING NQUAR          =         8.00000000                                  

 PROGRAM * MULTI (Direct Multiconfiguration SCF)       Authors: P.J. Knowles, H.-J. Werner (1984)
                                                                D.A. Kreplin, P.J. Knowles, H.-J. Werner (2019)

 Number of closed-shell orbitals:   9 (    6    3)
 Number of active  orbitals:        8 (    2    6)
 Number of external orbitals:      95 (   45   50)

 State symmetry 1

 Number of active electrons:   7    Spin symmetry=Doublet   Space symmetry=2
 Number of states:             3
 Number of CSFs:            1204   (1980 determinants, 3920 intermediate states)

 State symmetry 2

 Number of active electrons:   7    Spin symmetry=Quartet   Space symmetry=2
 Number of states:             8
 Number of CSFs:             656   (776 determinants, 1568 intermediate states)

 Molecular orbitals read from record     2100.2  Type=RHF/CANONICAL  
 *** IN SYMMETRY 1 ORBITAL  2 SYMMETRY CONTAMINATION OF 0.237D-04 HAS BEEN REMOVED
 *** IN SYMMETRY 1 ORBITAL  3 SYMMETRY CONTAMINATION OF 0.312D+00 HAS BEEN REMOVED
 *** IN SYMMETRY 1 ORBITAL  4 SYMMETRY CONTAMINATION OF 0.488D+00 HAS BEEN REMOVED
 *** IN SYMMETRY 1 ORBITAL  5 SYMMETRY CONTAMINATION OF 0.526D+00 HAS BEEN REMOVED
 *** IN SYMMETRY 1 ORBITAL  6 SYMMETRY CONTAMINATION OF 0.338D+00 HAS BEEN REMOVED

 EXTRA SYMMETRY OF MOS IN SYMMETRY 1:   1 2 6 4 5 3 1 1 2 3   5 6 4 1 2 3 5 6 4 1   2 3 5 4 6 1 2 5 3 4   6 2 3 5 6 4 8121415
                                        911 71310 1 2 3 5 4   6 1 1
 *** IN SYMMETRY 2 ORBITAL  1 SYMMETRY CONTAMINATION OF 0.619D-01 HAS BEEN REMOVED
 *** IN SYMMETRY 2 ORBITAL  2 SYMMETRY CONTAMINATION OF 0.902D-01 HAS BEEN REMOVED
 *** IN SYMMETRY 2 ORBITAL  3 SYMMETRY CONTAMINATION OF 0.734D-01 HAS BEEN REMOVED
 *** IN SYMMETRY 2 ORBITAL  4 SYMMETRY CONTAMINATION OF 0.719D-03 HAS BEEN REMOVED
 *** IN SYMMETRY 2 ORBITAL  5 SYMMETRY CONTAMINATION OF 0.138D-04 HAS BEEN REMOVED
 *** IN SYMMETRY 2 ORBITAL  6 SYMMETRY CONTAMINATION OF 0.721D-03 HAS BEEN REMOVED
 *** IN SYMMETRY 2 ORBITAL  7 SYMMETRY CONTAMINATION OF 0.256D-03 HAS BEEN REMOVED
 *** IN SYMMETRY 2 ORBITAL  8 SYMMETRY CONTAMINATION OF 0.229D-03 HAS BEEN REMOVED
 *** IN SYMMETRY 2 ORBITAL  9 SYMMETRY CONTAMINATION OF 0.143D-03 HAS BEEN REMOVED
 EXTRA SYMMETRY OF MOS IN SYMMETRY 2:   3 1 2 2 1 3 3 1 2 3   2 1 810 6 5 4 9 7 1   2 3 810 6 4 5 9 7 6   4 5 7 9 810 3 2 1 7
                                        9 6 4 5 810 2 1 3 6   9 7 4 5 810 2 1 3

 Wavefunction dump at record             2140.2

 Convergence thresholds  0.10E-04 (gradient)  0.10E-05 (energy)

 Weight factors for state symmetry  1:    0.09091   0.09091   0.09091
 Weight factors for state symmetry  2:    0.09091   0.09091   0.09091   0.09091   0.09091   0.09091   0.09091   0.09091
 
 Number of orbital rotations:  840  ( 30 closed/active, 420 closed/virtual, 0 active/active, 390 active/virtual )
 Total number of variables:    12988
 
 Second-order MCSCF: L-BFGS accelerated
 
 ITER  MIC  NCI  NEG     ENERGY(VAR)    ENERGY(PROJ) ENERGY CHANGE       GRAD(0)  GRAD(ORB)   GRAD(CI)      STEP      TIME
   1   16   61    0   -294.35496425    -294.47942047   -0.12445622    0.36742493 0.00357390 0.00090029  0.14E+01      0.94
   2    8   34    0   -294.45170793    -294.45816191   -0.00645398    0.21473091 0.00007694 0.00032507  0.28E+00      1.61
   3   10   39    0   -294.45819464    -294.45819542   -0.00000078    0.00181218 0.00000165 0.00000380  0.77E-02      2.38
   4    4   15    0   -294.45819542    -294.45819542   -0.00000000    0.00000024 0.00000001 0.00000011  0.37E-05      2.81

 CONVERGENCE REACHED!  Final gradient:    0.00000006 ( 0.62E-07)
                       Final energy:   -294.45819542
 
 Results for state 1.2 Doublet
 =============================
 !MCSCF STATE 1.2 Doublet Energy              -294.651690447468
 Nuclear energy                                  0.00000000
 Kinetic energy                                111.10774204
 One electron energy                          -514.42769897
 Two electron energy                           219.77600852
 Virial ratio                                    3.65194563
 
 !MCSCF STATE 1.2 Doublet Dipole moment          0.00000000     0.00000000     0.00000000
 Dipole moment /Debye                            0.00000000     0.00000000     0.00000000
 
 Results for state 2.2 Doublet
 =============================
 !MCSCF STATE 2.2 Doublet Energy              -294.651690447466
 Nuclear energy                                  0.00000000
 Kinetic energy                                111.10774204
 One electron energy                          -514.42769897
 Two electron energy                           219.77600852
 Virial ratio                                    3.65194563
 
 !MCSCF STATE 2.2 Doublet Dipole moment          0.00000000     0.00000000     0.00000000
 Dipole moment /Debye                            0.00000000     0.00000000     0.00000000
 
 Results for state 3.2 Doublet
 =============================
 !MCSCF STATE 3.2 Doublet Energy              -294.651690447466
 Nuclear energy                                  0.00000000
 Kinetic energy                                111.10774204
 One electron energy                          -514.42769897
 Two electron energy                           219.77600852
 Virial ratio                                    3.65194563
 
 !MCSCF STATE 3.2 Doublet Dipole moment          0.00000000     0.00000000     0.00000000
 Dipole moment /Debye                            0.00000000     0.00000000     0.00000000
 
 Results for state 1.2 Quartet
 =============================
 !MCSCF STATE 1.2 Quartet Energy              -294.389682297656
 Nuclear energy                                  0.00000000
 Kinetic energy                                110.49349257
 One electron energy                          -508.17845994
 Two electron energy                           213.78877764
 Virial ratio                                    3.66431692
 
 !MCSCF STATE 1.2 Quartet Dipole moment          0.00000000     0.00000000     0.00000000
 Dipole moment /Debye                            0.00000000     0.00000000     0.00000000
 
 Results for state 2.2 Quartet
 =============================
 !MCSCF STATE 2.2 Quartet Energy              -294.389682297654
 Nuclear energy                                  0.00000000
 Kinetic energy                                110.49349257
 One electron energy                          -508.17845994
 Two electron energy                           213.78877764
 Virial ratio                                    3.66431692
 
 !MCSCF STATE 2.2 Quartet Dipole moment          0.00000000     0.00000000     0.00000000
 Dipole moment /Debye                            0.00000000     0.00000000     0.00000000
 
 Results for state 3.2 Quartet
 =============================
 !MCSCF STATE 3.2 Quartet Energy              -294.389682297654
 Nuclear energy                                  0.00000000
 Kinetic energy                                110.49349257
 One electron energy                          -508.17845994
 Two electron energy                           213.78877764
 Virial ratio                                    3.66431692
 
 !MCSCF STATE 3.2 Quartet Dipole moment          0.00000000     0.00000000     0.00000000
 Dipole moment /Debye                            0.00000000     0.00000000     0.00000000
 
 Results for state 4.2 Quartet
 =============================
 !MCSCF STATE 4.2 Quartet Energy              -294.383206270210
 Nuclear energy                                  0.00000000
 Kinetic energy                                110.50096015
 One electron energy                          -508.20527145
 Two electron energy                           213.82206518
 Virial ratio                                    3.66407827
 
 !MCSCF STATE 4.2 Quartet Dipole moment          0.00000000     0.00000000     0.00000000
 Dipole moment /Debye                            0.00000000     0.00000000     0.00000000
 
 Results for state 5.2 Quartet
 =============================
 !MCSCF STATE 5.2 Quartet Energy              -294.383206270210
 Nuclear energy                                  0.00000000
 Kinetic energy                                110.50096015
 One electron energy                          -508.20527145
 Two electron energy                           213.82206518
 Virial ratio                                    3.66407827
 
 !MCSCF STATE 5.2 Quartet Dipole moment          0.00000000     0.00000000     0.00000000
 Dipole moment /Debye                            0.00000000     0.00000000     0.00000000
 
 Results for state 6.2 Quartet
 =============================
 !MCSCF STATE 6.2 Quartet Energy              -294.383206270209
 Nuclear energy                                  0.00000000
 Kinetic energy                                110.50096015
 One electron energy                          -508.20527145
 Two electron energy                           213.82206518
 Virial ratio                                    3.66407827
 
 !MCSCF STATE 6.2 Quartet Dipole moment          0.00000000     0.00000000     0.00000000
 Dipole moment /Debye                            0.00000000     0.00000000     0.00000000
 
 Results for state 7.2 Quartet
 =============================
 !MCSCF STATE 7.2 Quartet Energy              -294.383206270209
 Nuclear energy                                  0.00000000
 Kinetic energy                                110.50096015
 One electron energy                          -508.20527145
 Two electron energy                           213.82206518
 Virial ratio                                    3.66407827
 
 !MCSCF STATE 7.2 Quartet Dipole moment          0.00000000     0.00000000     0.00000000
 Dipole moment /Debye                            0.00000000     0.00000000     0.00000000
 
 Results for state 8.2 Quartet
 =============================
 !MCSCF STATE 8.2 Quartet Energy              -294.383206270208
 Nuclear energy                                  0.00000000
 Kinetic energy                                110.50096015
 One electron energy                          -508.20527145
 Two electron energy                           213.82206518
 Virial ratio                                    3.66407827
 
 !MCSCF STATE 8.2 Quartet Dipole moment          0.00000000     0.00000000     0.00000000
 Dipole moment /Debye                            0.00000000     0.00000000     0.00000000
 
 State-averaged charge density matrix saved on record 2140.2 (density set 1)
 
 No non-zero expectation values
 
 Expectation values for two-electron operators:
 
 ? Warning
 ? Transition properties are only calculated between states of the same symmetry
 ? The problem occurs in mu_properties_expec2

 !MCSCF expec      <1.2 Doublet|LXLX|1.2 Doublet>     0.999999038587
 !MCSCF expec      <2.2 Doublet|LXLX|2.2 Doublet>     0.342241621417
 !MCSCF expec      <3.2 Doublet|LXLX|3.2 Doublet>     0.657759339993
 !MCSCF expec      <1.2 Quartet|LXLX|1.2 Quartet>     0.999999560886
 !MCSCF expec      <2.2 Quartet|LXLX|2.2 Quartet>     0.999870164914
 !MCSCF expec      <3.2 Quartet|LXLX|3.2 Quartet>     0.000130274199
 !MCSCF expec      <4.2 Quartet|LXLX|4.2 Quartet>     0.991960502386
 !MCSCF expec      <5.2 Quartet|LXLX|5.2 Quartet>     1.000167935416
 !MCSCF expec      <6.2 Quartet|LXLX|6.2 Quartet>     1.050494602811
 !MCSCF expec      <7.2 Quartet|LXLX|7.2 Quartet>     3.949351014000
 !MCSCF expec      <8.2 Quartet|LXLX|8.2 Quartet>     3.008025945421
 
 !MCSCF expec      <1.2 Doublet|LYLY|1.2 Doublet>     0.999996324961
 !MCSCF expec      <2.2 Doublet|LYLY|2.2 Doublet>     0.657762052377
 !MCSCF expec      <3.2 Doublet|LYLY|3.2 Doublet>     0.342241622659
 !MCSCF expec      <1.2 Quartet|LYLY|1.2 Quartet>     0.999978466058
 !MCSCF expec      <2.2 Quartet|LYLY|2.2 Quartet>     0.000151296226
 !MCSCF expec      <3.2 Quartet|LYLY|3.2 Quartet>     0.999870237716
 !MCSCF expec      <4.2 Quartet|LYLY|4.2 Quartet>     1.008061796991
 !MCSCF expec      <5.2 Quartet|LYLY|5.2 Quartet>     1.000245397001
 !MCSCF expec      <6.2 Quartet|LYLY|6.2 Quartet>     3.949311516887
 !MCSCF expec      <7.2 Quartet|LYLY|7.2 Quartet>     1.050440451105
 !MCSCF expec      <8.2 Quartet|LYLY|8.2 Quartet>     2.991940838050
 
 !MCSCF expec      <1.2 Doublet|LZLZ|1.2 Doublet>     0.000004636450
 !MCSCF expec      <2.2 Doublet|LZLZ|2.2 Doublet>     0.999996326203
 !MCSCF expec      <3.2 Doublet|LZLZ|3.2 Doublet>     0.999999037345
 !MCSCF expec      <1.2 Quartet|LZLZ|1.2 Quartet>     0.000021973056
 !MCSCF expec      <2.2 Quartet|LZLZ|2.2 Quartet>     0.999978538860
 !MCSCF expec      <3.2 Quartet|LZLZ|3.2 Quartet>     0.999999488085
 !MCSCF expec      <4.2 Quartet|LZLZ|4.2 Quartet>     3.999977700643
 !MCSCF expec      <5.2 Quartet|LZLZ|5.2 Quartet>     3.999586667603
 !MCSCF expec      <6.2 Quartet|LZLZ|6.2 Quartet>     1.000193880323
 !MCSCF expec      <7.2 Quartet|LZLZ|7.2 Quartet>     1.000208534916
 !MCSCF expec      <8.2 Quartet|LZLZ|8.2 Quartet>     0.000033216550
 
 !MCSCF expec      <1.2 Doublet|L**2|1.2 Doublet>     1.999999999997
 !MCSCF expec      <2.2 Doublet|L**2|2.2 Doublet>     1.999999999997
 !MCSCF expec      <3.2 Doublet|L**2|3.2 Doublet>     1.999999999997
 !MCSCF expec      <1.2 Quartet|L**2|1.2 Quartet>     2.000000000000
 !MCSCF expec      <2.2 Quartet|L**2|2.2 Quartet>     2.000000000000
 !MCSCF expec      <3.2 Quartet|L**2|3.2 Quartet>     2.000000000000
 !MCSCF expec      <4.2 Quartet|L**2|4.2 Quartet>     6.000000000021
 !MCSCF expec      <5.2 Quartet|L**2|5.2 Quartet>     6.000000000021
 !MCSCF expec      <6.2 Quartet|L**2|6.2 Quartet>     6.000000000021
 !MCSCF expec      <7.2 Quartet|L**2|7.2 Quartet>     6.000000000021
 !MCSCF expec      <8.2 Quartet|L**2|8.2 Quartet>     6.000000000021
 
 EXTRA SYMMETRY OF MOS IN SYMMETRY 1:   1 2 6 4 3 5 1 1 1 2   3 5 4 6 2 3 5 4 6 1   2 3 5 4 6 1 2 5 3 4   6 2 3 5 6 411 9 7 8
                                       1215141310 1 2 3 5 4   6 1 1
 EXTRA SYMMETRY OF MOS IN SYMMETRY 2:   3 1 2 1 2 3 1 2 3 3   1 2 810 6 5 4 7 9 1   2 3 810 6 5 4 9 7 6   5 4 9 7 810 3 1 2 6
                                        9 7 5 4 810 1 2 3 6   9 7 4 5 810 2 1 3
 
  NATURAL ORBITALS (STATE AVERAGED)
  =================================

  Orbital  Occupation    Energy    Cen Mu Typ  Coefficients
    1.1     2.00000    -7.89766     1  1  s    1.00116
    2.1     2.00000    -2.45282     1  1  d0   1.00095
    3.1     2.00000    -2.45282     1  1  d1-  1.00095
    4.1     2.00000    -2.45282     1  1  d1+  1.00095
    5.1     2.00000    -2.45282     1  1  d2-  1.00095
    6.1     2.00000    -2.45282     1  1  d2+  1.00095
    7.1     1.99788    -1.00370     1  2  s    1.03659
    8.1     0.00243     0.47079     1  2  s   -1.49260    1  3  s   -1.90922    1  4  s    2.38319    1  5  s    0.63789
                                    1  8  s    0.26419
    1.2     2.00000    -5.72552     1  1  pz   0.99954
    2.2     2.00000    -5.72552     1  1  px   0.99954
    3.2     2.00000    -5.72552     1  1  py   0.99954
    4.2     1.42233    -0.42636     1  2  px   1.09229
    5.2     1.42233    -0.42636     1  2  py   1.09229
    6.2     1.42233    -0.42636     1  2  pz   1.09229
    7.2     0.24423     0.02245     1  2  px  -0.35107    1  7  px   0.48564    1  8  px   0.68683
    8.2     0.24423     0.02245     1  2  py  -0.35107    1  7  py   0.48564    1  8  py   0.68683
    9.2     0.24423     0.02245     1  2  pz  -0.35107    1  7  pz   0.48564    1  8  pz   0.68683
 
 Natural orbital dump (state averaged) at molpro section 2140.2 (Orbital set 2)
 
 Transform the CI vectors
 
 CI Coefficients of symmetry 2 (Doublet)
 =======================================
 
 20 22a000      0.99226359     -0.00190189      0.00097356
 20 a22000      0.00097293      0.80475050      0.58048883
 20 2a2000     -0.00190221     -0.58048653      0.80475050
 20 2aa0b0     -0.05699855      0.00010925     -0.00005592
 20 a2ab00     -0.05699855      0.00010925     -0.00005592
 
 Energy:     -294.65169045   -294.65169045   -294.65169045
 
 
 CI Coefficients of symmetry 2 (Quartet)
 =======================================

 State:              1               2               3               4               5               6               7
 20 aa200a     -0.00000000      0.00000000     -0.00000000     -0.00189394     -0.00111992      0.00126896      0.00097823
 20 2aaa00     -0.00000000     -0.00000000      0.00000000      0.70671584     -0.00041780     -0.00093859     -0.00035014
 20 a2aa00      0.70576340     -0.00326957     -0.00050497      0.00097411      0.70572245     -0.00570101     -0.00590293
 20 2aa0a0      0.70576340     -0.00326957     -0.00050497     -0.00097411     -0.70572245      0.00570101      0.00590293
 20 a2a00a      0.00046769     -0.00804192      0.70572518      0.00016856     -0.00511483      0.09156197     -0.69978796
 20 aa20a0      0.00046769     -0.00804192      0.70572518     -0.00016856      0.00511483     -0.09156197      0.69978796
 20 2aa00a     -0.00327511     -0.70571777     -0.00803967      0.00029517      0.00641974      0.69978286      0.09151328
 20 aa2a00      0.00327511      0.70571777      0.00803967      0.00029517      0.00641974      0.69978286      0.09151328
 20 a2a0a0     -0.00000000      0.00000000      0.00000000      0.70482190     -0.00153772      0.00033037      0.00062809
 
 Energy:     -294.38968230   -294.38968230   -294.38968230   -294.38320627   -294.38320627   -294.38320627   -294.38320627

 State:              8
 20 aa200a      0.81495022
 20 2aaa00     -0.40583594
 20 a2aa00      0.00098805
 20 2aa0a0     -0.00098805
 20 a2a00a      0.00069078
 20 aa20a0     -0.00069078
 20 2aa00a     -0.00118997
 20 aa2a00     -0.00118997
 20 a2a0a0      0.40911427
 
 Energy:     -294.38320627
 


 **********************************************************************************************************************************
 DATASETS  * FILE   NREC   LENGTH (MB)   RECORD NAMES
              1      21       40.28       500      610      700      900      950      970     1000      129      960     1100   
                                          VAR    BASINP    GEOM    SYMINP    ZMAT    AOBASIS   BASIS     P2S    ABASIS      S 
                                         1400     1410     1420     1200     1210     1080     1700     1600     1650     1380   
                                           T        V       ECP      H0       H01     AOSYM    OPER      SMH    MOLCAS    JKOP   
                                         1700(1)
                                         OPER   

              2       5        0.83       700     1000      520     2100     2140   
                                         GEOM     BASIS   MCVARS     RHF     MCSCF   

 PROGRAMS   *        TOTAL     MULTI   RHF-SCF       INT
 CPU TIMES  *         3.92      2.50      0.19      1.10
 REAL TIME  *         6.17 SEC
 DISK USED  *        41.19 MB (local),      163.29 MB (total)
 SF USED    *        30.50 MB
 GA USED    *         0.00 MB       (max)       0.00 MB       (current)
 **********************************************************************************************************************************

 Energies and &lt;L**2&gt; values

         ENERGY     LL
    -294.6516904   2.0
    -294.6516904   2.0
    -294.6516904   2.0
    -294.3896823   2.0
    -294.3896823   2.0
    -294.3896823   2.0
    -294.3832063   6.0
    -294.3832063   6.0
    -294.3832063   6.0
    -294.3832063   6.0
    -294.3832063   6.0
                                                  


 PROGRAM * CI (Multireference internally contracted CI)     Authors: H.-J. Werner, P.J. Knowles, 1987


 Convergence thresholds:  THRVAR = 1.00D-08  THRDEN = 1.00D-06

 Number of optimized states: 3  Roots:    1   2   3
 Number of reference states: 3  Roots:    1   2   3

 Reference symmetry:                   2   Doublet 
 Number of electrons:                 25
 Maximum number of shells:             7
 Maximum number of spin couplings:   429

 Reference space:      554 conf     1204 CSFs
 N elec internal:    56699 conf   278292 CSFs
 N-1 el internal:    59743 conf   501108 CSFs
 N-2 el internal:    32490 conf   411156 CSFs

 Number of electrons in valence space:                     25
 Maximum number of open shell orbitals in reference space:  7
 Maximum number of open shell orbitals in internal spaces: 13


 Number of closed-shell orbitals:   9 (   6   3 )
 Number of active  orbitals:        8 (   2   6 )
 Number of external orbitals:      95 (  45  50 )

 Molecular orbitals read from record     2140.2  Type=MCSCF/NATURAL (state averaged)

 Valence orbitals related to previous ones by unitary transformation. Operators transformed.


 Number of p-space configurations:  30

 Reference wavefunction optimized for reference space (refopt=1)

 State     Reference Energy 
     1      -294.65169045
     2      -294.65169045
     3      -294.65169045

 Number of blocks in overlap matrix:   384   Smallest eigenvalue:  0.11D-06
 Number of N-2 electron functions:     867
 Number of N-1 electron functions:  501108

 Number of internal configurations:               139300
 Number of singly external configurations:      23804000
 Number of doubly external configurations:       1958610
 Total number of contracted configurations:     25901910
 Total number of uncontracted configurations:  948829770

 Diagonal Coupling coefficients finished.               Storage:  64528015 words, CPU-Time:    252.20 seconds.
 Energy denominators for pairs finished in 1 passes.    Storage:   4972841 words, CPU-time:      0.14 seconds.

  ITER. STATE  ROOT     SQ.NORM     CORR.ENERGY   TOTAL ENERGY   ENERGY CHANGE       DEN1      VAR(S)    VAR(P)      TIME
    1     1     1     1.00000000     0.00000000  -294.65169045    -0.00000000    -0.97684344  0.44D-01  0.11D+00   283.45
    1     2     2     1.00000000     0.00000000  -294.65169045    -0.00000000    -0.97691287  0.44D-01  0.11D+00   283.45
    1     3     3     1.00000000     0.00000000  -294.65169045    -0.00000000    -0.97690040  0.44D-01  0.11D+00   283.45
    2     1     1     1.09906775    -0.77777290  -295.42946335    -0.77777290    -0.02192654  0.35D-02  0.17D-02  2636.48
    2     2     2     1.09907729    -0.77775148  -295.42944192    -0.77775148    -0.02195874  0.35D-02  0.17D-02  2636.48
    2     3     3     1.09908332    -0.77774763  -295.42943807    -0.77774763    -0.02196247  0.35D-02  0.17D-02  2636.48
    3     1     1     1.09125739    -0.79850468  -295.45019512    -0.02073178    -0.00058325  0.57D-04  0.79D-04  4985.80
    3     2     2     1.09126083    -0.79850257  -295.45019302    -0.02075110    -0.00058555  0.57D-04  0.79D-04  4985.80
    3     3     3     1.09126056    -0.79850251  -295.45019296    -0.02075488    -0.00058562  0.57D-04  0.79D-04  4985.80
    4     1     1     1.09211170    -0.79912631  -295.45081676    -0.00062163    -0.00003763  0.22D-05  0.64D-05  7337.42
    4     2     2     1.09211042    -0.79912610  -295.45081654    -0.00062352    -0.00003778  0.22D-05  0.64D-05  7337.42
    4     3     3     1.09211033    -0.79912609  -295.45081654    -0.00062358    -0.00003778  0.22D-05  0.64D-05  7337.42
    5     1     1     1.09253142    -0.79917028  -295.45086073    -0.00004397    -0.00000257  0.97D-07  0.45D-06  9683.01
    5     2     2     1.09253133    -0.79917027  -295.45086072    -0.00004417    -0.00000258  0.96D-07  0.46D-06  9683.01
    5     3     3     1.09253133    -0.79917027  -295.45086072    -0.00004417    -0.00000258  0.97D-07  0.46D-06  9683.01
    6     1     1     1.09256779    -0.79917336  -295.45086381    -0.00000308    -0.00000020  0.17D-07  0.31D-07 12033.24
    6     2     2     1.09256775    -0.79917336  -295.45086381    -0.00000309    -0.00000020  0.18D-07  0.31D-07 12033.24
    6     3     3     1.09256774    -0.79917336  -295.45086381    -0.00000309    -0.00000020  0.18D-07  0.31D-07 12033.24
    7     1     1     1.09258710    -0.79917359  -295.45086404    -0.00000023    -0.00000002  0.19D-08  0.28D-08 14383.55
    7     2     2     1.09258713    -0.79917359  -295.45086404    -0.00000023    -0.00000002  0.19D-08  0.28D-08 14383.55
    7     3     3     1.09258710    -0.79917359  -295.45086404    -0.00000023    -0.00000002  0.19D-08  0.28D-08 14383.55


 =====================================
 Analysis of CPU times by interactions
 =====================================

       I      S      P

 I   0.7%
 S   0.3%  44.1%
 P   0.3%  46.2%   6.5%

 Initialization:   1.8%
 Other:            0.3%

 Total CPU:    14383.5 seconds
 =====================================



 Wavefunction saved on  5203.2

 Reference coefficients greater than 0.0500000
 =============================================
 2222222022222/000           0.0972609   0.9457901   0.0309472
 22222220222/22000           0.6588866  -0.0900146   0.6802222
 222222202222/2000           0.6792240  -0.0481123  -0.6642864
 22222220222/2/\00          -0.0059310  -0.0576748  -0.0018872
 222222202222//0\0          -0.0059310  -0.0576748  -0.0018872

 Coefficients of fixed reference functions:
 ==========================================

 State      Coefficients
 1           0.097786    0.662446    0.682893
 2           0.950899   -0.090501   -0.048372
 3           0.031114    0.683897   -0.667875

 Coefficients of rotated reference functions:
 ============================================

 State      Coefficients
 1           0.956420   -0.000000   -0.000000
 2          -0.000000    0.956420   -0.000000
 3          -0.000000   -0.000000    0.956420


 RESULTS FOR STATE 1.2
 =====================

 Maximum overlap with reference state  3

 Coefficient of reference function:   C(0) = 0.68289303 (fixed)   0.95665194 (relaxed)   0.95642015 (rotated)

 Energy contributions of configuration classes

 CLASS          SQ.NORM        ECORR1        ECORR2
 +++++++++++++++++++++++++++++++++++++++++++++++++++
 Internals    0.00056775   -0.00056619   -0.19445697
 Singles      0.01512364   -0.05885607   -0.06488698
 Pairs        0.07751603   -0.52818945   -0.53982964
 Total        1.09320742   -0.58761170   -0.79917359
 +++++++++++++++++++++++++++++++++++++++++++++++++++


 Reference energy                    -294.65169045
 Nuclear energy                         0.00000000
 Kinetic energy                       111.50726859
 One electron energy                 -513.62944524
 Two electron energy                  218.17858120
 Virial quotient                       -2.64961081
 Correlation energy                    -0.79917359
 !MRCI STATE 1.2 Energy              -295.450864040456

 Properties without orbital relaxation:

 !MRCI STATE 1.2 Dipole moment          0.00000000     0.00000000     0.00000000
 Dipole moment /Debye                   0.00000000     0.00000000     0.00000000

 Cluster corrected energies          -295.52535295 (Davidson, fixed reference)
 Cluster corrected energies          -295.52492963 (Davidson, relaxed reference)
 Cluster corrected energies          -295.52535295 (Davidson, rotated reference)

 Cluster corrected energies          -295.52483813 (Pople, fixed reference)
 Cluster corrected energies          -295.52438326 (Pople, relaxed reference)
 Cluster corrected energies          -295.52483813 (Pople, rotated reference)



 RESULTS FOR STATE 2.2
 =====================

 Maximum overlap with reference state  1

 Coefficient of reference function:   C(0) = 0.95089916 (fixed)   0.95665192 (relaxed)   0.95642013 (rotated)

 Energy contributions of configuration classes

 CLASS          SQ.NORM        ECORR1        ECORR2
 +++++++++++++++++++++++++++++++++++++++++++++++++++
 Internals    0.00056775   -0.00056619   -0.71183673
 Singles      0.01512363   -0.05885603   -0.06488697
 Pairs        0.07751606    0.03741392   -0.02244990
 Total        1.09320744   -0.02200830   -0.79917359
 +++++++++++++++++++++++++++++++++++++++++++++++++++


 Reference energy                    -294.65169045
 Nuclear energy                         0.00000000
 Kinetic energy                       111.50727128
 One electron energy                 -513.62944730
 Two electron energy                  218.17858326
 Virial quotient                       -2.64961074
 Correlation energy                    -0.79917359
 !MRCI STATE 2.2 Energy              -295.450864040190

 Properties without orbital relaxation:

 !MRCI STATE 2.2 Dipole moment          0.00000000     0.00000000     0.00000000
 Dipole moment /Debye                   0.00000000     0.00000000     0.00000000

 Cluster corrected energies          -295.52535297 (Davidson, fixed reference)
 Cluster corrected energies          -295.52492965 (Davidson, relaxed reference)
 Cluster corrected energies          -295.52535297 (Davidson, rotated reference)

 Cluster corrected energies          -295.52483815 (Pople, fixed reference)
 Cluster corrected energies          -295.52438328 (Pople, relaxed reference)
 Cluster corrected energies          -295.52483815 (Pople, rotated reference)



 RESULTS FOR STATE 3.2
 =====================

 Maximum overlap with reference state  2

 Coefficient of reference function:   C(0) = 0.68389667 (fixed)   0.95665194 (relaxed)   0.95642015 (rotated)

 Energy contributions of configuration classes

 CLASS          SQ.NORM        ECORR1        ECORR2
 +++++++++++++++++++++++++++++++++++++++++++++++++++
 Internals    0.00056775   -0.00056619   -1.15014287
 Singles      0.01512364   -0.05885607   -0.06488698
 Pairs        0.07751603    0.51657346    0.41585626
 Total        1.09320741    0.45715121   -0.79917359
 +++++++++++++++++++++++++++++++++++++++++++++++++++


 Reference energy                    -294.65169045
 Nuclear energy                         0.00000000
 Kinetic energy                       111.50726860
 One electron energy                 -513.62944532
 Two electron energy                  218.17858128
 Virial quotient                       -2.64961081
 Correlation energy                    -0.79917359
 !MRCI STATE 3.2 Energy              -295.450864039436

 Properties without orbital relaxation:

 !MRCI STATE 3.2 Dipole moment          0.00000000     0.00000000     0.00000000
 Dipole moment /Debye                   0.00000000     0.00000000     0.00000000

 Cluster corrected energies          -295.52535294 (Davidson, fixed reference)
 Cluster corrected energies          -295.52492963 (Davidson, relaxed reference)
 Cluster corrected energies          -295.52535294 (Davidson, rotated reference)

 Cluster corrected energies          -295.52483813 (Pople, fixed reference)
 Cluster corrected energies          -295.52438326 (Pople, relaxed reference)
 Cluster corrected energies          -295.52483813 (Pople, rotated reference)



 **********************************************************************************************************************************
 DATASETS  * FILE   NREC   LENGTH (MB)   RECORD NAMES
              1      21       40.28       500      610      700      900      950      970     1000      129      960     1100   
                                          VAR    BASINP    GEOM    SYMINP    ZMAT    AOBASIS   BASIS     P2S    ABASIS      S 
                                         1400     1410     1420     1200     1210     1080     1700     1600     1650     1380   
                                           T        V       ECP      H0       H01     AOSYM    OPER      SMH    MOLCAS    JKOP   
                                         1700(1)
                                         OPER   

              2       6      601.48       700     1000      520     2100     2140     5203   
                                         GEOM     BASIS   MCVARS     RHF     MCSCF    MRCI   

 PROGRAMS   *        TOTAL        CI     MULTI   RHF-SCF       INT
 CPU TIMES  *     14667.25  14663.33      2.50      0.19      1.10
 REAL TIME  *     14746.19 SEC
 DISK USED  *       641.85 MB (local),        1.92 GB (total)
 SF USED    *         6.55 GB
 GA USED    *         0.00 MB       (max)       0.00 MB       (current)
 **********************************************************************************************************************************
 SETTING HLSDIAG(1)     =      -295.52535295  AU                              
 SETTING HLSDIAG(2)     =      -295.52535297  AU                              
 SETTING HLSDIAG(3)     =      -295.52535294  AU                              


 PROGRAM * CI (Multireference internally contracted CI)     Authors: H.-J. Werner, P.J. Knowles, 1987


 Convergence thresholds:  THRVAR = 1.00D-08  THRDEN = 1.00D-06

 Number of optimized states: 8  Roots:    1   2   3   4   5   6   7   8
 Number of reference states: 8  Roots:    1   2   3   4   5   6   7   8

 Reference symmetry:                   2   Quartet 
 Number of electrons:                 25
 Maximum number of shells:             6
 Maximum number of spin couplings:   572

 Reference space:      344 conf      656 CSFs
 N elec internal:    52189 conf   229224 CSFs
 N-1 el internal:    51137 conf   453552 CSFs
 N-2 el internal:    21984 conf   385640 CSFs

 Number of electrons in valence space:                     25
 Maximum number of open shell orbitals in reference space:  7
 Maximum number of open shell orbitals in internal spaces: 13


 Number of closed-shell orbitals:   9 (   6   3 )
 Number of active  orbitals:        8 (   2   6 )
 Number of external orbitals:      95 (  45  50 )

 Molecular orbitals read from record     2140.2  Type=MCSCF/NATURAL (state averaged)

 Coulomb and exchange operators available. No transformation done.


 Number of p-space configurations:  24

 Reference wavefunction optimized for reference space (refopt=1)

 State     Reference Energy 
     1      -294.38968230
     2      -294.38968230
     3      -294.38968230
     4      -294.38320627
     5      -294.38320627
     6      -294.38320627
     7      -294.38320627
     8      -294.38320627

 ?WARNING: SMALL EIGENVALUE OF PAIR OVERLAP MATRIX:  0.3299D-06

 Number of blocks in overlap matrix:   797   Smallest eigenvalue:  0.33D-06
 Number of N-2 electron functions:    2252
 Number of N-1 electron functions:  453552

 Number of internal configurations:               114452
 Number of singly external configurations:      21546280
 Number of doubly external configurations:       5084360
 Total number of contracted configurations:     26745092
 Total number of uncontracted configurations:  887746772

 Diagonal Coupling coefficients finished.               Storage:  86423287 words, CPU-Time:   1260.06 seconds.
 Energy denominators for pairs finished in 1 passes.    Storage:   7750884 words, CPU-time:      0.37 seconds.

  ITER. STATE  ROOT     SQ.NORM     CORR.ENERGY   TOTAL ENERGY   ENERGY CHANGE       DEN1      VAR(S)    VAR(P)      TIME
    1     1     1     1.00000000     0.00000000  -294.38968230     0.00000000    -0.94135640  0.39D-01  0.10D+00  1347.93
    1     2     2     1.00000000     0.00000000  -294.38968230    -0.00000000    -0.94156917  0.40D-01  0.10D+00  1347.93
    1     3     3     1.00000000     0.00000000  -294.38968230     0.00000000    -0.94166540  0.40D-01  0.10D+00  1347.93
    1     4     4     1.00000000     0.00000000  -294.38320627     0.00000000    -0.94308668  0.41D-01  0.10D+00  1347.93
    1     5     5     1.00000000     0.00000000  -294.38320627     0.00000000    -0.94280063  0.41D-01  0.10D+00  1347.93
    1     6     6     1.00000000     0.00000000  -294.38320627    -0.00000000    -0.94294889  0.42D-01  0.10D+00  1347.93
    1     7     7     1.00000000     0.00000000  -294.38320627     0.00000000    -0.94304992  0.42D-01  0.10D+00  1347.93
    1     8     8     1.00000000     0.00000000  -294.38320627    -0.00000000    -0.94745453  0.41D-01  0.10D+00  1347.93
    2     1     1     1.09138928    -0.76012455  -295.14980685    -0.76012455    -0.01876438  0.20D-02  0.16D-02  8522.36
    2     2     2     1.09147168    -0.76008995  -295.14977225    -0.76008995    -0.01881508  0.20D-02  0.16D-02  8522.36
    2     3     3     1.09151620    -0.76007493  -295.14975723    -0.76007493    -0.01884555  0.20D-02  0.16D-02  8522.36
    2     4     4     1.09252011    -0.76092132  -295.14412759    -0.76092132    -0.01898933  0.22D-02  0.16D-02  8522.36
    2     5     5     1.09245712    -0.76068738  -295.14389365    -0.76068738    -0.01914309  0.23D-02  0.16D-02  8522.36
    2     6     6     1.09252904    -0.76061745  -295.14382372    -0.76061745    -0.01921372  0.23D-02  0.16D-02  8522.36
    2     7     7     1.09257534    -0.76060356  -295.14380983    -0.76060356    -0.01924099  0.23D-02  0.16D-02  8522.36
    2     8     8     1.09349519    -0.76032600  -295.14353227    -0.76032600    -0.01978903  0.22D-02  0.18D-02  8522.36
    3     1     1     1.08508077    -0.77819967  -295.16788196    -0.01807512    -0.00048718  0.28D-04  0.76D-04 15680.22
    3     2     2     1.08507084    -0.77819541  -295.16787771    -0.01810546    -0.00048871  0.28D-04  0.76D-04 15680.22
    3     3     3     1.08505552    -0.77819514  -295.16787744    -0.01812021    -0.00048854  0.28D-04  0.77D-04 15680.22
    3     4     4     1.08580392    -0.77922883  -295.16243510    -0.01830751    -0.00047566  0.37D-04  0.71D-04 15680.22
    3     5     5     1.08566778    -0.77920610  -295.16241237    -0.01851873    -0.00048672  0.38D-04  0.73D-04 15680.22
    3     6     6     1.08555030    -0.77915500  -295.16236127    -0.01853755    -0.00051528  0.39D-04  0.79D-04 15680.22
    3     7     7     1.08555612    -0.77915030  -295.16235657    -0.01854673    -0.00051905  0.39D-04  0.79D-04 15680.22
    3     8     8     1.08554569    -0.77914591  -295.16235218    -0.01881991    -0.00052073  0.39D-04  0.79D-04 15680.22
    4     1     1     1.08634942    -0.77879705  -295.16847935    -0.00059738    -0.00005009  0.20D-05  0.82D-05 22828.52
    4     2     2     1.08634884    -0.77879692  -295.16847922    -0.00060151    -0.00005039  0.20D-05  0.82D-05 22828.52
    4     3     3     1.08634784    -0.77879628  -295.16847858    -0.00060114    -0.00005063  0.20D-05  0.83D-05 22828.52
    4     4     4     1.08684429    -0.77979894  -295.16300521    -0.00057010    -0.00004492  0.20D-05  0.77D-05 22828.52
    4     5     5     1.08683172    -0.77979641  -295.16300268    -0.00059031    -0.00004749  0.22D-05  0.78D-05 22828.52
    4     6     6     1.08679734    -0.77978904  -295.16299531    -0.00063403    -0.00005298  0.25D-05  0.85D-05 22828.52
    4     7     7     1.08679212    -0.77978808  -295.16299435    -0.00063779    -0.00005352  0.25D-05  0.86D-05 22828.52
    4     8     8     1.08679018    -0.77978725  -295.16299352    -0.00064134    -0.00005411  0.25D-05  0.87D-05 22828.52
    5     1     1     1.08683406    -0.77886382  -295.16854612    -0.00006677    -0.00000466  0.22D-06  0.71D-06 29972.75
    5     2     2     1.08683448    -0.77886374  -295.16854604    -0.00006682    -0.00000468  0.22D-06  0.71D-06 29972.75
    5     3     3     1.08683483    -0.77886369  -295.16854599    -0.00006741    -0.00000472  0.22D-06  0.72D-06 29972.75
    5     4     4     1.08729872    -0.77985954  -295.16306581    -0.00006060    -0.00000455  0.27D-06  0.69D-06 29972.75
    5     5     5     1.08729938    -0.77985944  -295.16306571    -0.00006303    -0.00000458  0.27D-06  0.70D-06 29972.75
    5     6     6     1.08729769    -0.77985919  -295.16306546    -0.00007015    -0.00000500  0.30D-06  0.74D-06 29972.75
    5     7     7     1.08729767    -0.77985910  -295.16306537    -0.00007101    -0.00000506  0.31D-06  0.75D-06 29972.75
    5     8     8     1.08729790    -0.77985904  -295.16306531    -0.00007179    -0.00000511  0.31D-06  0.75D-06 29972.75
    6     1     1     1.08682808    -0.77886954  -295.16855184    -0.00000572    -0.00000047  0.20D-07  0.77D-07 37126.60
    6     2     2     1.08682798    -0.77886948  -295.16855177    -0.00000574    -0.00000047  0.21D-07  0.77D-07 37126.60
    6     3     3     1.08682809    -0.77886948  -295.16855177    -0.00000578    -0.00000047  0.20D-07  0.77D-07 37126.60
    6     4     4     1.08729933    -0.77986528  -295.16307155    -0.00000574    -0.00000052  0.28D-07  0.82D-07 37126.60
    6     5     5     1.08729919    -0.77986525  -295.16307152    -0.00000581    -0.00000052  0.29D-07  0.82D-07 37126.60
    6     6     6     1.08729887    -0.77986525  -295.16307152    -0.00000606    -0.00000053  0.29D-07  0.83D-07 37126.60
    6     7     7     1.08730234    -0.77986517  -295.16307144    -0.00000607    -0.00000050  0.26D-07  0.79D-07 37126.60
    6     8     8     1.08730480    -0.77986506  -295.16307133    -0.00000602    -0.00000049  0.24D-07  0.79D-07 37126.60
    7     1     1     1.08684876    -0.77887014  -295.16855244    -0.00000060    -0.00000006  0.54D-08  0.95D-08 44283.76
    7     2     2     1.08684859    -0.77887007  -295.16855237    -0.00000059    -0.00000006  0.53D-08  0.93D-08 44283.76
    7     3     3     1.08684871    -0.77887007  -295.16855237    -0.00000059    -0.00000006  0.53D-08  0.93D-08 44283.76
    7     4     4     1.08732039    -0.77986593  -295.16307220    -0.00000065    -0.00000007  0.60D-08  0.10D-07 44283.76
    7     5     5     1.08732014    -0.77986590  -295.16307217    -0.00000065    -0.00000007  0.61D-08  0.10D-07 44283.76
    7     6     6     1.08732026    -0.77986590  -295.16307217    -0.00000065    -0.00000007  0.61D-08  0.10D-07 44283.76
    7     7     7     1.08732126    -0.77986579  -295.16307206    -0.00000062    -0.00000007  0.58D-08  0.99D-08 44283.76
    7     8     8     1.08732219    -0.77986566  -295.16307193    -0.00000061    -0.00000007  0.57D-08  0.98D-08 44283.76
    8     1     1     1.08684753    -0.77887022  -295.16855252    -0.00000008    -0.00000001  0.50D-09  0.15D-08 51443.60
    8     2     2     1.08684742    -0.77887015  -295.16855245    -0.00000008    -0.00000001  0.49D-09  0.15D-08 51443.60
    8     3     3     1.08684744    -0.77887015  -295.16855244    -0.00000008    -0.00000001  0.49D-09  0.15D-08 51443.60
    8     4     4     1.08732004    -0.77986601  -295.16307228    -0.00000009    -0.00000001  0.58D-09  0.16D-08 51443.60
    8     5     5     1.08731991    -0.77986599  -295.16307226    -0.00000009    -0.00000001  0.57D-09  0.16D-08 51443.60
    8     6     6     1.08731993    -0.77986599  -295.16307226    -0.00000009    -0.00000001  0.58D-09  0.16D-08 51443.60
    8     7     7     1.08732018    -0.77986588  -295.16307215    -0.00000009    -0.00000001  0.58D-09  0.16D-08 51443.60
    8     8     8     1.08731977    -0.77986575  -295.16307202    -0.00000008    -0.00000001  0.59D-09  0.16D-08 51443.60


 =====================================
 Analysis of CPU times by interactions
 =====================================

       I      S      P

 I   0.5%
 S   0.2%  37.6%
 P   0.2%  46.8%  11.6%

 Initialization:   2.5%
 Other:            0.6%

 Total CPU:    51443.6 seconds
 =====================================



 Wavefunction saved on  5303.2

 Reference coefficients greater than 0.0500000
 =============================================
 22222220222//200/          -0.0000000  -0.0000000   0.0000000   0.0001963   0.0006162   0.0000922   0.0108797   0.7810446
 22222220222/2/0/0          -0.0000000   0.0000000   0.0000000   0.0000964   0.0014514   0.0015790   0.6818419   0.3810994
 22222220222/2//00           0.6766353  -0.0000366  -0.0021994   0.6762252  -0.0075861  -0.0165574   0.0000498  -0.0001627
 222222202222//0/0           0.6766351  -0.0000366  -0.0021994  -0.6762252   0.0075861   0.0165574  -0.0000498   0.0001628
 22222220222//2/00           0.0001237  -0.6748458   0.0492717   0.0047582   0.6672192  -0.1113671  -0.0008823  -0.0005022
 22222220222//20/0           0.0021963   0.0492718   0.6748416  -0.0175799  -0.1112079  -0.6670303   0.0017016   0.0001471
 222222202222//00/          -0.0001237   0.6748393  -0.0492712   0.0047583   0.6672257  -0.1113683  -0.0008824  -0.0005021
 22222220222/2/00/           0.0021963   0.0492714   0.6748363   0.0175801   0.1112088   0.6670357  -0.0017016  -0.0001472
 222222202222///00           0.0000000   0.0000000  -0.0000000  -0.0000999   0.0008352   0.0014868   0.6709621  -0.3999457

 Coefficients of fixed reference functions:
 ==========================================

 State      Coefficients
 1           0.959053   -0.000175    0.003113   -0.000000    0.000000   -0.000000    0.000000   -0.000000
 2          -0.000052    0.956512    0.069837    0.000000   -0.000000   -0.000005   -0.000000   -0.000000
 3          -0.003117   -0.069837    0.956507    0.000000   -0.000000    0.000000   -0.000004    0.000000
 4          -0.000000    0.000000    0.000000   -0.000002    0.958500    0.006744    0.024918    0.000241
 5           0.000000    0.000005    0.000001    0.001621   -0.010753    0.945739    0.157630    0.000756
 6          -0.000000   -0.000001    0.000004    0.002173   -0.023469   -0.157856    0.945470    0.000113
 7           0.000000   -0.000000   -0.000000    0.958751    0.000071   -0.001251   -0.002412    0.013340
 8           0.000000    0.000000   -0.000000   -0.013342   -0.000231   -0.000712   -0.000209    0.958754

 Coefficients of rotated reference functions:
 ============================================

 State      Coefficients
 1           0.959058   -0.000000    0.000000    0.000000   -0.000000   -0.000000    0.000000    0.000000
 2          -0.000000    0.959058   -0.000000    0.000000    0.000000   -0.000000   -0.000000    0.000000
 3           0.000000   -0.000000    0.959058    0.000000    0.000000    0.000000   -0.000000   -0.000000
 4           0.000000    0.000000    0.000000    0.958847    0.000000    0.000000    0.000000    0.000000
 5          -0.000000    0.000000    0.000000    0.000000    0.958847   -0.000000   -0.000000   -0.000000
 6          -0.000000   -0.000000    0.000000    0.000000   -0.000000    0.958847   -0.000000   -0.000000
 7           0.000000   -0.000000   -0.000000    0.000000   -0.000000   -0.000000    0.958847   -0.000000
 8           0.000000    0.000000   -0.000000    0.000000   -0.000000   -0.000000   -0.000000    0.958847


 RESULTS FOR STATE 1.2
 =====================

 Coefficient of reference function:   C(0) = 0.95905283 (fixed)   0.95917170 (relaxed)   0.95905790 (rotated)

 Energy contributions of configuration classes

 CLASS          SQ.NORM        ECORR1        ECORR2
 +++++++++++++++++++++++++++++++++++++++++++++++++++
 Internals    0.00032638   -0.00065802   -0.65427013
 Singles      0.01697956   -0.06780048   -0.07452868
 Pairs        0.06989632    0.00000002   -0.05007140
 Total        1.08720226   -0.06845848   -0.77887022
 +++++++++++++++++++++++++++++++++++++++++++++++++++


 Reference energy                    -294.38968230
 Nuclear energy                         0.00000000
 Kinetic energy                       111.17233095
 One electron energy                 -508.00564794
 Two electron energy                  212.83709543
 Virial quotient                       -2.65505409
 Correlation energy                    -0.77887022
 !MRCI STATE 1.2 Energy              -295.168552515916

 Properties without orbital relaxation:

 !MRCI STATE 1.2 Dipole moment          0.00000000     0.00000000     0.00000000
 Dipole moment /Debye                   0.00000000     0.00000000     0.00000000

 Cluster corrected energies          -295.23647176 (Davidson, fixed reference)
 Cluster corrected energies          -295.23627083 (Davidson, relaxed reference)
 Cluster corrected energies          -295.23647176 (Davidson, rotated reference)

 Cluster corrected energies          -295.23499268 (Pople, fixed reference)
 Cluster corrected energies          -295.23478138 (Pople, relaxed reference)
 Cluster corrected energies          -295.23499268 (Pople, rotated reference)



 RESULTS FOR STATE 2.2
 =====================

 Coefficient of reference function:   C(0) = 0.95651187 (fixed)   0.95917175 (relaxed)   0.95905795 (rotated)

 Energy contributions of configuration classes

 CLASS          SQ.NORM        ECORR1        ECORR2
 +++++++++++++++++++++++++++++++++++++++++++++++++++
 Internals    0.00032638   -0.00065802   -0.65427015
 Singles      0.01697953   -0.06780046   -0.07452860
 Pairs        0.06989624    0.00000001   -0.05007140
 Total        1.08720215   -0.06845847   -0.77887015
 +++++++++++++++++++++++++++++++++++++++++++++++++++


 Reference energy                    -294.38968230
 Nuclear energy                         0.00000000
 Kinetic energy                       111.17233631
 One electron energy                 -508.00565284
 Two electron energy                  212.83710039
 Virial quotient                       -2.65505397
 Correlation energy                    -0.77887015
 !MRCI STATE 2.2 Energy              -295.168552448059

 Properties without orbital relaxation:

 !MRCI STATE 2.2 Dipole moment          0.00000000     0.00000000     0.00000000
 Dipole moment /Debye                   0.00000000     0.00000000     0.00000000

 Cluster corrected energies          -295.23647160 (Davidson, fixed reference)
 Cluster corrected energies          -295.23627067 (Davidson, relaxed reference)
 Cluster corrected energies          -295.23647160 (Davidson, rotated reference)

 Cluster corrected energies          -295.23499251 (Pople, fixed reference)
 Cluster corrected energies          -295.23478122 (Pople, relaxed reference)
 Cluster corrected energies          -295.23499251 (Pople, rotated reference)



 RESULTS FOR STATE 3.2
 =====================

 Coefficient of reference function:   C(0) = 0.95650680 (fixed)   0.95917174 (relaxed)   0.95905794 (rotated)

 Energy contributions of configuration classes

 CLASS          SQ.NORM        ECORR1        ECORR2
 +++++++++++++++++++++++++++++++++++++++++++++++++++
 Internals    0.00032638   -0.00065802   -0.65427010
 Singles      0.01697951   -0.06780044   -0.07452859
 Pairs        0.06989628   -0.00000004   -0.05007146
 Total        1.08720217   -0.06845850   -0.77887015
 +++++++++++++++++++++++++++++++++++++++++++++++++++


 Reference energy                    -294.38968230
 Nuclear energy                         0.00000000
 Kinetic energy                       111.17233673
 One electron energy                 -508.00565268
 Two electron energy                  212.83710024
 Virial quotient                       -2.65505396
 Correlation energy                    -0.77887015
 !MRCI STATE 3.2 Energy              -295.168552444826

 Properties without orbital relaxation:

 !MRCI STATE 3.2 Dipole moment          0.00000000     0.00000000     0.00000000
 Dipole moment /Debye                   0.00000000     0.00000000     0.00000000

 Cluster corrected energies          -295.23647161 (Davidson, fixed reference)
 Cluster corrected energies          -295.23627068 (Davidson, relaxed reference)
 Cluster corrected energies          -295.23647161 (Davidson, rotated reference)

 Cluster corrected energies          -295.23499253 (Pople, fixed reference)
 Cluster corrected energies          -295.23478123 (Pople, relaxed reference)
 Cluster corrected energies          -295.23499253 (Pople, rotated reference)



 RESULTS FOR STATE 4.2
 =====================

 Maximum overlap with reference state  5

 Coefficient of reference function:   C(0) = 0.95849974 (fixed)   0.95896152 (relaxed)   0.95884734 (rotated)

 Energy contributions of configuration classes

 CLASS          SQ.NORM        ECORR1        ECORR2
 +++++++++++++++++++++++++++++++++++++++++++++++++++
 Internals    0.00033088   -0.00067282   -0.65412501
 Singles      0.01733284   -0.06846683   -0.07537737
 Pairs        0.07001609   -0.00017866   -0.05036363
 Total        1.08767981   -0.06931831   -0.77986601
 +++++++++++++++++++++++++++++++++++++++++++++++++++


 Reference energy                    -294.38320627
 Nuclear energy                         0.00000000
 Kinetic energy                       111.17661155
 One electron energy                 -508.01321866
 Two electron energy                  212.85014638
 Virial quotient                       -2.65490257
 Correlation energy                    -0.77986601
 !MRCI STATE 4.2 Energy              -295.163072283109

 Properties without orbital relaxation:

 !MRCI STATE 4.2 Dipole moment          0.00000000     0.00000000     0.00000000
 Dipole moment /Debye                   0.00000000     0.00000000     0.00000000

 Cluster corrected energies          -295.23145079 (Davidson, fixed reference)
 Cluster corrected energies          -295.23124880 (Davidson, relaxed reference)
 Cluster corrected energies          -295.23145079 (Davidson, rotated reference)

 Cluster corrected energies          -295.22998929 (Pople, fixed reference)
 Cluster corrected energies          -295.22977670 (Pople, relaxed reference)
 Cluster corrected energies          -295.22998929 (Pople, rotated reference)



 RESULTS FOR STATE 5.2
 =====================

 Maximum overlap with reference state  6

 Coefficient of reference function:   C(0) = 0.94573907 (fixed)   0.95896157 (relaxed)   0.95884739 (rotated)

 Energy contributions of configuration classes

 CLASS          SQ.NORM        ECORR1        ECORR2
 +++++++++++++++++++++++++++++++++++++++++++++++++++
 Internals    0.00033088   -0.00067282   -0.65377384
 Singles      0.01733284   -0.06846687   -0.07537737
 Pairs        0.07001597   -0.00056064   -0.05071478
 Total        1.08767968   -0.06970033   -0.77986599
 +++++++++++++++++++++++++++++++++++++++++++++++++++


 Reference energy                    -294.38320627
 Nuclear energy                         0.00000000
 Kinetic energy                       111.17661528
 One electron energy                 -508.01322100
 Two electron energy                  212.85014874
 Virial quotient                       -2.65490249
 Correlation energy                    -0.77986599
 !MRCI STATE 5.2 Energy              -295.163072257607

 Properties without orbital relaxation:

 !MRCI STATE 5.2 Dipole moment          0.00000000     0.00000000     0.00000000
 Dipole moment /Debye                   0.00000000     0.00000000     0.00000000

 Cluster corrected energies          -295.23145066 (Davidson, fixed reference)
 Cluster corrected energies          -295.23124868 (Davidson, relaxed reference)
 Cluster corrected energies          -295.23145066 (Davidson, rotated reference)

 Cluster corrected energies          -295.22998915 (Pople, fixed reference)
 Cluster corrected energies          -295.22977657 (Pople, relaxed reference)
 Cluster corrected energies          -295.22998915 (Pople, rotated reference)



 RESULTS FOR STATE 6.2
 =====================

 Maximum overlap with reference state  7

 Coefficient of reference function:   C(0) = 0.94547046 (fixed)   0.95896156 (relaxed)   0.95884738 (rotated)

 Energy contributions of configuration classes

 CLASS          SQ.NORM        ECORR1        ECORR2
 +++++++++++++++++++++++++++++++++++++++++++++++++++
 Internals    0.00033088   -0.00067282   -0.65421219
 Singles      0.01733281   -0.06846685   -0.07537734
 Pairs        0.07001601   -0.00008386   -0.05027645
 Total        1.08767971   -0.06922353   -0.77986599
 +++++++++++++++++++++++++++++++++++++++++++++++++++


 Reference energy                    -294.38320627
 Nuclear energy                         0.00000000
 Kinetic energy                       111.17661574
 One electron energy                 -508.01322119
 Two electron energy                  212.85014894
 Virial quotient                       -2.65490247
 Correlation energy                    -0.77986599
 !MRCI STATE 6.2 Energy              -295.163072256255

 Properties without orbital relaxation:

 !MRCI STATE 6.2 Dipole moment          0.00000000     0.00000000     0.00000000
 Dipole moment /Debye                   0.00000000     0.00000000     0.00000000

 Cluster corrected energies          -295.23145068 (Davidson, fixed reference)
 Cluster corrected energies          -295.23124869 (Davidson, relaxed reference)
 Cluster corrected energies          -295.23145068 (Davidson, rotated reference)

 Cluster corrected energies          -295.22998917 (Pople, fixed reference)
 Cluster corrected energies          -295.22977659 (Pople, relaxed reference)
 Cluster corrected energies          -295.22998917 (Pople, rotated reference)



 RESULTS FOR STATE 7.2
 =====================

 Maximum overlap with reference state  4

 Coefficient of reference function:   C(0) = 0.95875062 (fixed)   0.95896146 (relaxed)   0.95884727 (rotated)

 Energy contributions of configuration classes

 CLASS          SQ.NORM        ECORR1        ECORR2
 +++++++++++++++++++++++++++++++++++++++++++++++++++
 Internals    0.00033088   -0.00067281   -0.64519835
 Singles      0.01733266   -0.06846656   -0.07537709
 Pairs        0.07001641   -0.00988805   -0.05929043
 Total        1.08767995   -0.07902742   -0.77986588
 +++++++++++++++++++++++++++++++++++++++++++++++++++


 Reference energy                    -294.38320627
 Nuclear energy                         0.00000000
 Kinetic energy                       111.17660855
 One electron energy                 -508.01321516
 Two electron energy                  212.85014301
 Virial quotient                       -2.65490265
 Correlation energy                    -0.77986588
 !MRCI STATE 7.2 Energy              -295.163072145376

 Properties without orbital relaxation:

 !MRCI STATE 7.2 Dipole moment          0.00000000     0.00000000     0.00000000
 Dipole moment /Debye                   0.00000000     0.00000000     0.00000000

 Cluster corrected energies          -295.23145075 (Davidson, fixed reference)
 Cluster corrected energies          -295.23124876 (Davidson, relaxed reference)
 Cluster corrected energies          -295.23145075 (Davidson, rotated reference)

 Cluster corrected energies          -295.22998925 (Pople, fixed reference)
 Cluster corrected energies          -295.22977667 (Pople, relaxed reference)
 Cluster corrected energies          -295.22998925 (Pople, rotated reference)



 RESULTS FOR STATE 8.2
 =====================

 Coefficient of reference function:   C(0) = 0.95875431 (fixed)   0.95896164 (relaxed)   0.95884745 (rotated)

 Energy contributions of configuration classes

 CLASS          SQ.NORM        ECORR1        ECORR2
 +++++++++++++++++++++++++++++++++++++++++++++++++++
 Internals    0.00033089   -0.00067281   -0.00091929
 Singles      0.01733219   -0.06846597   -0.07537659
 Pairs        0.07001648   -0.71065793   -0.70356987
 Total        1.08767955   -0.77979671   -0.77986575
 +++++++++++++++++++++++++++++++++++++++++++++++++++


 Reference energy                    -294.38320627
 Nuclear energy                         0.00000000
 Kinetic energy                       111.17661662
 One electron energy                 -508.01322239
 Two electron energy                  212.85015038
 Virial quotient                       -2.65490245
 Correlation energy                    -0.77986575
 !MRCI STATE 8.2 Energy              -295.163072016598

 Properties without orbital relaxation:

 !MRCI STATE 8.2 Dipole moment          0.00000000     0.00000000     0.00000000
 Dipole moment /Debye                   0.00000000     0.00000000     0.00000000

 Cluster corrected energies          -295.23145030 (Davidson, fixed reference)
 Cluster corrected energies          -295.23124831 (Davidson, relaxed reference)
 Cluster corrected energies          -295.23145030 (Davidson, rotated reference)

 Cluster corrected energies          -295.22998878 (Pople, fixed reference)
 Cluster corrected energies          -295.22977619 (Pople, relaxed reference)
 Cluster corrected energies          -295.22998878 (Pople, rotated reference)



 **********************************************************************************************************************************
 DATASETS  * FILE   NREC   LENGTH (MB)   RECORD NAMES
              1      21       40.28       500      610      700      900      950      970     1000      129      960     1100   
                                          VAR    BASINP    GEOM    SYMINP    ZMAT    AOBASIS   BASIS     P2S    ABASIS      S 
                                         1400     1410     1420     1200     1210     1080     1700     1600     1650     1380   
                                           T        V       ECP      H0       H01     AOSYM    OPER      SMH    MOLCAS    JKOP   
                                         1700(1)
                                         OPER   

              2       7     2254.68       700     1000      520     2100     2140     5203     5303   
                                         GEOM     BASIS   MCVARS     RHF     MCSCF    MRCI     MRCI   

 PROGRAMS   *        TOTAL        CI        CI     MULTI   RHF-SCF       INT
 CPU TIMES  *     72107.21  57439.96  14663.33      2.50      0.19      1.10
 REAL TIME  *     72494.24 SEC
 DISK USED  *         2.24 GB (local),        6.76 GB (total)
 SF USED    *        17.59 GB
 GA USED    *         0.00 MB       (max)       0.00 MB       (current)
 **********************************************************************************************************************************
 SETTING HLSDIAG(4)     =      -295.23647176  AU                              
 SETTING HLSDIAG(5)     =      -295.23647160  AU                              
 SETTING HLSDIAG(6)     =      -295.23647161  AU                              
 SETTING HLSDIAG(7)     =      -295.23145079  AU                              
 SETTING HLSDIAG(8)     =      -295.23145066  AU                              
 SETTING HLSDIAG(9)     =      -295.23145068  AU                              
 SETTING HLSDIAG(10)    =      -295.23145075  AU                              
 SETTING HLSDIAG(11)    =      -295.23145030  AU                              


         HLSDIAG
    -295.5253529
    -295.5253530
    -295.5253529
    -295.2364718
    -295.2364716
    -295.2364716
    -295.2314508
    -295.2314507
    -295.2314507
    -295.2314507
    -295.2314503
                                                  


 PROGRAM * CI (Multireference internally contracted CI)     Authors: H.-J. Werner, P.J. Knowles, 1987


 Diagonal elements of H will be replaced by values from variable HLSDIAG


   ******************************
   *** Spin-orbit calculation ***
   ******************************


   Spin-orbit matrix elements
   ==========================

 Wavefunction restored from record  5203.2  Symmetry=2  S= 0.5  NSTATE=   3

 Original energies:   -295.450864   -295.450864   -295.450864
 Replaced energies:   -295.525353   -295.525353   -295.525353

 Wavefunction restored from record  5303.2  Symmetry=2  S= 1.5  NSTATE=   8

 Original energies:   -295.168553   -295.168552   -295.168552   -295.163072   -295.163072   -295.163072   -295.163072   -295.163072
 Replaced energies:   -295.236472   -295.236472   -295.236472   -295.231451   -295.231451   -295.231451   -295.231451   -295.231450



   Spin-orbit calculation in the basis of zeroth order wave functions
   ==================================================================

 Lowest unperturbed energy E0=  -295.52535297

 Wigner-Eckart theorem used for 23 matrix elements

 No symmetry adapted basis set used to set up the SO-matrix


 Spin-Orbit Matrix (CM-1)
 ========================

   Nr   State  S   Sz        1          2          3          4          5          6          7          8          9         10

    1   1.2  0.5  0.5       0.00       0.00       0.00       0.00   -1773.95     128.48    -346.21      -3.72     -50.12    -373.28
                           -0.00      82.64   -2525.69       0.00    1816.50     240.38    -356.48     -51.22       4.90     382.93

    2   2.2  0.5  0.5       0.00       0.00       0.00    1773.95       0.00    1813.84      45.65     -36.39    -498.51      36.83
                          -82.64      -0.00     259.73   -1816.50      -0.00    1759.53      25.34    -498.31      36.30     -30.94

    3   3.2  0.5  0.5       0.00       0.00       0.01    -128.48   -1813.84      -0.00    -357.30      -1.17     -15.15    -384.23
                         2525.69    -259.73       0.00    -240.38   -1759.53      -0.00     348.65     -16.32       0.06    -374.90

    4   1.2  0.5 -0.5       0.00    1773.95    -128.48       0.00       0.00       0.00       0.00       0.00       0.00       0.00
                           -0.00    1816.50     240.38       0.00     -82.64    2525.69       0.00       0.00       0.00       0.00

    5   2.2  0.5 -0.5   -1773.95       0.00   -1813.84       0.00       0.00       0.00       0.00       0.00       0.00       0.00
                        -1816.50       0.00    1759.53      82.64       0.00    -259.73       0.00       0.00       0.00       0.00

    6   3.2  0.5 -0.5     128.48    1813.84      -0.00       0.00       0.00       0.01       0.00       0.00       0.00       0.00
                         -240.38   -1759.53       0.00   -2525.69     259.73      -0.00       0.00       0.00       0.00       0.00

    7   1.2  1.5  1.5    -346.21      45.65    -357.30       0.00       0.00       0.00   63402.10       0.00       0.00       0.00
                          356.48     -25.34    -348.65      -0.00      -0.00      -0.00       0.00       4.26      -0.07      -0.38

    8   2.2  1.5  1.5      -3.72     -36.39      -1.17       0.00       0.00       0.00       0.00   63402.13       0.00       0.00
                           51.22     498.31      16.32      -0.00      -0.00      -0.00      -4.26      -0.00   -1309.31     -37.01

    9   3.2  1.5  1.5     -50.12    -498.51     -15.15       0.00       0.00       0.00       0.00       0.00   63402.13       0.00
                           -4.90     -36.30      -0.06      -0.00      -0.00      -0.00       0.07    1309.31       0.00      12.98

   10   4.2  1.5  1.5    -373.28      36.83    -384.23       0.00       0.00       0.00       0.00       0.00       0.00   64504.07
                         -382.93      30.94     374.90      -0.00      -0.00      -0.00       0.38      37.01     -12.98       0.00

   11   5.2  1.5  1.5      -5.74     -88.86       2.22       0.00       0.00       0.00       0.00       0.00       0.00       0.00
                           59.29     529.84      13.62      -0.00      -0.00      -0.00      -3.38     134.20   -1450.29     -36.49

   12   6.2  1.5  1.5     -46.29    -531.07      -7.06       0.00       0.00       0.00       0.00       0.00       0.00       0.00
                            1.11     -89.27     -11.22      -0.00      -0.00      -0.00       0.71    1449.91     134.57       8.76

   13   7.2  1.5  1.5    -388.68      28.90     380.26       0.00       0.00       0.00       0.00       0.00       0.00       0.00
                          371.24     -51.43     383.36      -0.00      -0.00      -0.00      23.43      -3.52       2.09   -2618.88

   14   8.2  1.5  1.5    -217.35      15.51     212.76       0.00       0.00       0.00       0.00       0.00       0.00       0.00
                         -221.16      29.82    -228.48      -0.00      -0.00      -0.00    1681.74      -0.33      -4.37      36.51

   15   1.2  1.5  0.5       0.00       0.00       0.00    -199.89      26.36    -206.29       0.00      55.05     753.94     -19.13
                           -1.42       0.11       1.24     205.82     -14.63    -201.30      -0.00     753.94     -55.05      -5.76

   16   2.2  1.5  0.5       0.00       0.00       0.00      -2.15     -21.01      -0.68     -55.05       0.00       0.14      61.34
                          368.37     -52.31     441.00      29.57     287.70       9.42    -753.94       0.00       2.45    -838.44

   17   3.2  1.5  0.5       0.00       0.00       0.00     -28.94    -287.82      -8.74    -753.94      -0.14      -0.00     838.49
                         -442.64      33.27     374.40      -2.83     -20.96      -0.03      55.05      -2.45      -0.00      61.11

   18   4.2  1.5  0.5       0.00       0.00       0.00    -215.51      21.26    -221.84      19.13     -61.34    -838.48      -0.00
[...]

   36    6.2  1.5 -1.5   0.062872017   0.002416525  -0.009409662   0.200898916  -0.010361431  -0.170331451
                        -0.068744211  -0.000135901   0.000898490   0.331215080   0.000969307  -0.125805878

   37    7.2  1.5 -1.5  -0.000246173  -0.000587292   0.000120261   0.000132548  -0.000152446   0.000190958
                        -0.000017726  -0.094812850   0.387214035  -0.001118434   0.423410929   0.000597224

   38    8.2  1.5 -1.5  -0.000092390   0.002864759   0.000045344   0.000177002  -0.000099423  -0.000081145
                        -0.000046448   0.387157568   0.094761170  -0.000217406  -0.005871822   0.000142143


 Composition of spin-orbit eigenvectors
 ======================================

   Nr   State  S   Sz       1        2        3        4        5        6        7        8        9       10

    1    1.2  0.5  0.5   0.629%  19.129%  46.840%   0.044%   0.348%  32.967%   0.000%   0.000%   0.000%   0.000%
    2    2.2  0.5  0.5  61.636%   0.128%   0.615%   4.264%  32.930%   0.383%   0.000%   0.000%   0.000%   0.000%
    3    3.2  0.5  0.5   0.067%  18.374%  48.197%   0.004%   0.035%  33.280%   0.000%   0.000%   0.000%   0.000%
    4    1.2  0.5 -0.5  19.129%   0.629%   0.044%  46.840%  32.967%   0.348%   0.000%   0.000%   0.000%   0.000%
    5    2.2  0.5 -0.5   0.128%  61.636%   4.265%   0.615%   0.383%  32.930%   0.000%   0.000%   0.000%   0.000%
    6    3.2  0.5 -0.5  18.374%   0.067%   0.004%  48.197%  33.280%   0.035%   0.000%   0.000%   0.000%   0.000%
    7    1.2  1.5  1.5   0.000%   0.001%   0.010%   0.000%   0.000%   0.000%   0.010%   0.000%   0.010%   5.390%
    8    2.2  1.5  1.5   0.003%   0.000%   0.000%   0.000%   0.002%   0.000%   0.000%   4.126%   1.658%   0.009%
    9    3.2  1.5  1.5   0.003%   0.000%   0.000%   0.000%   0.002%   0.000%   0.000%   3.573%   1.936%   0.007%
   10    4.2  1.5  1.5   0.000%   0.004%   0.000%   0.000%   0.000%   0.009%   1.973%   0.003%   0.000%   0.001%
   11    5.2  1.5  1.5   0.004%   0.000%   0.000%   0.000%   0.002%   0.000%   0.000%   4.338%   0.287%   0.001%
   12    6.2  1.5  1.5   0.004%   0.000%   0.000%   0.000%   0.002%   0.000%   0.001%   4.542%   0.180%   0.001%
   13    7.2  1.5  1.5   0.000%   0.004%   0.000%   0.000%   0.000%   0.010%   1.976%   0.000%   0.000%   0.000%
   14    8.2  1.5  1.5   0.000%   0.000%   0.004%   0.000%   0.000%   0.000%   0.002%   0.000%   0.004%   2.075%
   15    1.2  1.5  0.5   0.001%   0.000%   0.000%   0.000%   0.003%   0.000%   0.000%  46.137%   0.032%   0.000%
   16    2.2  1.5  0.5   0.000%   0.003%   0.006%   0.000%   0.000%   0.001%  12.100%   0.000%   0.008%   3.767%
   17    3.2  1.5  0.5   0.000%   0.007%   0.002%   0.000%   0.000%   0.001%  10.988%   0.001%   0.009%   4.325%
   18    4.2  1.5  0.5   0.000%   0.000%   0.000%   0.004%   0.000%   0.000%   0.004%   0.007%   7.785%   0.024%
   19    5.2  1.5  0.5   0.000%   0.000%   0.003%   0.000%   0.000%   0.007%   4.149%   0.000%   0.001%   0.041%
   20    6.2  1.5  0.5   0.000%   0.000%   0.004%   0.000%   0.000%   0.007%   4.074%   0.000%   0.003%   0.080%
   21    7.2  1.5  0.5   0.000%   0.000%   0.000%   0.004%   0.000%   0.000%   0.000%   0.002%   2.829%   0.007%
   22    8.2  1.5  0.5   0.004%   0.000%   0.000%   0.000%   0.010%   0.000%   0.000%   1.972%   0.004%   0.000%
   23    1.2  1.5 -0.5   0.000%   0.001%   0.000%   0.000%   0.000%   0.003%  46.145%   0.000%   0.000%   0.021%
   24    2.2  1.5 -0.5   0.003%   0.000%   0.000%   0.006%   0.001%   0.000%   0.000%  12.290%  21.143%   0.069%
   25    3.2  1.5 -0.5   0.007%   0.000%   0.000%   0.002%   0.001%   0.000%   0.001%  10.806%  22.717%   0.062%
   26    4.2  1.5 -0.5   0.000%   0.000%   0.004%   0.000%   0.000%   0.000%   0.006%   0.004%   0.027%  10.795%
   27    5.2  1.5 -0.5   0.000%   0.000%   0.000%   0.003%   0.007%   0.000%   0.000%   4.160%   0.264%   0.003%
   28    6.2  1.5 -0.5   0.000%   0.000%   0.000%   0.004%   0.007%   0.000%   0.000%   4.061%   0.372%   0.003%
   29    7.2  1.5 -0.5   0.000%   0.000%   0.004%   0.000%   0.000%   0.000%   0.001%   0.000%   0.008%   1.865%
   30    8.2  1.5 -0.5   0.000%   0.004%   0.000%   0.000%   0.000%   0.010%   1.974%   0.000%   0.000%   0.000%
   31    1.2  1.5 -1.5   0.001%   0.000%   0.000%   0.010%   0.000%   0.000%   0.000%   0.018%  29.241%   0.078%
   32    2.2  1.5 -1.5   0.000%   0.003%   0.000%   0.000%   0.000%   0.002%   4.217%   0.000%   0.104%  31.140%
   33    3.2  1.5 -1.5   0.000%   0.003%   0.000%   0.000%   0.000%   0.002%   3.492%   0.000%   0.094%  32.085%
   34    4.2  1.5 -1.5   0.004%   0.000%   0.000%   0.000%   0.009%   0.000%   0.003%   1.973%   0.001%   0.003%
   35    5.2  1.5 -1.5   0.000%   0.004%   0.000%   0.000%   0.000%   0.002%   4.308%   0.000%   0.013%   4.235%
   36    6.2  1.5 -1.5   0.000%   0.004%   0.000%   0.000%   0.000%   0.002%   4.575%   0.001%   0.014%   3.880%
   37    7.2  1.5 -1.5   0.004%   0.000%   0.000%   0.000%   0.010%   0.000%   0.000%   1.977%   0.000%   0.000%
   38    8.2  1.5 -1.5   0.000%   0.000%   0.000%   0.004%   0.000%   0.000%   0.000%   0.004%  11.256%   0.033%

   Nr   State  S   Sz      11       12       13       14       15       16       17       18       19       20

    1    1.2  0.5  0.5   0.000%   0.000%   0.000%   0.000%   0.000%   0.000%   0.000%   0.000%   0.000%   0.000%
    2    2.2  0.5  0.5   0.000%   0.000%   0.000%   0.000%   0.000%   0.000%   0.000%   0.000%   0.000%   0.000%
    3    3.2  0.5  0.5   0.000%   0.000%   0.000%   0.000%   0.000%   0.000%   0.000%   0.000%   0.000%   0.000%
    4    1.2  0.5 -0.5   0.000%   0.000%   0.000%   0.000%   0.000%   0.000%   0.000%   0.000%   0.000%   0.000%
    5    2.2  0.5 -0.5   0.000%   0.000%   0.000%   0.000%   0.000%   0.000%   0.000%   0.000%   0.000%   0.000%
    6    3.2  0.5 -0.5   0.000%   0.000%   0.000%   0.000%   0.000%   0.000%   0.000%   0.000%   0.000%   0.000%
    7    1.2  1.5  1.5  25.370%   0.002%   0.000%   0.000%   0.000%   0.000%   0.000%   0.000%   0.000%   0.000%
    8    2.2  1.5  1.5   0.003%  36.528%   0.000%   0.000%   0.000%   0.000%   0.000%   0.000%   0.000%   0.000%
    9    3.2  1.5  1.5   0.002%  36.806%   0.000%   0.000%   0.000%   0.000%   0.000%   0.000%   0.000%   0.000%
   10    4.2  1.5  1.5   0.000%   0.003%  49.463%   0.841%   0.000%   0.004%   0.015%   0.000%   0.002%   1.092%
   11    5.2  1.5  1.5   0.000%   4.756%   0.018%   0.001%   0.000%  28.117%   0.001%   0.053%   6.098%   0.000%
   12    6.2  1.5  1.5   0.000%   4.654%   0.005%   0.005%   0.000%  28.804%   0.000%   0.171%   5.310%   0.000%
   13    7.2  1.5  1.5   0.001%   0.000%  48.757%   0.829%   0.002%   0.039%   0.004%   0.000%   0.000%   1.792%
   14    8.2  1.5  1.5   9.767%   0.001%   0.002%   0.000%   0.102%   0.001%  28.393%   0.009%   0.000%   0.069%
   15    1.2  1.5  0.5   0.000%   0.002%   0.000%   0.000%   0.000%   0.000%   0.000%   0.000%   0.000%   0.000%
   16    2.2  1.5  0.5  18.751%   0.003%   0.000%   0.000%   0.000%   0.000%   0.000%   0.000%   0.000%   0.000%
   17    3.2  1.5  0.5  19.304%   0.002%   0.000%   0.000%   0.000%   0.000%   0.000%   0.000%   0.000%   0.000%
   18    4.2  1.5  0.5   0.000%   4.029%   0.016%   0.003%   0.000%  22.821%   0.008%   5.723%   0.004%   0.008%
   19    5.2  1.5  0.5   0.254%   0.001%   0.020%   0.000%   0.132%   0.002%  26.377%   0.007%   0.002%  19.172%
   20    6.2  1.5  0.5   0.289%   0.002%   0.002%   0.000%   0.076%   0.007%  30.488%   0.003%   0.001%  15.127%
   21    7.2  1.5  0.5   0.001%   9.012%   0.016%   0.000%   0.000%  19.892%   0.001%   8.658%   0.008%   0.000%
   22    8.2  1.5  0.5   0.000%   0.001%   0.001%   0.022%   0.000%   0.001%   0.001%   0.087%  51.307%   0.004%
   23    1.2  1.5 -0.5   0.005%   0.000%   0.000%   0.000%   0.000%   0.000%   0.000%   0.000%   0.000%   0.000%
   24    2.2  1.5 -0.5   0.001%   1.126%   0.000%   0.000%   0.000%   0.000%   0.000%   0.000%   0.000%   0.000%
   25    3.2  1.5 -0.5   0.001%   1.041%   0.000%   0.000%   0.000%   0.000%   0.000%   0.000%   0.000%   0.000%
   26    4.2  1.5 -0.5   1.016%   0.000%   0.003%   0.017%  22.819%   0.000%   5.724%   0.008%   0.008%   0.004%
   27    5.2  1.5 -0.5   0.000%   0.019%   0.000%   0.019%   0.002%   0.133%   0.007%  26.377%  19.172%   0.002%
   28    6.2  1.5 -0.5   0.001%   0.013%   0.000%   0.002%   0.007%   0.076%   0.003%  30.488%  15.128%   0.001%
   29    7.2  1.5 -0.5   9.976%   0.001%   0.000%   0.016%  19.893%   0.000%   8.657%   0.001%   0.000%   0.008%
   30    8.2  1.5 -0.5   0.003%   0.000%   0.021%   0.001%   0.001%   0.000%   0.087%   0.001%   0.004%  51.308%
   31    1.2  1.5 -1.5   0.001%   1.444%   0.000%   0.000%   0.000%   0.000%   0.000%   0.000%   0.000%   0.000%
   32    2.2  1.5 -1.5   6.863%   0.000%   0.000%   0.000%   0.000%   0.000%   0.000%   0.000%   0.000%   0.000%
   33    3.2  1.5 -1.5   6.653%   0.000%   0.000%   0.000%   0.000%   0.000%   0.000%   0.000%   0.000%   0.000%
   34    4.2  1.5 -1.5   0.001%   0.000%   0.841%  49.465%   0.004%   0.000%   0.000%   0.014%   1.091%   0.002%
   35    5.2  1.5 -1.5   0.826%   0.000%   0.001%   0.018%  28.125%   0.000%   0.053%   0.001%   0.000%   6.090%
   36    6.2  1.5 -1.5   0.909%   0.000%   0.005%   0.005%  28.796%   0.000%   0.171%   0.000%   0.000%   5.318%
   37    7.2  1.5 -1.5   0.000%   0.000%   0.829%  48.754%   0.040%   0.002%   0.000%   0.005%   1.794%   0.000%
   38    8.2  1.5 -1.5   0.000%   0.556%   0.000%   0.002%   0.001%   0.102%   0.009%  28.393%   0.069%   0.000%

   Nr   State  S   Sz      21       22       23       24       25       26       27       28       29       30

    1    1.2  0.5  0.5   0.000%   0.001%   0.001%   0.000%   0.000%   0.000%   0.000%   0.000%   0.000%   0.000%
    2    2.2  0.5  0.5   0.000%   0.000%   0.000%   0.002%   0.000%   0.000%   0.000%   0.000%   0.000%   0.000%
    3    3.2  0.5  0.5   0.000%   0.002%   0.001%   0.000%   0.000%   0.000%   0.000%   0.000%   0.000%   0.000%
    4    1.2  0.5 -0.5   0.002%   0.000%   0.000%   0.001%   0.000%   0.000%   0.000%   0.000%   0.000%   0.000%
    5    2.2  0.5 -0.5   0.000%   0.000%   0.002%   0.000%   0.000%   0.000%   0.000%   0.000%   0.000%   0.000%
    6    3.2  0.5 -0.5   0.002%   0.000%   0.000%   0.001%   0.000%   0.000%   0.000%   0.000%   0.000%   0.000%
    7    1.2  1.5  1.5   0.000%  45.807%   1.863%   0.000%   0.000%   0.000%   0.000%   0.001%   0.000%   0.002%
    8    2.2  1.5  1.5   0.404%   0.000%   0.000%  15.486%   0.000%  22.432%  11.699%   0.000%   0.974%   0.002%
    9    3.2  1.5  1.5   0.404%   0.000%   0.000%  15.486%   0.000%  22.432%  11.330%   0.000%   1.344%   0.001%
   10    4.2  1.5  1.5   0.000%   0.160%   3.946%   0.003%   2.053%   0.000%   0.020%   0.008%   0.011%   6.574%
   11    5.2  1.5  1.5   0.104%   0.000%   0.001%   4.004%   0.000%   0.514%  15.663%   0.006%  15.655%   0.004%
   12    6.2  1.5  1.5   0.104%   0.000%   0.002%   4.002%   0.001%   0.513%  17.289%   0.006%  14.004%   0.012%
   13    7.2  1.5  1.5   0.000%   0.139%   3.970%   0.000%   2.054%   0.000%   0.001%   0.008%   0.000%   6.590%
   14    8.2  1.5  1.5   0.000%   3.970%   0.139%   0.000%   0.000%   0.000%   0.000%   0.004%   0.001%   0.002%
   15    1.2  1.5  0.5   0.135%   0.000%   0.000%   5.162%   0.000%  29.909%   0.010%   0.005%  13.811%   0.000%
   16    2.2  1.5  0.5   0.000%  23.121%  13.956%   0.000%   7.477%   0.000%   0.000%   0.008%   0.000%   3.574%
   17    3.2  1.5  0.5   0.000%   9.073%  28.003%   0.000%   7.477%   0.000%   0.001%   0.002%   0.001%   3.332%
   18    4.2  1.5  0.5   4.002%   0.003%   0.000%   0.104%   0.001%   0.000%  22.261%   0.000%   0.007%   0.004%
   19    5.2  1.5  0.5   0.001%   3.948%   0.161%   0.000%   1.540%   0.000%   0.002%   0.018%   0.000%  13.810%
   20    6.2  1.5  0.5   0.002%   3.946%   0.160%   0.000%   1.540%   0.000%   0.006%   0.014%   0.000%  13.630%
   21    7.2  1.5  0.5   4.022%   0.000%   0.000%   0.087%   0.000%   0.000%  21.657%   0.000%   0.039%   0.005%
   22    8.2  1.5  0.5   0.087%   0.000%   0.000%   4.023%   0.000%   2.054%   0.017%   0.003%   6.576%   0.000%
   23    1.2  1.5 -0.5   0.000%   0.207%   5.090%   0.000%  29.909%   0.000%   0.002%   0.016%   0.000%  13.806%
   24    2.2  1.5 -0.5  21.728%   0.000%   0.000%  15.349%   0.000%   7.477%   0.004%   0.001%   3.540%   0.000%
   25    3.2  1.5 -0.5  10.321%   0.000%   0.000%  26.755%   0.000%   7.477%   0.001%   0.002%   3.367%   0.001%
   26    4.2  1.5 -0.5   0.003%   3.946%   0.160%   0.000%   0.000%   0.001%   0.000%  22.363%   0.001%   0.012%
   27    5.2  1.5 -0.5   4.005%   0.001%   0.000%   0.104%   0.000%   1.540%   0.011%   0.004%  13.791%   0.000%
   28    6.2  1.5 -0.5   4.002%   0.002%   0.000%   0.104%   0.000%   1.540%   0.008%   0.004%  13.666%   0.000%
   29    7.2  1.5 -0.5   0.000%   3.970%   0.139%   0.000%   0.000%   0.000%   0.000%  21.528%   0.011%   0.062%
   30    8.2  1.5 -0.5   0.000%   0.139%   3.971%   0.000%   2.054%   0.000%   0.001%   0.022%   0.000%   6.571%
   31    1.2  1.5 -1.5  46.459%   0.000%   0.000%   1.211%   0.000%   0.000%   0.001%   0.000%   0.001%   0.000%
   32    2.2  1.5 -1.5   0.000%   0.621%  15.269%   0.000%  22.432%   0.000%   0.000%  11.743%   0.005%   0.926%
   33    3.2  1.5 -1.5   0.000%   0.621%  15.269%   0.000%  22.432%   0.000%   0.000%  11.269%   0.004%   1.402%
   34    4.2  1.5 -1.5   0.104%   0.000%   0.003%   4.002%   0.000%   2.053%   0.004%   0.026%   6.572%   0.010%
   35    5.2  1.5 -1.5   0.000%   0.161%   3.948%   0.001%   0.514%   0.000%   0.002%  15.413%   0.008%  15.904%
   36    6.2  1.5 -1.5   0.000%   0.161%   3.946%   0.003%   0.513%   0.001%   0.002%  17.523%   0.021%  13.762%
   37    7.2  1.5 -1.5   0.087%   0.000%   0.000%   4.022%   0.000%   2.054%   0.005%   0.003%   6.591%   0.000%
   38    8.2  1.5 -1.5   4.022%   0.000%   0.000%   0.087%   0.000%   0.000%   0.002%   0.000%   0.001%   0.001%

   Nr   State  S   Sz      31       32       33       34       35       36       37       38

    1    1.2  0.5  0.5   0.000%   0.000%   0.016%   0.000%   0.000%   0.006%   0.000%   0.018%
    2    2.2  0.5  0.5   0.000%   0.000%   0.000%   0.001%   0.021%   0.000%   0.018%   0.000%
    3    3.2  0.5  0.5   0.000%   0.000%   0.016%   0.000%   0.000%   0.006%   0.000%   0.018%
    4    1.2  0.5 -0.5   0.000%   0.000%   0.000%   0.016%   0.006%   0.000%   0.018%   0.000%
    5    2.2  0.5 -0.5   0.000%   0.000%   0.001%   0.000%   0.000%   0.021%   0.000%   0.018%
    6    3.2  0.5 -0.5   0.000%   0.000%   0.000%   0.016%   0.006%   0.000%   0.018%   0.000%
    7    1.2  1.5  1.5   9.215%   0.000%  11.645%   0.000%   0.000%   0.674%   0.000%   0.000%
    8    2.2  1.5  1.5   0.000%   0.001%   0.000%   0.259%   3.846%   0.000%   2.567%   0.000%
    9    3.2  1.5  1.5   0.000%   0.000%   0.000%   0.259%   3.846%   0.000%   2.567%   0.000%
   10    4.2  1.5  1.5   0.001%   0.000%   0.869%   0.001%   0.011%  15.011%   0.003%  17.917%
   11    5.2  1.5  1.5   0.000%   0.000%   0.000%   1.002%  14.880%   0.002%   4.486%   0.002%
   12    6.2  1.5  1.5   0.000%   0.004%   0.001%   1.002%  14.872%   0.009%   4.484%   0.011%
   13    7.2  1.5  1.5   0.003%   0.000%   0.772%   0.000%   0.000%  15.121%   0.000%  17.928%
   14    8.2  1.5  1.5  39.562%   0.000%  15.117%   0.000%   0.000%   0.771%   0.000%   0.003%
   15    1.2  1.5  0.5   0.001%   0.001%   0.000%   0.087%   1.283%   0.000%   3.420%   0.000%
   16    2.2  1.5  0.5   6.789%   0.000%   6.315%   0.000%   0.000%   3.267%   0.000%   0.854%
   17    3.2  1.5  0.5   7.036%   0.000%   2.047%   0.000%   0.000%   7.535%   0.000%   0.855%
   18    4.2  1.5  0.5   0.001%  17.285%   0.011%  14.872%   1.002%   0.001%   0.000%   0.010%
   19    5.2  1.5  0.5   1.011%   0.003%  15.019%   0.002%   0.000%   0.868%   0.000%  13.448%
   20    6.2  1.5  0.5   1.191%   0.013%  15.006%   0.009%   0.001%   0.869%   0.000%  13.446%
   21    7.2  1.5  0.5   0.000%  17.868%   0.000%  14.989%   0.898%   0.000%   0.004%   0.000%
   22    8.2  1.5  0.5   0.000%   0.007%   0.000%   0.897%  14.984%   0.000%  17.939%   0.000%
   23    1.2  1.5 -0.5   0.002%   0.001%   0.075%   0.000%   0.000%   1.295%   0.000%   3.420%
   24    2.2  1.5 -0.5   0.000%   6.826%   0.000%   6.476%   3.107%   0.000%   0.854%   0.000%
   25    3.2  1.5 -0.5   0.000%   7.001%   0.000%   1.910%   7.672%   0.000%   0.855%   0.000%
   26    4.2  1.5 -0.5  17.182%   0.001%  15.006%   0.011%   0.001%   0.868%   0.010%   0.000%
   27    5.2  1.5 -0.5   0.003%   1.036%   0.002%  14.885%   1.002%   0.000%  13.448%   0.000%
   28    6.2  1.5 -0.5   0.014%   1.164%   0.009%  14.872%   1.003%   0.001%  13.446%   0.000%
   29    7.2  1.5 -0.5  17.967%   0.000%  15.116%   0.000%   0.000%   0.771%   0.000%   0.004%
   30    8.2  1.5 -0.5   0.009%   0.000%   0.770%   0.000%   0.000%  15.111%   0.000%  17.938%
   31    1.2  1.5 -1.5   0.000%   9.217%   0.000%  11.542%   0.778%   0.000%   0.000%   0.000%
   32    2.2  1.5 -1.5   0.002%   0.000%   0.224%   0.000%   0.000%   3.881%   0.000%   2.567%
   33    3.2  1.5 -1.5   0.000%   0.000%   0.224%   0.000%   0.000%   3.881%   0.000%   2.567%
   34    4.2  1.5 -1.5   0.000%   0.001%   0.001%   1.003%  14.877%   0.011%  17.917%   0.003%
   35    5.2  1.5 -1.5   0.000%   0.000%   0.868%   0.000%   0.002%  15.014%   0.002%   4.486%
   36    6.2  1.5 -1.5   0.008%   0.000%   0.868%   0.001%   0.009%  15.006%   0.011%   4.484%
   37    7.2  1.5 -1.5   0.000%   0.004%   0.000%   0.899%  14.993%   0.000%  17.928%   0.000%
   38    8.2  1.5 -1.5   0.000%  39.566%   0.000%  14.990%   0.898%   0.000%   0.003%   0.000%


 Property matrices transformed in SO basis (not sym. adapted)
 ============================================================

 No matrix element <i|DMX|i> larger than 5E-7
 No matrix element <i|DMX|1> larger than 5E-7

 No matrix element <i|DMY|i> larger than 5E-7
 No matrix element <i|DMY|1> larger than 5E-7

 No matrix element <i|DMZ|i> larger than 5E-7
 No matrix element <i|DMZ|1> larger than 5E-7


 **********************************************************************************************************************************
 DATASETS  * FILE   NREC   LENGTH (MB)   RECORD NAMES
              1      21       40.28       500      610      700      900      950      970     1000      129      960     1100   
                                          VAR    BASINP    GEOM    SYMINP    ZMAT    AOBASIS   BASIS     P2S    ABASIS      S 
                                         1400     1410     1420     1200     1210     1080     1700     1600     1650     1380   
                                           T        V       ECP      H0       H01     AOSYM    OPER      SMH    MOLCAS    JKOP   
                                         1700(1)
                                         OPER   

              2       7     2254.68       700     1000      520     2100     2140     5203     5303   
                                         GEOM     BASIS   MCVARS     RHF     MCSCF    MRCI     MRCI   

 PROGRAMS   *        TOTAL        CI        CI        CI     MULTI   RHF-SCF       INT
 CPU TIMES  *    385377.07 313269.86  57439.96  14663.33      2.50      0.19      1.10
 REAL TIME  *    387784.97 SEC
 DISK USED  *         2.24 GB (local),        6.76 GB (total)
 SF USED    *        17.59 GB
 GA USED    *         0.00 MB       (max)       0.00 MB       (current)
 **********************************************************************************************************************************

 CI/USERDEF energy=   -295.211711894423

              CI              CI           MULTI         RHF-SCF
   -295.16307202   -295.45086404   -294.38320627   -294.74654372
 **********************************************************************************************************************************
 Molpro calculation terminated with 1 warning(s)
