
 Working directory              : /wrk/irikura/molpro.UcWeBY7htW/
 Global scratch directory       : /wrk/irikura/molpro.UcWeBY7htW/
 Wavefunction directory         : /home/irikura/wfu/
 Main file repository           : /wrk/irikura/molpro.UcWeBY7htW/

 id        : nistki

 Nodes            nprocs
 pn112695.nist.gov   12
 GA implementation: MPI file
 GA implementation (serial work in mppx): MPI file

 Using customized tuning parameters: mindgm=1; mindgv=20; mindgc=4; mindgr=1; noblas=0; minvec=7
 default implementation of scratch files=sf  


 Variables initialized (1042), CPU time= 0.01 sec
 ***,Sn SO-CI
                                                                                 ! trying to get minimal problem demonstration
 memory,1300,M;
 
 gprint,orbitals,civector;
 
 symmetry,xyz
 geometry={Sn};
 
 basis=aug-cc-pwCVTZ-DK3
 
 set,dkho=101
 
                                                                                 ! spherical dication (1S) orbitals
 {rhf;wf,nelec=48,sym=1,spin=0}
 
 NTRIP=11
 NSING=6
 
                                                                                 ! (4/7) active space (s + 2*p)
 {multi
     occ,15,15
     wf,nelec=50,sym=1,spin=2;state,NTRIP;
     expec2,lxx,lyy,lzz;
     wf,nelec=50,sym=1,spin=0;state,NSING;
     expec2,lxx,lyy,lzz;
 }
 table, energy, ll
 title, Energies and &lt;L**2&gt; values
 
                                                                                 ! free KL shells
 core,8,6
 
 {ci;wf,sym=1,spin=2;state,NTRIP; save,5203.2}
 hlsdiag = energd4
 {ci;wf,sym=1,spin=0;state,NSING; save,5201.2}
 hlsdiag(NTRIP+1) = energd4
 
 table,hlsdiag
 
                                                                                 !lsint
 {ci;hlsmat,ls,5203.2,5201.2;print,vls=0,hls=0}                                  !compute and diagonalize SO matrix
 Commands initialized (847), CPU time= 0.01 sec, 718 directives.
 Default parameters read. Elapsed time= 0.11 sec

 Checking input...
 Passed
1


                                         ***  PROGRAM SYSTEM MOLPRO  ***
                                       Copyright, TTI GmbH Stuttgart, 2015
                                    Version 2024.1 linked Wed Jan 31 05:42:09 2024


 **********************************************************************************************************************************
 LABEL *   Sn SO-CI                                                                                                                                                      
  (32 PROC) 64 bit mpp version                                                           DATE: 09-May-24          TIME: 19:20:28  
 **********************************************************************************************************************************

 SHA1:             675817fde4514a4a933b69e420913a90cee4ef91
 **********************************************************************************************************************************

 Memory per process:      1300 MW
 Total memory per node:  15600 MW

 GA preallocation disabled
 GA check disabled

 Variable memory set to 1300.0 MW


 ZSYMEL=XYZ

 SETTING BASIS          =    AUG-CC-PWCVTZ-DK3
 SETTING DKHO           =       101.00000000                                  


 Recomputing integrals since basis changed


 Using spherical harmonics

 Library entry SN     S augccpwCVTZ-DK3      selected for orbital group  1
 Library entry SN     P augccpwCVTZ-DK3      selected for orbital group  1
 Library entry SN     D augccpwCVTZ-DK3      selected for orbital group  1
 Library entry SN     F augccpwCVTZ-DK3      selected for orbital group  1
 Library entry SN     G augccpwCVTZ-DK3      selected for orbital group  1


 PROGRAM * SEWARD (Integral evaluation for generally contracted gaussian basis sets)     Author: Roland Lindh, 1990

 Geometry written to block  1 of record 700

 Orientation using atomic masses  
 Molecule type: Atom
 User-specified symmetry elements: XYZ
 Symmetry elements: XYZ
 Rotational constants:       0.0000000      0.0000000      0.0000000 GHz  (calculated with average atomic masses)

 Point group  Ci  



 ATOMIC COORDINATES

 NR  ATOM    CHARGE       X              Y              Z

   1  SN     50.00    0.000000000    0.000000000    0.000000000

 NUCLEAR CHARGE:                   50
 NUMBER OF PRIMITIVE AOS:         240
 NUMBER OF SYMMETRY AOS:          207
 NUMBER OF CONTRACTIONS:          109   (   54Ag  +   55Au  )
 NUMBER OF INNER CORE ORBITALS:    14   (    8Ag  +    6Au  )
 NUMBER OF OUTER CORE ORBITALS:     9   (    6Ag  +    3Au  )
 NUMBER OF VALENCE ORBITALS:        4   (    1Ag  +    3Au  )


 NUCLEAR REPULSION ENERGY    0.00000000

 One-electron integrals computed with SEWARD

 eXact-2-Component (X2C) method activated

 Computing Douglas-Kroll / X2C integrals

 AO integral compression algorithm  1   Integral accuracy      1.0D-11

     21.496 MB (compressed) written to integral file ( 15.0%)

     Node minimum: 0.786 MB, node maximum: 2.884 MB


 NUMBER OF SORTED TWO-ELECTRON INTEGRALS:     760824.     BUFFER LENGTH:  32768
 NUMBER OF SEGMENTS:   1  SEGMENT LENGTH:     760824      RECORD LENGTH: 524288

 Memory used in sort:       1.32 MW

 SORT1 READ    18047686. AND WROTE      147789. INTEGRALS IN      1 RECORDS. CPU TIME:     0.08 SEC, REAL TIME:     0.08 SEC
 SORT2 READ     1830907. AND WROTE     9150625. INTEGRALS IN     48 RECORDS. CPU TIME:     0.02 SEC, REAL TIME:     0.03 SEC

 Node minimum:      760322.  Node maximum:      766291. integrals

 OPERATOR DM      FOR CENTER  0  COORDINATES:    0.000000    0.000000    0.000000

 EXTRA SYMMETRY OF AOS IN SYMMETRY 1:   1 1 1 1 1 1 1 1 1 1   2 3 4 5 6 2 3 4 5 6   2 3 4 5 6 2 3 4 5 6   2 3 4 5 6 2 3 4 5 6
                                        2 3 4 5 6 7 8 91011  12131415
 EXTRA SYMMETRY OF AOS IN SYMMETRY 2:   1 2 3 1 2 3 1 2 3 1   2 3 1 2 3 1 2 3 1 2   3 1 2 3 1 2 3 4 5 6   7 8 910 4 5 6 7 8 9
                                       10 4 5 6 7 8 910 4 5   6 7 8 910

 Eigenvalues of metric

         1 0.298E-04 0.111E-02 0.159E-01 0.167E-01 0.167E-01 0.167E-01 0.167E-01 0.167E-01
         2 0.242E-02 0.242E-02 0.242E-02 0.707E-02 0.707E-02 0.707E-02 0.951E-01 0.951E-01


 **********************************************************************************************************************************
 DATASETS  * FILE   NREC   LENGTH (MB)   RECORD NAMES
              1      22       29.27       500      610      700      900      950      970     1000      129      960     1700   
                                          VAR    BASINP    GEOM    SYMINP    ZMAT    AOBASIS   BASIS     P2S    ABASIS    OPER   
                                         1101     1401     1411     1412     1650     1100     1400     1410     1200     1210   
                                          SR      EKINR    POTR     PVPR    MOLCAS      S      EKIN      POT      H0       H01  
                                         1080     1600   
                                         AOSYM     SMH  

 PROGRAMS   *        TOTAL       INT
 CPU TIMES  *         1.83      1.64
 REAL TIME  *         2.57 SEC
 DISK USED  *        29.63 MB (local),      414.05 MB (total)
 GA USED    *         0.00 MB       (max)       0.00 MB       (current)
 **********************************************************************************************************************************


 Program * Restricted Hartree-Fock

 Orbital guess generated from atomic densities.

 Initial occupancy:  14  10

 NELEC=   48   SYM=1   MS2= 0   THRE=1.0D-08   THRD=3.2D-06   THRG=3.2D-06  HFMA2=F  DIIS_START=2   DIIS_MAX=10   DIIS_INCORE=F

 Level shifts:    0.00 (CLOSED)    0.00 (OPEN)    0.30 (GAP_MIN)

 ITER           ETOT              DE          GRAD        DDIFF     DIIS  NEXP   TIME(IT)  TIME(TOT)  DIAG
   1    -6084.60504269   -6084.60504269     0.00D+00     0.14D+01     0     0       0.01      0.02    start
   2    -6119.20716596     -34.60212326     0.54D+00     0.14D+01     1     0       0.00      0.02    diag
   3    -6169.62512421     -50.41795825     0.47D+00     0.21D+00     2     0       0.01      0.03    diag
   4    -6172.72282135      -3.09769714     0.11D+00     0.18D+00     3     0       0.00      0.03    diag
   5    -6172.96793600      -0.24511465     0.32D-01     0.27D-01     4     0       0.00      0.03    diag
   6    -6172.96981377      -0.00187777     0.24D-02     0.53D-02     5     0       0.01      0.04    diag
   7    -6172.96982923      -0.00001547     0.16D-03     0.23D-03     6     0       0.00      0.04    diag
   8    -6172.96982972      -0.00000049     0.41D-04     0.31D-04     7     0       0.01      0.05    fixocc
   9    -6172.96982975      -0.00000004     0.46D-05     0.18D-04     8     0       0.00      0.05    diag
  10    -6172.96982975      -0.00000000     0.27D-06     0.63D-06     9     0       0.01      0.06    diag/orth
  11    -6172.96982975       0.00000000     0.11D-07     0.41D-07     0     0       0.00      0.06    diag

 Final occupancy:  15   9

 !RHF STATE 1.1 Energy              -6172.969829754502
  RHF One-electron energy           -8458.981645824093
  RHF Two-electron energy            2286.011816069591
  RHF Kinetic energy                 7123.758090708899
  RHF Nuclear energy                    0.000000000000
  RHF Virial quotient                  -0.866532769804

 !RHF STATE 1.1 Dipole moment           0.00000000     0.00000000     0.00000000
 Dipole moment /Debye                   0.00000000     0.00000000     0.00000000

 ELECTRON ORBITALS
 =================

  Orbital  Occupation    Energy    Cen Mu Typ  Coefficients
    1.1     2.00000 -1079.04077     1  1  s    0.98900
    2.1     2.00000  -166.86501     1  2  s    1.07346
    3.1     2.00000   -34.18930     1  3  s    0.84465
    4.1     2.00000   -19.53200     1  1  d0   0.99996
    5.1     2.00000   -19.53200     1  1  d1+  0.99597
    6.1     2.00000   -19.53200     1  1  d1-  0.99597
    7.1     2.00000   -19.53200     1  1  d2-  0.99498
    8.1     2.00000   -19.53200     1  1  d2+  0.99498
    9.1     2.00000    -6.52363     1  4  s    1.09168
   10.1     2.00000    -1.94645     1  2  d1+  1.00239
   11.1     2.00000    -1.94645     1  2  d1-  1.00239
   12.1     2.00000    -1.94645     1  2  d0   1.00448
   13.1     2.00000    -1.94645     1  2  d2-  0.99948
   14.1     2.00000    -1.94645     1  2  d2+  0.99948
   15.1     2.00000    -1.05761     1  5  s    1.09341
    1.2     2.00000  -149.69231     1  1  pz   0.99999
    2.2     2.00000  -149.69231     1  1  px   0.99823
    3.2     2.00000  -149.69231     1  1  py   0.99823
    4.2     2.00000   -28.42265     1  2  pz   1.00016
    5.2     2.00000   -28.42265     1  2  px   0.99515
    6.2     2.00000   -28.42265     1  2  py   0.99515
    7.2     2.00000    -4.68852     1  3  pz   0.99711
    8.2     2.00000    -4.68852     1  3  px   0.98844
    9.2     2.00000    -4.68852     1  3  py   0.98844


 HOMO     15.1    -1.057606 =     -28.7789eV
 LUMO     10.2    -0.495066 =     -13.4714eV
 LUMO-HOMO         0.562541 =      15.3075eV

 Orbitals saved in record  2100.2


 **********************************************************************************************************************************
 DATASETS  * FILE   NREC   LENGTH (MB)   RECORD NAMES
              1      22       29.27       500      610      700      900      950      970     1000      129      960     1700   
                                          VAR    BASINP    GEOM    SYMINP    ZMAT    AOBASIS   BASIS     P2S    ABASIS    OPER   
                                         1101     1401     1411     1412     1650     1100     1400     1410     1200     1210   
                                          SR      EKINR    POTR     PVPR    MOLCAS      S      EKIN      POT      H0       H01  
                                         1080     1600   
                                         AOSYM     SMH  

              2       4        0.49       700     1000      520     2100   
                                         GEOM     BASIS   MCVARS     RHF  

 PROGRAMS   *        TOTAL   RHF-SCF       INT
 CPU TIMES  *         2.18      0.35      1.64
 REAL TIME  *         2.94 SEC
 DISK USED  *        30.26 MB (local),      421.70 MB (total)
 GA USED    *         0.00 MB       (max)       0.00 MB       (current)
 **********************************************************************************************************************************
 SETTING NTRIP          =        11.00000000                                  
 SETTING NSING          =         6.00000000                                  

 PROGRAM * MULTI (Direct Multiconfiguration SCF)       Authors: P.J. Knowles, H.-J. Werner (1984)
                                                                D.A. Kreplin, P.J. Knowles, H.-J. Werner (2019)

 Number of closed-shell orbitals:  23 (   14    9)
 Number of active  orbitals:        7 (    1    6)
 Number of external orbitals:      79 (   39   40)

 State symmetry 1

 Number of active electrons:   4    Spin symmetry=Triplet   Space symmetry=1
 Number of states:            11
 Number of CSFs:             120   (135 determinants, 245 intermediate states)

 State symmetry 2

 Number of active electrons:   4    Spin symmetry=Singlet   Space symmetry=1
 Number of states:             6
 Number of CSFs:             126   (261 determinants, 441 intermediate states)

 Molecular orbitals read from record     2100.2  Type=RHF/CANONICAL  
 *** IN SYMMETRY 1 ORBITAL  4 SYMMETRY CONTAMINATION OF 0.243D-02 HAS BEEN REMOVED
 *** IN SYMMETRY 1 ORBITAL  5 SYMMETRY CONTAMINATION OF 0.845D-01 HAS BEEN REMOVED
 *** IN SYMMETRY 1 ORBITAL  6 SYMMETRY CONTAMINATION OF 0.834D-01 HAS BEEN REMOVED
 *** IN SYMMETRY 1 ORBITAL  7 SYMMETRY CONTAMINATION OF 0.921D-01 HAS BEEN REMOVED
 *** IN SYMMETRY 1 ORBITAL  8 SYMMETRY CONTAMINATION OF 0.921D-01 HAS BEEN REMOVED
 *** IN SYMMETRY 1 ORBITAL 10 SYMMETRY CONTAMINATION OF 0.629D-01 HAS BEEN REMOVED
 *** IN SYMMETRY 1 ORBITAL 11 SYMMETRY CONTAMINATION OF 0.621D-01 HAS BEEN REMOVED
 *** IN SYMMETRY 1 ORBITAL 12 SYMMETRY CONTAMINATION OF 0.215D-02 HAS BEEN REMOVED
 *** IN SYMMETRY 1 ORBITAL 13 SYMMETRY CONTAMINATION OF 0.921D-01 HAS BEEN REMOVED
 *** IN SYMMETRY 1 ORBITAL 14 SYMMETRY CONTAMINATION OF 0.922D-01 HAS BEEN REMOVED

 EXTRA SYMMETRY OF MOS IN SYMMETRY 1:   1 1 1 2 4 6 3 5 1 4   6 2 3 5 1 1 2 4 6 3   5 1 2 4 6 3 5 1 2 4   6 3 5 2 4 6 3 5 1 7
                                        91112 814151310 2 4   6 3 5 1
 *** IN SYMMETRY 2 ORBITAL  1 SYMMETRY CONTAMINATION OF 0.999D-03 HAS BEEN REMOVED
 *** IN SYMMETRY 2 ORBITAL  2 SYMMETRY CONTAMINATION OF 0.566D-01 HAS BEEN REMOVED
 *** IN SYMMETRY 2 ORBITAL  3 SYMMETRY CONTAMINATION OF 0.564D-01 HAS BEEN REMOVED
 *** IN SYMMETRY 2 ORBITAL  4 SYMMETRY CONTAMINATION OF 0.122D-02 HAS BEEN REMOVED
 *** IN SYMMETRY 2 ORBITAL  5 SYMMETRY CONTAMINATION OF 0.920D-01 HAS BEEN REMOVED
 *** IN SYMMETRY 2 ORBITAL  6 SYMMETRY CONTAMINATION OF 0.916D-01 HAS BEEN REMOVED
 *** IN SYMMETRY 2 ORBITAL  7 SYMMETRY CONTAMINATION OF 0.116D-02 HAS BEEN REMOVED
 *** IN SYMMETRY 2 ORBITAL  8 SYMMETRY CONTAMINATION OF 0.118D+00 HAS BEEN REMOVED
 *** IN SYMMETRY 2 ORBITAL  9 SYMMETRY CONTAMINATION OF 0.117D+00 HAS BEEN REMOVED
 *** IN SYMMETRY 2 ORBITAL 10 SYMMETRY CONTAMINATION OF 0.111D+00 HAS BEEN REMOVED
 *** IN SYMMETRY 2 ORBITAL 11 SYMMETRY CONTAMINATION OF 0.111D+00 HAS BEEN REMOVED
 *** IN SYMMETRY 2 ORBITAL 12 SYMMETRY CONTAMINATION OF 0.110D-02 HAS BEEN REMOVED
 *** IN SYMMETRY 2 ORBITAL 13 SYMMETRY CONTAMINATION OF 0.105D-02 HAS BEEN REMOVED
 *** IN SYMMETRY 2 ORBITAL 14 SYMMETRY CONTAMINATION OF 0.116D+00 HAS BEEN REMOVED
 *** IN SYMMETRY 2 ORBITAL 15 SYMMETRY CONTAMINATION OF 0.116D+00 HAS BEEN REMOVED
 EXTRA SYMMETRY OF MOS IN SYMMETRY 2:   3 1 2 3 1 2 3 1 2 2   1 3 3 1 2 3 1 2 6 4   5 810 7 9 6 4 510 8   7 9 3 1 2 6 4 5 810
                                        7 9 3 1 2 6 4 5 810   9 7 1 2 3

 Wavefunction dump at record             2140.2

 Convergence thresholds  0.10E-04 (gradient)  0.10E-05 (energy)

 Weight factors for state symmetry  1:    0.05882   0.05882   0.05882   0.05882   0.05882   0.05882   0.05882   0.05882
                                          0.05882   0.05882   0.05882
 Weight factors for state symmetry  2:    0.05882   0.05882   0.05882   0.05882   0.05882   0.05882
 
 Number of orbital rotations:  1253  ( 68 closed/active, 906 closed/virtual, 0 active/active, 279 active/virtual )
 Total number of variables:    4304
 
 Second-order MCSCF: L-BFGS accelerated
 
 ITER  MIC  NCI  NEG     ENERGY(VAR)    ENERGY(PROJ) ENERGY CHANGE       GRAD(0)  GRAD(ORB)   GRAD(CI)      STEP      TIME
   1    5    8    0  -6173.61389779   -6173.63066752   -0.01676973    0.18107110 0.00007774 0.00000000  0.37E+00      0.76
   2    8   14    0  -6173.63108912   -6173.63115665   -0.00006753    0.00643518 0.00000011 0.00000000  0.44E-01      1.78
   3    8   16    0  -6173.63115685   -6173.63115686   -0.00000000    0.00003738 0.00000000 0.00000000  0.14E-03      2.69
   4    4    8    0  -6173.63115686   -6173.63115686    0.00000000    0.00000002 0.00000001 0.00000000  0.18E-07      3.31

 CONVERGENCE REACHED!  Final gradient:    0.00000001 ( 0.74E-08)
                       Final energy:  -6173.63115686
 
 Results for state 1.1 Triplet
 =============================
 !MCSCF STATE 1.1 Triplet Energy             -6173.730084560918
 Nuclear energy                                  0.00000000
 Kinetic energy                               7124.96830147
 One electron energy                         -8491.95335901
 Two electron energy                          2318.22327445
 Virial ratio                                    1.86649229
 
 !MCSCF STATE 1.1 Triplet Dipole moment          0.00000000     0.00000000     0.00000000
 Dipole moment /Debye                            0.00000000     0.00000000     0.00000000
 
 Results for state 2.1 Triplet
 =============================
 !MCSCF STATE 2.1 Triplet Energy             -6173.730084560889
 Nuclear energy                                  0.00000000
 Kinetic energy                               7124.96830147
 One electron energy                         -8491.95335901
 Two electron energy                          2318.22327445
 Virial ratio                                    1.86649229
 
 !MCSCF STATE 2.1 Triplet Dipole moment          0.00000000     0.00000000     0.00000000
 Dipole moment /Debye                            0.00000000     0.00000000     0.00000000
 
 Results for state 3.1 Triplet
 =============================
 !MCSCF STATE 3.1 Triplet Energy             -6173.730084560680
 Nuclear energy                                  0.00000000
 Kinetic energy                               7124.96830148
 One electron energy                         -8491.95335908
 Two electron energy                          2318.22327451
 Virial ratio                                    1.86649229
 
 !MCSCF STATE 3.1 Triplet Dipole moment          0.00000000     0.00000000     0.00000000
 Dipole moment /Debye                            0.00000000     0.00000000     0.00000000
 
 Results for state 4.1 Triplet
 =============================
 !MCSCF STATE 4.1 Triplet Energy             -6173.552049994822
 Nuclear energy                                  0.00000000
 Kinetic energy                               7123.84651952
 One electron energy                         -8480.90625145
 Two electron energy                          2307.35420146
 Virial ratio                                    1.86660374
 
 !MCSCF STATE 4.1 Triplet Dipole moment          0.00000000     0.00000000     0.00000000
 Dipole moment /Debye                            0.00000000     0.00000000     0.00000000
 
 Results for state 5.1 Triplet
 =============================
 !MCSCF STATE 5.1 Triplet Energy             -6173.552049994812
 Nuclear energy                                  0.00000000
 Kinetic energy                               7123.84651952
 One electron energy                         -8480.90625145
 Two electron energy                          2307.35420145
 Virial ratio                                    1.86660374
 
 !MCSCF STATE 5.1 Triplet Dipole moment          0.00000000     0.00000000     0.00000000
 Dipole moment /Debye                            0.00000000     0.00000000     0.00000000
 
 Results for state 6.1 Triplet
 =============================
 !MCSCF STATE 6.1 Triplet Energy             -6173.552049994641
 Nuclear energy                                  0.00000000
 Kinetic energy                               7123.84651952
 One electron energy                         -8480.90625147
 Two electron energy                          2307.35420147
 Virial ratio                                    1.86660374
 
 !MCSCF STATE 6.1 Triplet Dipole moment          0.00000000     0.00000000     0.00000000
 Dipole moment /Debye                            0.00000000     0.00000000     0.00000000
 
 Results for state 7.1 Triplet
 =============================
 !MCSCF STATE 7.1 Triplet Energy             -6173.552049994600
 Nuclear energy                                  0.00000000
 Kinetic energy                               7123.84651952
 One electron energy                         -8480.90625148
 Two electron energy                          2307.35420149
 Virial ratio                                    1.86660374
 
 !MCSCF STATE 7.1 Triplet Dipole moment          0.00000000     0.00000000     0.00000000
 Dipole moment /Debye                            0.00000000     0.00000000     0.00000000
 
 Results for state 8.1 Triplet
 =============================
 !MCSCF STATE 8.1 Triplet Energy             -6173.552049994538
 Nuclear energy                                  0.00000000
 Kinetic energy                               7123.84651952
 One electron energy                         -8480.90625148
 Two electron energy                          2307.35420149
 Virial ratio                                    1.86660374
 
 !MCSCF STATE 8.1 Triplet Dipole moment          0.00000000     0.00000000     0.00000000
 Dipole moment /Debye                            0.00000000     0.00000000     0.00000000
 
 Results for state 9.1 Triplet
 =============================
 !MCSCF STATE 9.1 Triplet Energy             -6173.545389942255
 Nuclear energy                                  0.00000000
 Kinetic energy                               7124.07090074
 One electron energy                         -8482.17958776
 Two electron energy                          2308.63419782
 Virial ratio                                    1.86657551
 
 !MCSCF STATE 9.1 Triplet Dipole moment          0.00000000     0.00000000     0.00000000
 Dipole moment /Debye                            0.00000000     0.00000000     0.00000000
 
 Results for state 10.1 Triplet
 ==============================
 !MCSCF STATE 10.1 Triplet Energy            -6173.545389941955
 Nuclear energy                                  0.00000000
 Kinetic energy                               7124.07090074
 One electron energy                         -8482.17958779
 Two electron energy                          2308.63419784
 Virial ratio                                    1.86657551
 
 !MCSCF STATE 10.1 Triplet Dipole moment         0.00000000     0.00000000     0.00000000
 Dipole moment /Debye                            0.00000000     0.00000000     0.00000000
 
 Results for state 11.1 Triplet
 ==============================
 !MCSCF STATE 11.1 Triplet Energy            -6173.545389941836
 Nuclear energy                                  0.00000000
 Kinetic energy                               7124.07090075
 One electron energy                         -8482.17958781
 Two electron energy                          2308.63419787
 Virial ratio                                    1.86657551
 
 !MCSCF STATE 11.1 Triplet Dipole moment         0.00000000     0.00000000     0.00000000
 Dipole moment /Debye                            0.00000000     0.00000000     0.00000000
 
 Results for state 1.1 Singlet
 =============================
 !MCSCF STATE 1.1 Singlet Energy             -6173.695399678651
 Nuclear energy                                  0.00000000
 Kinetic energy                               7124.85433506
 One electron energy                         -8491.23791762
 Two electron energy                          2317.54251794
 Virial ratio                                    1.86650128
 
 !MCSCF STATE 1.1 Singlet Dipole moment          0.00000000     0.00000000     0.00000000
 Dipole moment /Debye                            0.00000000     0.00000000     0.00000000
 
 Results for state 2.1 Singlet
 =============================
 !MCSCF STATE 2.1 Singlet Energy             -6173.695399678578
 Nuclear energy                                  0.00000000
 Kinetic energy                               7124.85433507
 One electron energy                         -8491.23791764
 Two electron energy                          2317.54251796
 Virial ratio                                    1.86650128
 
 !MCSCF STATE 2.1 Singlet Dipole moment          0.00000000     0.00000000     0.00000000
 Dipole moment /Debye                            0.00000000     0.00000000     0.00000000
 
 Results for state 3.1 Singlet
 =============================
 !MCSCF STATE 3.1 Singlet Energy             -6173.695399678565
 Nuclear energy                                  0.00000000
 Kinetic energy                               7124.85433507
 One electron energy                         -8491.23791763
 Two electron energy                          2317.54251796
 Virial ratio                                    1.86650128
 
 !MCSCF STATE 3.1 Singlet Dipole moment          0.00000000     0.00000000     0.00000000
 Dipole moment /Debye                            0.00000000     0.00000000     0.00000000
 
 Results for state 4.1 Singlet
 =============================
 !MCSCF STATE 4.1 Singlet Energy             -6173.695399678260
 Nuclear energy                                  0.00000000
 Kinetic energy                               7124.85433508
 One electron energy                         -8491.23791770
 Two electron energy                          2317.54251803
 Virial ratio                                    1.86650128
 
 !MCSCF STATE 4.1 Singlet Dipole moment          0.00000000     0.00000000     0.00000000
 Dipole moment /Debye                            0.00000000     0.00000000     0.00000000
 
 Results for state 5.1 Singlet
 =============================
 !MCSCF STATE 5.1 Singlet Energy             -6173.695399678237
 Nuclear energy                                  0.00000000
 Kinetic energy                               7124.85433508
 One electron energy                         -8491.23791770
 Two electron energy                          2317.54251803
 Virial ratio                                    1.86650128
 
 !MCSCF STATE 5.1 Singlet Dipole moment          0.00000000     0.00000000     0.00000000
 Dipole moment /Debye                            0.00000000     0.00000000     0.00000000
 
 Results for state 6.1 Singlet
 =============================
 !MCSCF STATE 6.1 Singlet Energy             -6173.665994671410
 Nuclear energy                                  0.00000000
 Kinetic energy                               7124.68343811
 One electron energy                         -8490.27979713
 Two electron energy                          2316.61380246
 Virial ratio                                    1.86651794
 
 !MCSCF STATE 6.1 Singlet Dipole moment          0.00000000     0.00000000     0.00000000
 Dipole moment /Debye                            0.00000000     0.00000000     0.00000000
 
 State-averaged charge density matrix saved on record 2140.2 (density set 1)
 
 No non-zero expectation values
 
 Expectation values for two-electron operators:
 
 ? Warning
 ? Transition properties are only calculated between states of the same symmetry
 ? The problem occurs in mu_properties_expec2

 !MCSCF expec      <1.1 Triplet|LXLX|1.1 Triplet>     0.000000032002
 !MCSCF expec      <2.1 Triplet|LXLX|2.1 Triplet>     0.999999982152
 !MCSCF expec      <3.1 Triplet|LXLX|3.1 Triplet>     0.999999999998
 !MCSCF expec      <4.1 Triplet|LXLX|4.1 Triplet>     1.000000000136
 !MCSCF expec      <5.1 Triplet|LXLX|5.1 Triplet>     1.326113161872
 !MCSCF expec      <6.1 Triplet|LXLX|6.1 Triplet>     3.999999917475
 !MCSCF expec      <7.1 Triplet|LXLX|7.1 Triplet>     1.000000126889
 !MCSCF expec      <8.1 Triplet|LXLX|8.1 Triplet>     2.673894333187
 !MCSCF expec      <9.1 Triplet|LXLX|9.1 Triplet>     0.999999999981
 !MCSCF expec    <10.1 Triplet|LXLX|10.1 Triplet>     0.000000001314
 !MCSCF expec    <11.1 Triplet|LXLX|11.1 Triplet>     0.999999999696
 !MCSCF expec      <1.1 Singlet|LXLX|1.1 Singlet>     3.061661367625
 !MCSCF expec      <2.1 Singlet|LXLX|2.1 Singlet>     3.999999481126
 !MCSCF expec      <3.1 Singlet|LXLX|3.1 Singlet>     1.000000675289
 !MCSCF expec      <4.1 Singlet|LXLX|4.1 Singlet>     1.000000001070
 !MCSCF expec      <5.1 Singlet|LXLX|5.1 Singlet>     0.938333374269
 !MCSCF expec      <6.1 Singlet|LXLX|6.1 Singlet>     0.000000000000
 
 !MCSCF expec      <1.1 Triplet|LYLY|1.1 Triplet>     0.999999999998
 !MCSCF expec      <2.1 Triplet|LYLY|2.1 Triplet>     0.999999997928
 !MCSCF expec      <3.1 Triplet|LYLY|3.1 Triplet>     0.000000001587
 !MCSCF expec      <4.1 Triplet|LYLY|4.1 Triplet>     3.999999998443
 !MCSCF expec      <5.1 Triplet|LYLY|5.1 Triplet>     3.967712373026
 !MCSCF expec      <6.1 Triplet|LYLY|6.1 Triplet>     1.000000003402
 !MCSCF expec      <7.1 Triplet|LYLY|7.1 Triplet>     0.999999983272
 !MCSCF expec      <8.1 Triplet|LYLY|8.1 Triplet>     0.032286213658
 !MCSCF expec      <9.1 Triplet|LYLY|9.1 Triplet>     0.000000000141
 !MCSCF expec    <10.1 Triplet|LYLY|10.1 Triplet>     0.999999999991
 !MCSCF expec    <11.1 Triplet|LYLY|11.1 Triplet>     0.999999999818
 !MCSCF expec      <1.1 Singlet|LYLY|1.1 Singlet>     0.001294555720
 !MCSCF expec      <2.1 Singlet|LYLY|2.1 Singlet>     0.999999997491
 !MCSCF expec      <3.1 Singlet|LYLY|3.1 Singlet>     0.999999997725
 !MCSCF expec      <4.1 Singlet|LYLY|4.1 Singlet>     3.999999996186
 !MCSCF expec      <5.1 Singlet|LYLY|5.1 Singlet>     3.998705233963
 !MCSCF expec      <6.1 Singlet|LYLY|6.1 Singlet>    -0.000000000000
 
 !MCSCF expec      <1.1 Triplet|LZLZ|1.1 Triplet>     0.999999968000
 !MCSCF expec      <2.1 Triplet|LZLZ|2.1 Triplet>     0.000000019920
 !MCSCF expec      <3.1 Triplet|LZLZ|3.1 Triplet>     0.999999998415
 !MCSCF expec      <4.1 Triplet|LZLZ|4.1 Triplet>     1.000000001421
 !MCSCF expec      <5.1 Triplet|LZLZ|5.1 Triplet>     0.706174465102
 !MCSCF expec      <6.1 Triplet|LZLZ|6.1 Triplet>     1.000000079123
 !MCSCF expec      <7.1 Triplet|LZLZ|7.1 Triplet>     3.999999889839
 !MCSCF expec      <8.1 Triplet|LZLZ|8.1 Triplet>     3.293819453155
 !MCSCF expec      <9.1 Triplet|LZLZ|9.1 Triplet>     0.999999999878
 !MCSCF expec    <10.1 Triplet|LZLZ|10.1 Triplet>     0.999999998695
 !MCSCF expec    <11.1 Triplet|LZLZ|11.1 Triplet>     0.000000000487
 !MCSCF expec      <1.1 Singlet|LZLZ|1.1 Singlet>     2.937044076655
 !MCSCF expec      <2.1 Singlet|LZLZ|2.1 Singlet>     1.000000521383
 !MCSCF expec      <3.1 Singlet|LZLZ|3.1 Singlet>     3.999999326986
 !MCSCF expec      <4.1 Singlet|LZLZ|4.1 Singlet>     1.000000002743
 !MCSCF expec      <5.1 Singlet|LZLZ|5.1 Singlet>     1.062961391768
 !MCSCF expec      <6.1 Singlet|LZLZ|6.1 Singlet>     0.000000000000
 
 !MCSCF expec      <1.1 Triplet|L**2|1.1 Triplet>     2.000000000000
 !MCSCF expec      <2.1 Triplet|L**2|2.1 Triplet>     2.000000000000
 !MCSCF expec      <3.1 Triplet|L**2|3.1 Triplet>     2.000000000000
 !MCSCF expec      <4.1 Triplet|L**2|4.1 Triplet>     6.000000000000
 !MCSCF expec      <5.1 Triplet|L**2|5.1 Triplet>     6.000000000000
 !MCSCF expec      <6.1 Triplet|L**2|6.1 Triplet>     6.000000000000
 !MCSCF expec      <7.1 Triplet|L**2|7.1 Triplet>     6.000000000000
 !MCSCF expec      <8.1 Triplet|L**2|8.1 Triplet>     6.000000000000
 !MCSCF expec      <9.1 Triplet|L**2|9.1 Triplet>     2.000000000000
 !MCSCF expec    <10.1 Triplet|L**2|10.1 Triplet>     2.000000000000
 !MCSCF expec    <11.1 Triplet|L**2|11.1 Triplet>     2.000000000000
 !MCSCF expec      <1.1 Singlet|L**2|1.1 Singlet>     6.000000000000
 !MCSCF expec      <2.1 Singlet|L**2|2.1 Singlet>     6.000000000000
 !MCSCF expec      <3.1 Singlet|L**2|3.1 Singlet>     6.000000000000
 !MCSCF expec      <4.1 Singlet|L**2|4.1 Singlet>     6.000000000000
 !MCSCF expec      <5.1 Singlet|L**2|5.1 Singlet>     6.000000000000
 !MCSCF expec      <6.1 Singlet|L**2|6.1 Singlet>    -0.000000000000
 
 EXTRA SYMMETRY OF MOS IN SYMMETRY 1:   1 1 1 2 6 4 3 5 1 2   4 6 5 3 1 1 4 3 5 6   2 1 4 3 5 2 6 1 2 4   6 3 5 2 4 6 3 5 1 7
                                        91112 814151013 2 3   5 4 6 1
 EXTRA SYMMETRY OF MOS IN SYMMETRY 2:   3 2 1 3 2 1 3 1 2 1   2 3 3 2 1 2 1 3 4 6   810 7 9 5 3 1 2 6 4   5 810 7 9 4 6 5 810
                                        9 7 1 2 3 6 4 5 810   9 7 1 2 3
 
  NATURAL ORBITALS (STATE AVERAGED)
  =================================

  Orbital  Occupation    Energy    Cen Mu Typ  Coefficients
    1.1     2.00000 -1078.47152     1  1  s    0.98900
    2.1     2.00000  -166.29937     1  2  s    1.07350
    3.1     2.00000   -33.62525     1  3  s    0.84456
    4.1     2.00000   -18.96824     1  1  d0   0.99998
    5.1     2.00000   -18.96824     1  1  d1-  0.99998
    6.1     2.00000   -18.96824     1  1  d1+  0.99998
    7.1     2.00000   -18.96824     1  1  d2-  0.99998
    8.1     2.00000   -18.96824     1  1  d2+  0.99998
    9.1     2.00000    -5.96157     1  4  s    1.09179
   10.1     2.00000    -1.38687     1  2  d0   1.00073
   11.1     2.00000    -1.38687     1  2  d1+  1.00073
   12.1     2.00000    -1.38687     1  2  d1-  1.00073
   13.1     2.00000    -1.38687     1  2  d2+  1.00073
   14.1     2.00000    -1.38687     1  2  d2-  1.00073
   15.1     1.95606    -0.56323     1  5  s    1.07014
    1.2     2.00000  -149.12692     1  1  pz   0.99999
    2.2     2.00000  -149.12692     1  1  py   0.99999
    3.2     2.00000  -149.12692     1  1  px   0.99999
    4.2     2.00000   -27.85975     1  2  pz   1.00021
    5.2     2.00000   -27.85975     1  2  py   1.00021
    6.2     2.00000   -27.85975     1  2  px   1.00021
    7.2     2.00000    -4.12862     1  3  pz   0.99926
    8.2     2.00000    -4.12862     1  3  px   0.99926
    9.2     2.00000    -4.12862     1  3  py   0.99926
   10.2     0.52133    -0.10269     1  4  px   1.06180
   11.2     0.52133    -0.10269     1  4  py   1.06180
   12.2     0.52133    -0.10269     1  4  pz   1.06180
   13.2     0.15998     0.04745     1  4  pz  -0.48043    1  9  pz   1.18790
   14.2     0.15998     0.04745     1  4  py  -0.48043    1  9  py   1.18790
   15.2     0.15998     0.04745     1  4  px  -0.48043    1  9  px   1.18790
 
 Natural orbital dump (state averaged) at molpro section 2140.2 (Orbital set 2)
 
 Transform the CI vectors
 
 CI Coefficients of symmetry 1 (Triplet)
 =======================================

 State:              1               2               3               4               5               6               7
 2 a0a000      -0.00000133      0.00004514      0.99177470     -0.00000002      0.00000000      0.00000000      0.00000000
 2 0aa000       0.99177469     -0.00017741      0.00000134     -0.00000000     -0.00000000     -0.00000001     -0.00000000
 2 aa0000       0.00017741      0.99177469     -0.00004514     -0.00000000     -0.00000000      0.00000000     -0.00000001
 2 0a00a0      -0.00000000     -0.00000000     -0.00000000      0.00000781     -0.07243441      0.00000986     -0.00011585
 2 00aa00       0.00000000     -0.00000000     -0.00000000      0.00000654      0.73160595     -0.00003401      0.00004107
 2 0a0a00       0.00906126     -0.00000162      0.00000001      0.00000855      0.00002973      0.69821241      0.00011411
 2 a00a00      -0.00000001      0.00000041      0.00906126      0.69821241     -0.00000980     -0.00000855     -0.00001090
 2 00a00a       0.00000001     -0.00000041     -0.00906123      0.69821240     -0.00000980     -0.00000855     -0.00001090
 2 0a000a      -0.00000162     -0.00906123      0.00000041      0.00001090      0.00000777     -0.00011411      0.69821240
 2 00a0a0      -0.00906124      0.00000162     -0.00000001      0.00000855      0.00002973      0.69821238      0.00011411
 2 a000a0       0.00000162      0.00906124     -0.00000041      0.00001090      0.00000777     -0.00011411      0.69821237
 2 a0000a      -0.00000000      0.00000000      0.00000000     -0.00001435     -0.65917153      0.00002414      0.00007478
 2 0000aa       0.00000334      0.01865527     -0.00000085     -0.00000000      0.00000000     -0.00000000      0.00000001
 2 000a0a      -0.00000003      0.00000085      0.01865527      0.00000002     -0.00000000     -0.00000000     -0.00000000
 2 000aa0       0.01865527     -0.00000334      0.00000003      0.00000000      0.00000000      0.00000002      0.00000000
 0 a2a000       0.00000015     -0.00000525     -0.11527731      0.00000000     -0.00000000     -0.00000000     -0.00000000
 0 aa2000      -0.00002062     -0.11527731      0.00000525      0.00000000      0.00000000     -0.00000000      0.00000000
 0 2aa000      -0.11527731      0.00002062     -0.00000016      0.00000000      0.00000000      0.00000000      0.00000000
 0 0a20a0       0.00000000      0.00000000      0.00000000     -0.00000085      0.00706380     -0.00000103      0.00001247
 0 2a00a0       0.00000000      0.00000000      0.00000000     -0.00000083      0.00850875     -0.00000109      0.00001244
 0 02aa00      -0.00000000      0.00000000      0.00000000     -0.00000071     -0.07894815      0.00000366     -0.00000432
 0 20aa00      -0.00000000      0.00000000      0.00000000     -0.00000069     -0.07833856      0.00000365     -0.00000451
 0 2a0a00       0.00098256     -0.00000018      0.00000000     -0.00000092     -0.00000321     -0.07541645     -0.00001233
 0 a20a00      -0.00000000      0.00000004      0.00098256     -0.07541645      0.00000106      0.00000092      0.00000118
 0 0a200a      -0.00000018     -0.00098256      0.00000004     -0.00000118     -0.00000084      0.00001233     -0.07541645
 0 02a00a       0.00000000     -0.00000004     -0.00098256     -0.07541644      0.00000106      0.00000092      0.00000118
 0 a020a0       0.00000018      0.00098256     -0.00000004     -0.00000118     -0.00000084      0.00001233     -0.07541644
 0 20a0a0      -0.00098256      0.00000018     -0.00000000     -0.00000092     -0.00000321     -0.07541644     -0.00001233
 0 0a2a00      -0.02413156      0.00000432     -0.00000003     -0.00000091     -0.00000318     -0.07469104     -0.00001221
 0 a02a00       0.00000003     -0.00000110     -0.02413156     -0.07469104      0.00000105      0.00000091      0.00000117
 0 20a00a      -0.00000003      0.00000110      0.02413156     -0.07469104      0.00000105      0.00000091      0.00000117
 0 2a000a       0.00000432      0.02413156     -0.00000110     -0.00000117     -0.00000083      0.00001221     -0.07469104
 0 02a0a0       0.02413156     -0.00000432      0.00000003     -0.00000091     -0.00000318     -0.07469104     -0.00001221
 0 a200a0      -0.00000432     -0.02413156      0.00000110     -0.00000117     -0.00000083      0.00001221     -0.07469103
 0 a2000a      -0.00000000     -0.00000000     -0.00000000      0.00000154      0.07127476     -0.00000262     -0.00000796
 0 a0200a       0.00000000     -0.00000000     -0.00000000      0.00000154      0.07043940     -0.00000257     -0.00000812
 
 Energy:    -6173.73008456  -6173.73008456  -6173.73008456  -6173.55204999  -6173.55204999  -6173.55204999  -6173.55204999

 State:              8               9              10              11
 2 a0a000       0.00000000     -0.01774362      0.00000008      0.00000020
 2 0aa000       0.00000000     -0.00000008     -0.01774363     -0.00000064
 2 aa0000      -0.00000000     -0.00000020      0.00000064     -0.01774361
 2 0a00a0       0.80296573     -0.00000000      0.00000000      0.00000000
 2 00aa00      -0.33875285      0.00000000     -0.00000000      0.00000000
 2 0a0a00      -0.00000588      0.00000302      0.69263733      0.00002502
 2 a00a00      -0.00000767      0.69263734     -0.00000302     -0.00000765
 2 00a00a      -0.00000767     -0.69263735      0.00000302      0.00000765
 2 0a000a       0.00010144     -0.00000765      0.00002502     -0.69263733
 2 00a0a0      -0.00000588     -0.00000302     -0.69263736     -0.00002502
 2 a000a0       0.00010144      0.00000765     -0.00002502      0.69263735
 2 a0000a      -0.46421293     -0.00000000     -0.00000000      0.00000000
 2 0000aa       0.00000000      0.00000141     -0.00000460      0.12730360
 2 000a0a      -0.00000000      0.12730358     -0.00000056     -0.00000141
 2 000aa0      -0.00000000      0.00000056      0.12730358      0.00000460
 0 a2a000      -0.00000000      0.00730312     -0.00000003     -0.00000008
 0 aa2000       0.00000000      0.00000008     -0.00000026      0.00730312
 0 2aa000      -0.00000000      0.00000003      0.00730312      0.00000026
 0 0a20a0      -0.08637928      0.00000000     -0.00000000     -0.00000000
 0 2a00a0      -0.08624894      0.00000000     -0.00000000     -0.00000000
 0 02aa00       0.03575568     -0.00000000      0.00000000     -0.00000000
 0 20aa00       0.03707221     -0.00000000      0.00000000     -0.00000000
 0 2a0a00       0.00000064     -0.00000033     -0.07541498     -0.00000272
 0 a20a00       0.00000083     -0.07541498      0.00000033      0.00000083
 0 0a200a      -0.00001096      0.00000083     -0.00000272      0.07541498
 0 02a00a       0.00000083      0.07541498     -0.00000033     -0.00000083
 0 a020a0      -0.00001096     -0.00000083      0.00000272     -0.07541498
 0 20a0a0       0.00000064      0.00000033      0.07541498      0.00000272
 0 0a2a00       0.00000063     -0.00000032     -0.07241274     -0.00000262
 0 a02a00       0.00000082     -0.07241275      0.00000032      0.00000080
 0 20a00a       0.00000082      0.07241275     -0.00000032     -0.00000080
 0 2a000a      -0.00001085      0.00000080     -0.00000262      0.07241274
 0 02a0a0       0.00000063      0.00000032      0.07241275      0.00000262
 0 a200a0      -0.00001085     -0.00000080      0.00000262     -0.07241275
 0 a2000a       0.04930708      0.00000000      0.00000000     -0.00000000
 0 a0200a       0.05049326      0.00000000      0.00000000     -0.00000000
 
 Energy:    -6173.55204999  -6173.54538994  -6173.54538994  -6173.54538994
 
 
 CI Coefficients of symmetry 1 (Singlet)
 =======================================
 
 2 020000       0.80679847     -0.00005601      0.00007289     -0.00001313     -0.01451655      0.55716828
 2 200000      -0.39082753      0.00001198     -0.00003614      0.00000255      0.70596625      0.55716829
 2 b0a000      -0.00001144      0.00000042     -0.00002058     -0.69882106     -0.00000380     -0.00000000
 2 a0b000       0.00001144     -0.00000042      0.00002058      0.69882106      0.00000380      0.00000000
 2 0ab000       0.00004876      0.69882100      0.00029047      0.00000041      0.00001515     -0.00000000
 2 0ba000      -0.00004876     -0.69882100     -0.00029047     -0.00000041     -0.00001515      0.00000000
 2 ab0000      -0.00006314     -0.00029046      0.69882100     -0.00002058      0.00000083      0.00000000
 2 ba0000       0.00006314      0.00029046     -0.69882100      0.00002058     -0.00000083     -0.00000000
 2 002000      -0.41597093      0.00004403     -0.00003675      0.00001057     -0.69144969      0.55716829
 0 202000       0.09353473     -0.00000649      0.00000845     -0.00000152     -0.00168295     -0.12434177
 0 022000      -0.04530989      0.00000139     -0.00000419      0.00000030      0.08184493     -0.12434177
 0 220000      -0.04822485      0.00000510     -0.00000426      0.00000123     -0.08016198     -0.12434177
 0 b2a000       0.00000133     -0.00000005      0.00000239      0.08101657      0.00000044      0.00000000
 0 a2b000      -0.00000133      0.00000005     -0.00000239     -0.08101657     -0.00000044     -0.00000000
 0 ab2000       0.00000732      0.00003367     -0.08101656      0.00000239     -0.00000010     -0.00000000
 0 ba2000      -0.00000732     -0.00003367      0.08101656     -0.00000239      0.00000010      0.00000000
 0 2ab000      -0.00000565     -0.08101656     -0.00003367     -0.00000005     -0.00000176      0.00000000
 0 2ba000       0.00000565      0.08101656      0.00003367      0.00000005      0.00000176     -0.00000000
 2 00ab00      -0.02293276      0.00000243     -0.00000203      0.00000058     -0.03812009      0.05638630
 2 00ba00       0.02293276     -0.00000243      0.00000203     -0.00000058      0.03812009     -0.05638630
 2 0b00a0      -0.04447933      0.00000309     -0.00000402      0.00000072      0.00080031     -0.05638629
 2 0a00b0       0.04447933     -0.00000309      0.00000402     -0.00000072     -0.00080031      0.05638629
 2 a0000b      -0.02154657      0.00000066     -0.00000199      0.00000014      0.03892037      0.05638628
 2 b0000a       0.02154657     -0.00000066      0.00000199     -0.00000014     -0.03892037     -0.05638628
 
 Energy:    -6173.69539968  -6173.69539968  -6173.69539968  -6173.69539968  -6173.69539968  -6173.66599467
 


 **********************************************************************************************************************************
 DATASETS  * FILE   NREC   LENGTH (MB)   RECORD NAMES
              1      24       61.22       500      610      700      900      950      970     1000      129      960     1700   
                                          VAR    BASINP    GEOM    SYMINP    ZMAT    AOBASIS   BASIS     P2S    ABASIS    OPER   
                                         1101     1401     1411     1412     1650     1100     1400     1410     1200     1210   
                                          SR      EKINR    POTR     PVPR    MOLCAS      S      EKIN      POT      H0       H01  
                                         1080     1600     1380     1700(1)
                                         AOSYM     SMH     JKOP     OPER   

              2       5        0.82       700     1000      520     2100     2140   
                                         GEOM     BASIS   MCVARS     RHF     MCSCF   

 PROGRAMS   *        TOTAL     MULTI   RHF-SCF       INT
 CPU TIMES  *         5.32      3.14      0.35      1.64
 REAL TIME  *         6.81 SEC
 DISK USED  *        62.13 MB (local),      804.08 MB (total)
 SF USED    *        77.59 MB
 GA USED    *         0.00 MB       (max)       0.00 MB       (current)
 **********************************************************************************************************************************

 Energies and &lt;L**2&gt; values

          ENERGY    LL
    -6173.730085   2.0
    -6173.730085   2.0
    -6173.730085   2.0
    -6173.552050   6.0
    -6173.552050   6.0
    -6173.552050   6.0
    -6173.552050   6.0
    -6173.552050   6.0
    -6173.545390   2.0
    -6173.545390   2.0
    -6173.545390   2.0
    -6173.695400   6.0
    -6173.695400   6.0
    -6173.695400   6.0
    -6173.695400   6.0
    -6173.695400   6.0
    -6173.665995  -0.0
                                                  


 PROGRAM * CI (Multireference internally contracted CI)     Authors: H.-J. Werner, P.J. Knowles, 1987


 Convergence thresholds:  THRVAR = 1.00D-08  THRDEN = 1.00D-06

 Number of optimized states: 11  Roots:   1   2   3   4   5   6   7   8   9  10  11
 Number of reference states: 11  Roots:   1   2   3   4   5   6   7   8   9  10  11

 Reference symmetry:                   1   Triplet 
 Number of electrons:                 50
 Maximum number of shells:             5
 Maximum number of spin couplings:    90

 Reference space:       90 conf      120 CSFs
 N elec internal:    18284 conf    76944 CSFs
 N-1 el internal:    12821 conf    88545 CSFs
 N-2 el internal:     4717 conf    46537 CSFs

 Number of electrons in valence space:                     22
 Maximum number of open shell orbitals in reference space:  4
 Maximum number of open shell orbitals in internal spaces: 10


 Number of core orbitals:          14 (   8   6 )
 Number of closed-shell orbitals:   9 (   6   3 )
 Number of active  orbitals:        7 (   1   6 )
 Number of external orbitals:      79 (  39  40 )

 Molecular orbitals read from record     2140.2  Type=MCSCF/NATURAL (state averaged)

 Integral transformation finished. Total CPU:   0.08 sec, npass=  1  Memory used:   1.05 MW


 Number of p-space configurations:  15

 Reference wavefunction optimized for reference space (refopt=1)

 State     Reference Energy 
     1     -6173.73008456
     2     -6173.73008456
     3     -6173.73008456
     4     -6173.55204999
     5     -6173.55204999
     6     -6173.55204999
     7     -6173.55204999
     8     -6173.55204999
     9     -6173.54538994
    10     -6173.54538994
    11     -6173.54538994

 ?WARNING: SMALL EIGENVALUE OF PAIR OVERLAP MATRIX:  0.2323D-06

 Number of blocks in overlap matrix:  1059   Smallest eigenvalue:  0.23D-06
 Number of N-2 electron functions:    2340
 Number of N-1 electron functions:   88545

 Number of internal configurations:                38406
 Number of singly external configurations:       3497694
 Number of doubly external configurations:       3654018
 Total number of contracted configurations:      7190118
 Total number of uncontracted configurations:   75813963

 Diagonal Coupling coefficients finished.               Storage:  24116789 words, CPU-Time:     67.89 seconds.
 Energy denominators for pairs finished in 1 passes.    Storage:   1290796 words, CPU-time:      0.16 seconds.

  ITER. STATE  ROOT     SQ.NORM     CORR.ENERGY   TOTAL ENERGY   ENERGY CHANGE       DEN1      VAR(S)    VAR(P)      TIME
    1     1     1     1.00000000     0.00000000 -6173.73008456     0.00000000    -0.78765018  0.49D-01  0.99D-01    83.56
    1     2     2     1.00000000     0.00000000 -6173.73008456     0.00000000    -0.78798043  0.50D-01  0.98D-01    83.56
    1     3     3     1.00000000     0.00000000 -6173.73008456     0.00000000    -0.78779664  0.49D-01  0.99D-01    83.56
    1     4     4     1.00000000     0.00000000 -6173.55204999     0.00000000    -0.75484585  0.40D-01  0.89D-01    83.56
    1     5     5     1.00000000     0.00000000 -6173.55204999     0.00000000    -0.75516572  0.40D-01  0.89D-01    83.56
    1     6     6     1.00000000     0.00000000 -6173.55204999     0.00000000    -0.75484927  0.39D-01  0.89D-01    83.56
    1     7     7     1.00000000     0.00000000 -6173.55204999     0.00000000    -0.75490792  0.40D-01  0.89D-01    83.56
    1     8     8     1.00000000     0.00000000 -6173.55204999     0.00000000    -0.75524541  0.40D-01  0.89D-01    83.56
    1     9     9     1.00000000     0.00000000 -6173.54538994     0.00000000    -0.76107050  0.44D-01  0.90D-01    83.56
    1    10    10     1.00000000     0.00000000 -6173.54538994     0.00000000    -0.76108609  0.44D-01  0.90D-01    83.56
    1    11    11     1.00000000     0.00000000 -6173.54538994     0.00000000    -0.76113514  0.44D-01  0.90D-01    83.56
    2     1     1     1.09118736    -0.62048713 -6174.35057169    -0.62048713    -0.01659367  0.34D-02  0.12D-02   420.29
    2     2     2     1.09133724    -0.62040571 -6174.35049027    -0.62040571    -0.01667887  0.34D-02  0.12D-02   420.29
    2     3     3     1.09151438    -0.62028710 -6174.35037166    -0.62028710    -0.01680684  0.35D-02  0.12D-02   420.29
    2     4     4     1.08321215    -0.60966938 -6174.16171938    -0.60966938    -0.01352793  0.23D-02  0.92D-03   420.29
    2     5     5     1.08309729    -0.60964872 -6174.16169872    -0.60964872    -0.01355457  0.23D-02  0.93D-03   420.29
    2     6     6     1.08311618    -0.60963307 -6174.16168306    -0.60963307    -0.01357088  0.24D-02  0.93D-03   420.29
    2     7     7     1.08331136    -0.60961571 -6174.16166571    -0.60961571    -0.01358636  0.24D-02  0.92D-03   420.29
    2     8     8     1.08315445    -0.60961131 -6174.16166130    -0.60961131    -0.01359585  0.24D-02  0.93D-03   420.29
    2     9     9     1.08552586    -0.61048474 -6174.15587468    -0.61048474    -0.01468277  0.31D-02  0.99D-03   420.29
    2    10    10     1.08554401    -0.61046943 -6174.15585938    -0.61046943    -0.01469953  0.31D-02  0.99D-03   420.29
    2    11    11     1.08558778    -0.61044291 -6174.15583285    -0.61044291    -0.01472921  0.31D-02  0.99D-03   420.29
    3     1     1     1.08119674    -0.63629919 -6174.36638375    -0.01581206    -0.00041533  0.60D-04  0.48D-04   754.90
    3     2     2     1.08120278    -0.63629433 -6174.36637889    -0.01588862    -0.00041968  0.61D-04  0.49D-04   754.90
    3     3     3     1.08119766    -0.63629050 -6174.36637506    -0.01600340    -0.00042343  0.61D-04  0.49D-04   754.90
    3     4     4     1.07743462    -0.62267650 -6174.17472650    -0.01300712    -0.00029162  0.33D-04  0.31D-04   754.90
    3     5     5     1.07743307    -0.62267573 -6174.17472572    -0.01302701    -0.00029228  0.33D-04  0.31D-04   754.90
    3     6     6     1.07743159    -0.62267519 -6174.17472519    -0.01304213    -0.00029287  0.33D-04  0.31D-04   754.90
    3     7     7     1.07746470    -0.62267375 -6174.17472375    -0.01305804    -0.00029432  0.33D-04  0.32D-04   754.90
    3     8     8     1.07746186    -0.62267218 -6174.17472218    -0.01306087    -0.00029588  0.33D-04  0.32D-04   754.90
    3     9     9     1.07795897    -0.62453419 -6174.16992413    -0.01404945    -0.00034538  0.49D-04  0.37D-04   754.90
    3    10    10     1.07795831    -0.62453319 -6174.16992313    -0.01406376    -0.00034625  0.49D-04  0.37D-04   754.90
    3    11    11     1.07795673    -0.62453247 -6174.16992241    -0.01408956    -0.00034704  0.49D-04  0.37D-04   754.90
    4     1     1     1.08116534    -0.63673142 -6174.36681598    -0.00043223    -0.00001851  0.31D-05  0.22D-05  1090.28
    4     2     2     1.08116403    -0.63673119 -6174.36681575    -0.00043686    -0.00001871  0.31D-05  0.23D-05  1090.28
    4     3     3     1.08116314    -0.63673117 -6174.36681573    -0.00044067    -0.00001874  0.31D-05  0.23D-05  1090.28
    4     4     4     1.07802822    -0.62297892 -6174.17502892    -0.00030242    -0.00001254  0.26D-05  0.13D-05  1090.28
    4     5     5     1.07802790    -0.62297889 -6174.17502888    -0.00030316    -0.00001257  0.26D-05  0.13D-05  1090.28
    4     6     6     1.07802855    -0.62297887 -6174.17502886    -0.00030367    -0.00001258  0.26D-05  0.13D-05  1090.28
    4     7     7     1.07802402    -0.62297878 -6174.17502878    -0.00030503    -0.00001279  0.27D-05  0.13D-05  1090.28
    4     8     8     1.07802443    -0.62297876 -6174.17502875    -0.00030658    -0.00001281  0.27D-05  0.13D-05  1090.28
    4     9     9     1.07838945    -0.62489017 -6174.17028012    -0.00035598    -0.00001586  0.35D-05  0.16D-05  1090.28
    4    10    10     1.07838902    -0.62489012 -6174.17028006    -0.00035693    -0.00001590  0.35D-05  0.17D-05  1090.28
    4    11    11     1.07838945    -0.62489010 -6174.17028004    -0.00035763    -0.00001592  0.35D-05  0.17D-05  1090.28
    5     1     1     1.08122261    -0.63675172 -6174.36683628    -0.00002030    -0.00000076  0.72D-07  0.11D-06  1422.95
    5     2     2     1.08122171    -0.63675172 -6174.36683628    -0.00002053    -0.00000077  0.71D-07  0.11D-06  1422.95
    5     3     3     1.08122205    -0.63675171 -6174.36683627    -0.00002055    -0.00000077  0.72D-07  0.11D-06  1422.95
    5     4     4     1.07816462    -0.62299312 -6174.17504312    -0.00001420    -0.00000055  0.69D-07  0.92D-07  1422.95
    5     5     5     1.07816493    -0.62299312 -6174.17504312    -0.00001424    -0.00000055  0.68D-07  0.92D-07  1422.95
    5     6     6     1.07816544    -0.62299298 -6174.17504297    -0.00001411    -0.00000055  0.70D-07  0.91D-07  1422.95
    5     7     7     1.07816520    -0.62299298 -6174.17504297    -0.00001419    -0.00000055  0.70D-07  0.91D-07  1422.95
    5     8     8     1.07816551    -0.62299297 -6174.17504297    -0.00001422    -0.00000055  0.70D-07  0.92D-07  1422.95
    5     9     9     1.07849193    -0.62490744 -6174.17029738    -0.00001727    -0.00000079  0.12D-06  0.12D-06  1422.95
    5    10    10     1.07849173    -0.62490744 -6174.17029738    -0.00001732    -0.00000079  0.12D-06  0.12D-06  1422.95
    5    11    11     1.07849195    -0.62490743 -6174.17029738    -0.00001734    -0.00000079  0.12D-06  0.12D-06  1422.95
    6     1     1     1.08121215    -0.63675255 -6174.36683711    -0.00000083    -0.00000004  0.43D-08  0.63D-08  1756.00
    6     2     2     1.08121189    -0.63675255 -6174.36683711    -0.00000084    -0.00000004  0.43D-08  0.64D-08  1756.00
    6     3     3     1.08121197    -0.63675255 -6174.36683711    -0.00000084    -0.00000004  0.43D-08  0.64D-08  1756.00
    6     4     4     1.07817304    -0.62299375 -6174.17504375    -0.00000063    -0.00000004  0.42D-08  0.86D-08  1756.00
    6     5     5     1.07817306    -0.62299375 -6174.17504375    -0.00000063    -0.00000004  0.42D-08  0.87D-08  1756.00
    6     6     6     1.07817328    -0.62299360 -6174.17504360    -0.00000062    -0.00000004  0.44D-08  0.85D-08  1756.00
    6     7     7     1.07817330    -0.62299360 -6174.17504360    -0.00000063    -0.00000004  0.44D-08  0.85D-08  1756.00
    6     8     8     1.07817327    -0.62299360 -6174.17504360    -0.00000063    -0.00000004  0.44D-08  0.86D-08  1756.00
    6     9     9     1.07849129    -0.62490829 -6174.17029823    -0.00000085    -0.00000006  0.59D-08  0.13D-07  1756.00
    6    10    10     1.07849126    -0.62490829 -6174.17029823    -0.00000085    -0.00000006  0.59D-08  0.13D-07  1756.00
    6    11    11     1.07849127    -0.62490829 -6174.17029823    -0.00000085    -0.00000006  0.59D-08  0.13D-07  1756.00
    7     1     1     1.08121883    -0.63675260 -6174.36683716    -0.00000004    -0.00000000  0.18D-09  0.40D-09  2091.01
    7     2     2     1.08121886    -0.63675260 -6174.36683716    -0.00000004    -0.00000000  0.18D-09  0.41D-09  2091.01
    7     3     3     1.08121884    -0.63675260 -6174.36683716    -0.00000004    -0.00000000  0.18D-09  0.41D-09  2091.01
    7     4     4     1.07817864    -0.62299379 -6174.17504379    -0.00000004    -0.00000000  0.30D-09  0.87D-09  2091.01
    7     5     5     1.07817867    -0.62299379 -6174.17504379    -0.00000004    -0.00000000  0.30D-09  0.87D-09  2091.01
    7     6     6     1.07817853    -0.62299365 -6174.17504364    -0.00000004    -0.00000000  0.29D-09  0.87D-09  2091.01
    7     7     7     1.07817852    -0.62299365 -6174.17504364    -0.00000004    -0.00000000  0.29D-09  0.86D-09  2091.01
    7     8     8     1.07817853    -0.62299365 -6174.17504364    -0.00000004    -0.00000000  0.29D-09  0.87D-09  2091.01
    7     9     9     1.07849694    -0.62490836 -6174.17029830    -0.00000007    -0.00000001  0.46D-09  0.13D-08  2091.01
    7    10    10     1.07849695    -0.62490836 -6174.17029830    -0.00000007    -0.00000001  0.47D-09  0.13D-08  2091.01
    7    11    11     1.07849695    -0.62490836 -6174.17029830    -0.00000007    -0.00000001  0.46D-09  0.13D-08  2091.01


 =====================================
 Analysis of CPU times by interactions
 =====================================

       I      S      P

 I   1.8%
 S   0.9%  12.3%
 P   0.4%  46.2%  28.2%

 Initialization:   3.3%
 Other:            6.8%

 Total CPU:     2091.0 seconds
 =====================================



 Wavefunction saved on  5203.2

 Reference coefficients greater than 0.0500000
 =============================================
 2222222222/0/000           0.0001870  -0.0228348   0.9547406   0.0000000  -0.0000000  -0.0000000  -0.0000000  -0.0000000
                            0.0113766   0.0156715  -0.0112680
 22222222220//000           0.9508154  -0.0894192  -0.0023249   0.0000000   0.0000000   0.0000000   0.0000000  -0.0000000
                           -0.0171660   0.0022342  -0.0142242
 2222222222//0000           0.0894493   0.9505440   0.0227169  -0.0000000  -0.0000000   0.0000000  -0.0000000   0.0000000
                            0.0088256  -0.0158557  -0.0131414
 22222222220/00/0          -0.0000000   0.0000000   0.0000000  -0.0649690   0.7754041   0.0033878   0.0019554  -0.0003807
                            0.0000001  -0.0000000   0.0000000
 2222222222/0000/           0.0000000  -0.0000000  -0.0000000   0.7040076  -0.3314446  -0.0009114   0.0002396  -0.0021847
                           -0.0000000  -0.0000000   0.0000001
 222222222200//00           0.0000000  -0.0000000   0.0000000  -0.6390386  -0.4439595  -0.0024764  -0.0021950   0.0025654
                           -0.0000001   0.0000001  -0.0000001
 22222222220/0/00          -0.0174960   0.0016454   0.0000428  -0.0002746  -0.0003509  -0.2591914   0.6062320   0.1393495
                           -0.5114633   0.0665678  -0.4238114
 222222222200/0/0           0.0174960  -0.0016454  -0.0000428  -0.0002747  -0.0003510  -0.2591915   0.6062320   0.1393498
                            0.5114633  -0.0665680   0.4238113
 222222222200/00/           0.0000034  -0.0004202   0.0175683   0.0011280  -0.0019563   0.4697210   0.0917812   0.4743935
                           -0.3389679  -0.4669338   0.3357315
 2222222222/00/00          -0.0000034   0.0004202  -0.0175682   0.0011281  -0.0019563   0.4697210   0.0917812   0.4743935
                            0.3389678   0.4669339  -0.3357314
 2222222222/000/0          -0.0016460  -0.0174910  -0.0004180  -0.0023577  -0.0029091   0.4077852   0.2795899  -0.4578675
                            0.2629604  -0.4724231  -0.3915486
 22222222220/000/           0.0016460   0.0174910   0.0004180  -0.0023577  -0.0029091   0.4077850   0.2795901  -0.4578676
                           -0.2629603   0.4724230   0.3915488
 2222222222000//0           0.0131997  -0.0012414  -0.0000323   0.0000000   0.0000000  -0.0000000   0.0000001  -0.0000000
                           -0.0994513   0.0129438  -0.0824078
 2222220222/2/000          -0.0000194   0.0023682  -0.0990152   0.0000000  -0.0000000   0.0000000   0.0000000   0.0000000
                            0.0013468   0.0018553  -0.0013340
 22222202222//000          -0.0986081   0.0092736   0.0002411  -0.0000000  -0.0000000   0.0000000   0.0000000   0.0000000
                           -0.0020323   0.0002645  -0.0016840
 2222220222//2000          -0.0092767  -0.0985800  -0.0023559  -0.0000000  -0.0000000   0.0000000   0.0000000  -0.0000000
                            0.0010448  -0.0018771  -0.0015558
 22222222220000//           0.0012418   0.0131960   0.0003154   0.0000000   0.0000000   0.0000000   0.0000000  -0.0000000
                            0.0511312  -0.0918601  -0.0761345
 2222222222000/0/           0.0000026  -0.0003170   0.0132542   0.0000000  -0.0000000   0.0000000   0.0000000   0.0000000
                            0.0659105   0.0907928  -0.0652812
 22222202222/00/0          -0.0000000   0.0000000  -0.0000000   0.0054033  -0.0738320  -0.0003232  -0.0001874   0.0000390
                           -0.0000000   0.0000000  -0.0000000
 22222202220/20/0          -0.0000000   0.0000000   0.0000000   0.0069581  -0.0737018  -0.0003214  -0.0001846   0.0000335
                           -0.0000000  -0.0000000  -0.0000000
 2222220222/2000/           0.0000000  -0.0000000  -0.0000000  -0.0673070   0.0308257   0.0000833  -0.0000252   0.0002095
                            0.0000000   0.0000000  -0.0000000
 2222220222/0200/          -0.0000000   0.0000000   0.0000000  -0.0666424   0.0322373   0.0000901  -0.0000204   0.0002062
                           -0.0000000  -0.0000000   0.0000000
 222222022202//00           0.0000000  -0.0000000   0.0000000   0.0612391   0.0415948   0.0002331   0.0002078  -0.0002451
                            0.0000000  -0.0000000   0.0000000
 222222022220//00           0.0000000  -0.0000000   0.0000000   0.0603489   0.0428761   0.0002381   0.0002098  -0.0002430
                            0.0000000  -0.0000000   0.0000000
 22222202222/0/00           0.0035214  -0.0003312  -0.0000086   0.0000263   0.0000336   0.0248078  -0.0580239  -0.0133375
                            0.0493203  -0.0064191   0.0408680
 222222022220/0/0          -0.0035214   0.0003312   0.0000086   0.0000263   0.0000336   0.0248078  -0.0580239  -0.0133375
                           -0.0493202   0.0064191  -0.0408680
 22222202220/2/00          -0.0174855   0.0016444   0.0000428   0.0000260   0.0000332   0.0245078  -0.0573221  -0.0131762
                            0.0477755  -0.0062181   0.0395880
 222222022202/0/0           0.0174855  -0.0016444  -0.0000428   0.0000260   0.0000332   0.0245078  -0.0573221  -0.0131762
                           -0.0477755   0.0062181  -0.0395880

 Coefficients of fixed reference functions:
 ==========================================

 State      Coefficients
 1           0.956321    0.089967    0.000188    0.000000   -0.000000    0.000000    0.000000   -0.000000    0.000007    0.038069
             0.003581
 2          -0.089937    0.956048   -0.022967   -0.000000   -0.000000   -0.000000    0.000000    0.000000   -0.000914   -0.003580
             0.038058
 3          -0.002338    0.022848    0.960268    0.000000    0.000000   -0.000000    0.000000    0.000000    0.038226   -0.000093
             0.000910
 4           0.000000    0.000000    0.000000    0.001611   -0.947922   -0.000392   -0.003367   -0.166238   -0.000000   -0.000000
            -0.000000
 5           0.000000   -0.000000   -0.000000   -0.002794   -0.166227   -0.000501   -0.004155    0.947918    0.000000   -0.000000
             0.000000
 6          -0.000000    0.000000    0.000000    0.670827   -0.001490   -0.370161    0.582374    0.004073    0.000000   -0.000000
            -0.000000
 7           0.000000   -0.000000    0.000000    0.131076   -0.001949    0.865783    0.399293    0.002252   -0.000000   -0.000000
             0.000000
 8          -0.000000    0.000000    0.000000    0.677500    0.003420    0.199011   -0.653898   -0.000164    0.000000    0.000000
            -0.000000
 9          -0.030275    0.015566    0.020065   -0.000000   -0.000000    0.000000    0.000000    0.000000   -0.488190    0.736622
            -0.378722
 10          0.003940   -0.027964    0.027640    0.000000    0.000000   -0.000000   -0.000000   -0.000000   -0.672489   -0.095873
             0.680395
 11         -0.025087   -0.023177   -0.019873    0.000000   -0.000000   -0.000000    0.000000    0.000000    0.483529    0.610383
             0.563918

 Coefficients of rotated reference functions:
 ============================================

 State      Coefficients
 1           0.961304   -0.000000   -0.000000    0.000000    0.000000   -0.000000    0.000000    0.000000   -0.000451    0.000021
            -0.000427
 2          -0.000000    0.961304   -0.000000    0.000000   -0.000000    0.000000    0.000000   -0.000000    0.000280   -0.000453
            -0.000318
 3          -0.000000   -0.000000    0.961304    0.000000   -0.000000    0.000000    0.000000    0.000000    0.000322    0.000423
            -0.000320
 4           0.000000    0.000000    0.000000    0.962396    0.000000    0.000000    0.000000   -0.000000    0.000000   -0.000000
             0.000000
 5           0.000000   -0.000000   -0.000000    0.000000    0.962396    0.000000    0.000000    0.000000    0.000000   -0.000000
             0.000000
 6          -0.000000    0.000000    0.000000    0.000000    0.000000    0.962396   -0.000000    0.000000   -0.000000    0.000000
             0.000000
 7           0.000000    0.000000    0.000000    0.000000    0.000000   -0.000000    0.962396    0.000000   -0.000000    0.000000
            -0.000000
 8           0.000000   -0.000000    0.000000   -0.000000    0.000000    0.000000    0.000000    0.962396   -0.000000   -0.000000
            -0.000000
 9          -0.000451    0.000280    0.000322    0.000000    0.000000   -0.000000   -0.000000   -0.000000    0.962254    0.000000
             0.000000
 10          0.000021   -0.000453    0.000423   -0.000000   -0.000000    0.000000    0.000000   -0.000000    0.000000    0.962254
            -0.000000
 11         -0.000427   -0.000318   -0.000320    0.000000    0.000000    0.000000   -0.000000   -0.000000    0.000000   -0.000000
             0.962254


 RESULTS FOR STATE 1.1
 =====================

 Coefficient of reference function:   C(0) = 0.95632050 (fixed)   0.96139902 (relaxed)   0.96130364 (rotated)

 Energy contributions of configuration classes

 CLASS          SQ.NORM        ECORR1        ECORR2
 +++++++++++++++++++++++++++++++++++++++++++++++++++
 Internals    0.00084132   -0.00147948   -0.53434627
 Singles      0.01776169   -0.05602105   -0.06221877
 Pairs        0.06352546   -0.00303594   -0.04018755
 Total        1.08212848   -0.06053647   -0.63675260
 +++++++++++++++++++++++++++++++++++++++++++++++++++


 Reference energy                   -6173.72978279
 Nuclear energy                         0.00000000
 Kinetic energy                      7124.90213098
 One electron energy                -8490.48245959
 Two electron energy                 2316.11562244
 Virial quotient                       -0.86658971
 Correlation energy                    -0.63705436
 !MRCI STATE 1.1 Energy             -6174.366837156952

 Properties without orbital relaxation:

 !MRCI STATE 1.1 Dipole moment          0.00000000     0.00000000     0.00000000
 Dipole moment /Debye                   0.00000000     0.00000000     0.00000000

 Cluster corrected energies         -6174.41915746 (Davidson, fixed reference)
 Cluster corrected energies         -6174.41902069 (Davidson, relaxed reference)
 Cluster corrected energies         -6174.41915746 (Davidson, rotated reference)

 Cluster corrected energies         -6174.41720183 (Pople, fixed reference)
 Cluster corrected energies         -6174.41706113 (Pople, relaxed reference)
 Cluster corrected energies         -6174.41720183 (Pople, rotated reference)



 RESULTS FOR STATE 2.1
 =====================

 Coefficient of reference function:   C(0) = 0.95604752 (fixed)   0.96139900 (relaxed)   0.96130363 (rotated)

 Energy contributions of configuration classes

 CLASS          SQ.NORM        ECORR1        ECORR2
 +++++++++++++++++++++++++++++++++++++++++++++++++++
 Internals    0.00084132   -0.00147948   -0.50733849
 Singles      0.01776175   -0.05602110   -0.06221879
 Pairs        0.06352544   -0.03226176   -0.06719531
 Total        1.08212850   -0.08976234   -0.63675260
 +++++++++++++++++++++++++++++++++++++++++++++++++++


 Reference energy                   -6173.72978279
 Nuclear energy                         0.00000000
 Kinetic energy                      7124.90212975
 One electron energy                -8490.48245914
 Two electron energy                 2316.11562198
 Virial quotient                       -0.86658971
 Correlation energy                    -0.63705436
 !MRCI STATE 2.1 Energy             -6174.366837156900

 Properties without orbital relaxation:

 !MRCI STATE 2.1 Dipole moment          0.00000000     0.00000000     0.00000000
 Dipole moment /Debye                   0.00000000     0.00000000     0.00000000

 Cluster corrected energies         -6174.41915748 (Davidson, fixed reference)
 Cluster corrected energies         -6174.41902071 (Davidson, relaxed reference)
 Cluster corrected energies         -6174.41915748 (Davidson, rotated reference)

 Cluster corrected energies         -6174.41720185 (Pople, fixed reference)
 Cluster corrected energies         -6174.41706115 (Pople, relaxed reference)
 Cluster corrected energies         -6174.41720185 (Pople, rotated reference)



 RESULTS FOR STATE 3.1
 =====================

 Coefficient of reference function:   C(0) = 0.96026845 (fixed)   0.96139901 (relaxed)   0.96130364 (rotated)

 Energy contributions of configuration classes

 CLASS          SQ.NORM        ECORR1        ECORR2
 +++++++++++++++++++++++++++++++++++++++++++++++++++
 Internals    0.00084132   -0.00147948   -0.53643926
 Singles      0.01776173   -0.05602108   -0.06221878
 Pairs        0.06352544   -0.00077102   -0.03809455
 Total        1.08212848   -0.05827158   -0.63675260
 +++++++++++++++++++++++++++++++++++++++++++++++++++


 Reference energy                   -6173.72978279
 Nuclear energy                         0.00000000
 Kinetic energy                      7124.90213145
 One electron energy                -8490.48246020
 Two electron energy                 2316.11562304
 Virial quotient                       -0.86658971
 Correlation energy                    -0.63705436
 !MRCI STATE 3.1 Energy             -6174.366837156810

 Properties without orbital relaxation:

 !MRCI STATE 3.1 Dipole moment          0.00000000     0.00000000     0.00000000
 Dipole moment /Debye                   0.00000000     0.00000000     0.00000000

 Cluster corrected energies         -6174.41915747 (Davidson, fixed reference)
 Cluster corrected energies         -6174.41902069 (Davidson, relaxed reference)
 Cluster corrected energies         -6174.41915747 (Davidson, rotated reference)

 Cluster corrected energies         -6174.41720183 (Pople, fixed reference)
 Cluster corrected energies         -6174.41706113 (Pople, relaxed reference)
 Cluster corrected energies         -6174.41720183 (Pople, rotated reference)



 RESULTS FOR STATE 4.1
 =====================

 Maximum overlap with reference state  5

 Coefficient of reference function:   C(0) = 0.94792227 (fixed)   0.96254983 (relaxed)   0.96239578 (rotated)

 Energy contributions of configuration classes

 CLASS          SQ.NORM        ECORR1        ECORR2
 +++++++++++++++++++++++++++++++++++++++++++++++++++
 Internals    0.00138678   -0.00239814   -0.52395863
 Singles      0.01878839   -0.05815333   -0.06470089
 Pairs        0.05949867    0.00000000   -0.03433428
 Total        1.07967384   -0.06055147   -0.62299379
 +++++++++++++++++++++++++++++++++++++++++++++++++++


 Reference energy                   -6173.55204999
 Nuclear energy                         0.00000000
 Kinetic energy                      7124.40730035
 One electron energy                -8480.96565924
 Two electron energy                 2306.79061545
 Virial quotient                       -0.86662297
 Correlation energy                    -0.62299380
 !MRCI STATE 4.1 Energy             -6174.175043789817

 Properties without orbital relaxation:

 !MRCI STATE 4.1 Dipole moment          0.00000000     0.00000000     0.00000000
 Dipole moment /Debye                   0.00000000     0.00000000     0.00000000

 Cluster corrected energies         -6174.22468010 (Davidson, fixed reference)
 Cluster corrected energies         -6174.22446482 (Davidson, relaxed reference)
 Cluster corrected energies         -6174.22468010 (Davidson, rotated reference)

 Cluster corrected energies         -6174.22272665 (Pople, fixed reference)
 Cluster corrected energies         -6174.22250612 (Pople, relaxed reference)
 Cluster corrected energies         -6174.22272665 (Pople, rotated reference)



 RESULTS FOR STATE 5.1
 =====================

 Maximum overlap with reference state  8

 Coefficient of reference function:   C(0) = 0.94791825 (fixed)   0.96254982 (relaxed)   0.96239577 (rotated)

 Energy contributions of configuration classes

 CLASS          SQ.NORM        ECORR1        ECORR2
 +++++++++++++++++++++++++++++++++++++++++++++++++++
 Internals    0.00138678   -0.00239814   -0.52395858
 Singles      0.01878842   -0.05815336   -0.06470090
 Pairs        0.05949866   -0.00000001   -0.03433431
 Total        1.07967387   -0.06055151   -0.62299379
 +++++++++++++++++++++++++++++++++++++++++++++++++++


 Reference energy                   -6173.55204999
 Nuclear energy                         0.00000000
 Kinetic energy                      7124.40730153
 One electron energy                -8480.96566180
 Two electron energy                 2306.79061801
 Virial quotient                       -0.86662297
 Correlation energy                    -0.62299380
 !MRCI STATE 5.1 Energy             -6174.175043789711

 Properties without orbital relaxation:

 !MRCI STATE 5.1 Dipole moment          0.00000000     0.00000000     0.00000000
 Dipole moment /Debye                   0.00000000     0.00000000     0.00000000

 Cluster corrected energies         -6174.22468011 (Davidson, fixed reference)
 Cluster corrected energies         -6174.22446483 (Davidson, relaxed reference)
 Cluster corrected energies         -6174.22468011 (Davidson, rotated reference)

 Cluster corrected energies         -6174.22272667 (Pople, fixed reference)
 Cluster corrected energies         -6174.22250613 (Pople, relaxed reference)
 Cluster corrected energies         -6174.22272667 (Pople, rotated reference)



 RESULTS FOR STATE 6.1
 =====================

 Maximum overlap with reference state  4

 Coefficient of reference function:   C(0) = 0.67082673 (fixed)   0.96254988 (relaxed)   0.96239583 (rotated)

 Energy contributions of configuration classes

 CLASS          SQ.NORM        ECORR1        ECORR2
 +++++++++++++++++++++++++++++++++++++++++++++++++++
 Internals    0.00138678   -0.00239813   -0.52395887
 Singles      0.01878825   -0.05815309   -0.06470069
 Pairs        0.05949869    0.00000011   -0.03433408
 Total        1.07967372   -0.06055110   -0.62299365
 +++++++++++++++++++++++++++++++++++++++++++++++++++


 Reference energy                   -6173.55204999
 Nuclear energy                         0.00000000
 Kinetic energy                      7124.40729353
 One electron energy                -8480.96564141
 Two electron energy                 2306.79059777
 Virial quotient                       -0.86662297
 Correlation energy                    -0.62299365
 !MRCI STATE 6.1 Energy             -6174.175043640484

 Properties without orbital relaxation:

 !MRCI STATE 6.1 Dipole moment          0.00000000     0.00000000     0.00000000
 Dipole moment /Debye                   0.00000000     0.00000000     0.00000000

 Cluster corrected energies         -6174.22467986 (Davidson, fixed reference)
 Cluster corrected energies         -6174.22446459 (Davidson, relaxed reference)
 Cluster corrected energies         -6174.22467986 (Davidson, rotated reference)

 Cluster corrected energies         -6174.22272642 (Pople, fixed reference)
 Cluster corrected energies         -6174.22250588 (Pople, relaxed reference)
 Cluster corrected energies         -6174.22272642 (Pople, rotated reference)



 RESULTS FOR STATE 7.1
 =====================

 Maximum overlap with reference state  6

 Coefficient of reference function:   C(0) = 0.86578330 (fixed)   0.96254988 (relaxed)   0.96239583 (rotated)

 Energy contributions of configuration classes

 CLASS          SQ.NORM        ECORR1        ECORR2
 +++++++++++++++++++++++++++++++++++++++++++++++++++
 Internals    0.00138678   -0.00239813   -0.52395871
 Singles      0.01878824   -0.05815308   -0.06470069
 Pairs        0.05949870   -0.00000007   -0.03433424
 Total        1.07967372   -0.06055127   -0.62299365
 +++++++++++++++++++++++++++++++++++++++++++++++++++


 Reference energy                   -6173.55204999
 Nuclear energy                         0.00000000
 Kinetic energy                      7124.40729265
 One electron energy                -8480.96564030
 Two electron energy                 2306.79059666
 Virial quotient                       -0.86662298
 Correlation energy                    -0.62299365
 !MRCI STATE 7.1 Energy             -6174.175043639934

 Properties without orbital relaxation:

 !MRCI STATE 7.1 Dipole moment          0.00000000     0.00000000     0.00000000
 Dipole moment /Debye                   0.00000000     0.00000000     0.00000000

 Cluster corrected energies         -6174.22467986 (Davidson, fixed reference)
[...]
 25  1     3    1  |1 1>-         0.00%    0.20%    0.00%   49.79%    0.00%    0.00%    0.46%    4.76%
 26  1     4    1  |1 1>-         0.00%    0.00%    0.00%    0.00%    0.00%    0.00%    0.00%    0.01%
 27  1     5    1  |1 1>-         0.00%    0.00%    0.00%    0.00%    0.00%    0.00%    0.00%    0.03%
 28  1     6    1  |1 1>-         0.00%    0.00%    0.00%    0.00%    0.00%    0.01%    0.00%    0.00%
 29  1     7    1  |1 1>-         0.00%    0.00%    0.00%    0.00%    0.00%    0.03%    0.00%    0.00%
 30  1     8    1  |1 1>-         0.00%    0.00%    0.00%    0.00%    0.00%    0.00%    0.00%    0.00%
 31  1     9    1  |1 1>-         0.01%    0.00%    0.00%    0.00%    0.00%    0.00%    0.00%    0.00%
 32  1    10    1  |1 1>-         0.00%    0.00%    0.00%    0.00%    0.00%    0.00%    0.00%    0.00%
 33  1    11    1  |1 1>-         0.00%    0.00%    0.00%    0.00%    0.00%    0.00%    0.00%    0.00%
 34  1     1    1  |0 0>          0.00%    0.00%    0.00%    0.00%    3.30%    4.67%    0.03%    1.93%
 35  1     2    1  |0 0>          0.00%    0.00%    0.00%    0.00%    1.03%    1.90%    0.00%    2.95%
 36  1     3    1  |0 0>          0.00%    0.00%    0.00%    0.00%    2.96%    3.01%    0.91%    0.05%
 37  1     4    1  |0 0>          0.00%    0.00%    0.00%    0.00%    0.11%    0.52%    9.27%    0.01%
 38  1     5    1  |0 0>          0.00%    0.00%    0.00%    0.00%    2.87%    0.17%    0.06%    5.34%
 39  1     6    1  |0 0>          3.75%    0.00%    0.00%    0.00%    0.00%    0.00%    0.00%    0.00%

   Total
 Nr Sym  State Sym Spin / Nr.      9       10       11       12       13       14       15       16

  1  1     1    1  |1 1>+        42.06%    0.27%    1.14%    3.73%    0.00%    0.00%    0.00%    0.00%
  2  1     2    1  |1 1>+         2.46%    0.03%    3.81%    1.27%    0.00%    0.03%    0.00%    0.00%
  3  1     3    1  |1 1>+         0.00%    0.01%    0.00%    0.00%    6.80%    0.05%    1.25%    0.00%
  4  1     4    1  |1 1>+         0.00%    0.03%    0.00%    0.00%    0.00%    0.00%    0.00%    0.12%
  5  1     5    1  |1 1>+         0.00%    0.00%    0.00%    0.00%    0.00%    0.00%    0.00%   16.37%
  6  1     6    1  |1 1>+         0.00%    0.00%    0.00%    0.00%    0.00%    0.02%    0.00%    2.35%
  7  1     7    1  |1 1>+         0.00%    0.00%    0.00%    0.01%    0.00%    0.00%    0.00%   12.20%
  8  1     8    1  |1 1>+         0.00%    0.00%    0.01%    0.00%    0.00%    0.01%    0.00%    0.74%
  9  1     9    1  |1 1>+         0.00%    0.00%    0.00%    0.00%    0.00%    0.00%    0.00%    1.24%
 10  1    10    1  |1 1>+         0.00%    0.00%    0.00%    0.00%    0.00%    0.00%    0.00%    0.02%
 11  1    11    1  |1 1>+         0.00%    0.00%    0.00%    0.00%    0.00%    0.00%    0.00%    0.90%
 12  1     1    1  |1 0>          0.32%    4.83%    0.15%    0.14%    0.00%    0.04%    0.01%    0.00%
 13  1     2    1  |1 0>          0.00%    0.02%    0.03%    0.00%    1.24%    5.56%    1.24%    0.00%
 14  1     3    1  |1 0>          4.70%    0.05%    4.19%    0.89%    0.00%    0.02%    0.00%    0.00%
 15  1     4    1  |1 0>          0.01%    0.00%    0.00%    0.01%    0.00%    0.00%    0.00%   13.75%
 16  1     5    1  |1 0>          0.02%    0.00%    0.00%    0.02%    0.00%    0.00%    0.00%    6.64%
 17  1     6    1  |1 0>          0.00%    0.00%    0.00%    0.00%    0.01%    0.00%    0.00%    2.02%
 18  1     7    1  |1 0>          0.00%    0.01%    0.00%    0.00%    0.00%    0.00%    0.00%    9.87%
 19  1     8    1  |1 0>          0.00%    0.00%    0.00%    0.00%    0.01%    0.00%    0.00%    0.47%
 20  1     9    1  |1 0>          0.00%    0.00%    0.00%    0.00%    0.00%    0.00%    0.00%    1.06%
 21  1    10    1  |1 0>          0.00%    0.00%    0.00%    0.00%    0.00%    0.00%    0.00%    0.01%
 22  1    11    1  |1 0>          0.00%    0.00%    0.00%    0.00%    0.00%    0.00%    0.00%    0.68%
 23  1     1    1  |1 1>-         0.00%    0.05%    0.04%    0.00%    2.20%    4.56%    1.24%    0.00%
 24  1     2    1  |1 1>-         0.51%    4.74%    0.17%    0.18%    0.04%    0.03%    0.01%    0.00%
 25  1     3    1  |1 1>-        39.62%    0.31%    0.76%    4.08%    0.00%    0.00%    0.00%    0.00%
 26  1     4    1  |1 1>-         0.00%    0.00%    0.00%    0.00%    0.00%    0.00%    0.00%    0.01%
 27  1     5    1  |1 1>-         0.00%    0.00%    0.02%    0.00%    0.00%    0.00%    0.00%    0.00%
 28  1     6    1  |1 1>-         0.00%    0.00%    0.00%    0.00%    0.00%    0.00%    0.00%   23.55%
 29  1     7    1  |1 1>-         0.00%    0.00%    0.00%    0.00%    0.02%    0.01%    0.00%    3.97%
 30  1     8    1  |1 1>-         0.00%    0.00%    0.00%    0.00%    0.00%    0.00%    0.00%    0.13%
 31  1     9    1  |1 1>-         0.00%    0.00%    0.00%    0.00%    0.00%    0.00%    0.00%    1.60%
 32  1    10    1  |1 1>-         0.00%    0.00%    0.00%    0.00%    0.00%    0.00%    0.00%    0.01%
 33  1    11    1  |1 1>-         0.00%    0.00%    0.00%    0.00%    0.00%    0.00%    0.00%    2.29%
 34  1     1    1  |0 0>          0.35%    0.33%   11.22%    1.84%    1.53%   74.71%    0.00%    0.00%
 35  1     2    1  |0 0>          4.38%    0.83%    0.13%   61.44%   27.16%    0.08%    0.00%    0.00%
 36  1     3    1  |0 0>          3.34%    2.86%   12.65%   22.75%   51.12%    0.26%    0.00%    0.00%
 37  1     4    1  |0 0>          0.36%   85.61%    0.13%    0.04%    3.65%    0.21%    0.00%    0.00%
 38  1     5    1  |0 0>          1.83%    0.00%   65.50%    3.57%    6.18%   14.38%    0.00%    0.00%
 39  1     6    1  |0 0>          0.00%    0.00%    0.00%    0.00%    0.00%    0.00%   96.21%    0.00%

   Total
 Nr Sym  State Sym Spin / Nr.     17       18       19       20       21       22       23       24

  1  1     1    1  |1 1>+         0.00%    0.00%    0.01%    0.01%    0.00%    0.00%    0.00%    0.00%
  2  1     2    1  |1 1>+         0.00%    0.00%    0.01%    0.01%    0.00%    0.00%    0.00%    0.00%
  3  1     3    1  |1 1>+         0.00%    0.00%    0.00%    0.00%    0.00%    0.00%    0.02%    0.01%
  4  1     4    1  |1 1>+         0.14%    0.01%    0.06%    0.98%   57.43%    0.00%    0.00%    0.00%
  5  1     5    1  |1 1>+        19.80%    0.45%    0.00%    0.01%    0.40%    0.00%    0.00%    0.00%
  6  1     6    1  |1 1>+         0.84%   11.03%    7.30%    0.34%    0.03%   26.42%    2.09%    0.00%
  7  1     7    1  |1 1>+        11.80%    3.14%    1.71%   12.55%    0.19%    1.02%    0.08%    0.00%
  8  1     8    1  |1 1>+         0.05%   13.16%    5.69%    1.57%    0.07%   27.17%    2.11%    0.00%
  9  1     9    1  |1 1>+         1.24%    0.42%    0.40%    3.84%    0.05%    0.14%    1.85%    8.59%
 10  1    10    1  |1 1>+         0.11%    1.87%    1.08%    1.85%    0.04%    0.27%    3.49%   16.30%
 11  1    11    1  |1 1>+         0.45%    1.56%    4.30%    0.01%    0.00%    0.15%    1.82%    8.43%
 12  1     1    1  |1 0>          0.00%    0.00%    0.00%    0.00%    0.01%    0.00%    0.00%    0.00%
 13  1     2    1  |1 0>          0.00%    0.00%    0.00%    0.00%    0.00%    0.01%    0.01%    0.01%
 14  1     3    1  |1 0>          0.00%    0.00%    0.01%    0.01%    0.00%    0.00%    0.00%    0.00%
 15  1     4    1  |1 0>         10.95%    0.18%    9.59%    9.49%    0.09%    0.00%    0.00%    0.00%
 16  1     5    1  |1 0>          5.29%    0.07%   19.88%   19.65%    0.19%    0.00%    0.00%    0.00%
 17  1     6    1  |1 0>          3.94%   11.56%    3.41%    2.89%    3.14%   10.96%   10.51%    0.00%
 18  1     7    1  |1 0>         11.47%    1.56%    0.23%    0.67%   11.28%    5.19%    4.95%    0.00%
 19  1     8    1  |1 0>          0.07%   14.35%    3.65%    3.95%    0.24%   13.96%   13.31%    0.00%
 20  1     9    1  |1 0>          1.57%    0.67%    0.65%    0.38%    3.86%    0.59%    0.61%    5.17%
 21  1    10    1  |1 0>          0.00%    1.93%    1.44%    1.45%    0.00%    1.87%    1.98%   16.68%
 22  1    11    1  |1 0>          0.61%    1.27%    0.81%    1.08%    1.90%    1.30%    1.35%   11.46%
 23  1     1    1  |1 1>-         0.00%    0.00%    0.00%    0.00%    0.00%    0.02%    0.00%    0.01%
 24  1     2    1  |1 1>-         0.00%    0.00%    0.00%    0.00%    0.01%    0.00%    0.00%    0.00%
 25  1     3    1  |1 1>-         0.00%    0.00%    0.01%    0.01%    0.00%    0.00%    0.00%    0.00%
 26  1     4    1  |1 1>-         0.62%   29.56%    5.33%    5.23%    0.13%    0.00%    0.00%    0.00%
 27  1     5    1  |1 1>-         0.13%    6.57%   24.20%   23.42%    0.58%    0.00%    0.00%    0.00%
 28  1     6    1  |1 1>-         0.01%    0.00%    3.75%    2.60%    6.20%    0.53%    8.18%    0.00%
 29  1     7    1  |1 1>-         1.27%    0.04%    0.16%    0.03%    2.62%    2.92%   44.73%    0.00%
 30  1     8    1  |1 1>-        25.81%    0.53%    3.38%    4.95%    5.76%    0.16%    2.36%    0.00%
 31  1     9    1  |1 1>-         0.01%    0.00%    0.78%    0.55%    1.06%    4.26%    0.28%   19.56%
 32  1    10    1  |1 1>-         3.78%    0.07%    1.29%    1.97%    2.47%    0.07%    0.00%    0.33%
 33  1    11    1  |1 1>-         0.04%    0.00%    0.82%    0.45%    2.19%    2.92%    0.19%   13.43%
 34  1     1    1  |0 0>          0.00%    0.00%    0.01%    0.01%    0.00%    0.03%    0.01%    0.00%
 35  1     2    1  |0 0>          0.00%    0.00%    0.01%    0.03%    0.00%    0.00%    0.02%    0.00%
 36  1     3    1  |0 0>          0.00%    0.00%    0.01%    0.01%    0.01%    0.01%    0.03%    0.00%
 37  1     4    1  |0 0>          0.00%    0.00%    0.00%    0.00%    0.05%    0.00%    0.00%    0.00%
 38  1     5    1  |0 0>          0.00%    0.00%    0.03%    0.01%    0.00%    0.02%    0.00%    0.00%
 39  1     6    1  |0 0>          0.00%    0.00%    0.00%    0.00%    0.00%    0.00%    0.00%    0.04%

   Total
 Nr Sym  State Sym Spin / Nr.     25       26       27       28       29       30       31       32

  1  1     1    1  |1 1>+         0.00%    0.00%    0.00%    0.00%    0.00%    0.00%    0.00%    0.00%
  2  1     2    1  |1 1>+         0.01%    0.00%    0.00%    0.00%    0.00%    0.00%    0.00%    0.00%
  3  1     3    1  |1 1>+         0.00%    0.00%    0.00%    0.00%    0.00%    0.00%    0.00%    0.00%
  4  1     4    1  |1 1>+         0.00%    0.02%    0.01%    0.71%    0.03%    0.00%    1.43%    0.01%
  5  1     5    1  |1 1>+         0.00%    2.25%    0.84%   57.79%    1.40%    0.03%    0.03%    0.00%
  6  1     6    1  |1 1>+         0.83%    0.12%    0.25%    0.18%    9.07%    2.03%    7.27%    8.61%
  7  1     7    1  |1 1>+         0.44%    0.48%    1.37%    0.10%    2.12%   17.68%   11.53%   20.44%
  8  1     8    1  |1 1>+         1.06%    0.04%    0.08%    0.26%   10.48%    0.30%   11.15%    4.07%
  9  1     9    1  |1 1>+         7.81%    6.86%   19.54%    0.00%    0.00%    0.00%    0.00%    0.00%
 10  1    10    1  |1 1>+        23.21%    0.03%    0.30%    0.00%    0.00%    0.00%    0.00%    0.00%
 11  1    11    1  |1 1>+        15.04%    5.73%   13.66%    0.00%    0.00%    0.00%    0.00%    0.00%
 12  1     1    1  |1 0>          0.00%    0.00%    0.00%    0.00%    0.00%    0.00%    0.00%    0.00%
 13  1     2    1  |1 0>          0.00%    0.00%    0.00%    0.00%    0.00%    0.00%    0.00%    0.00%
 14  1     3    1  |1 0>          0.01%    0.00%    0.00%    0.00%    0.00%    0.00%    0.00%    0.00%
 15  1     4    1  |1 0>          0.00%    0.57%    1.53%    0.00%    0.53%   39.92%    0.52%   10.33%
 16  1     5    1  |1 0>          0.00%    0.28%    0.74%    0.00%    0.27%   19.28%    1.23%   21.20%
 17  1     6    1  |1 0>          1.17%    0.21%    0.10%    1.34%    9.91%    0.16%   19.54%    0.98%
 18  1     7    1  |1 0>          0.03%    1.40%    0.51%   14.98%    0.00%    0.00%    0.10%    0.02%
 19  1     8    1  |1 0>          1.14%    0.09%    0.03%    1.76%    7.70%    0.11%   13.94%    0.92%
 20  1     9    1  |1 0>         12.90%   18.56%    7.49%    0.00%    0.00%    0.00%    0.00%    0.00%
 21  1    10    1  |1 0>         22.34%    0.56%    0.11%    0.00%    0.00%    0.00%    0.00%    0.00%
 22  1    11    1  |1 0>         10.83%   14.42%    4.99%    0.00%    0.00%    0.00%    0.00%    0.00%
 23  1     1    1  |1 1>-         0.00%    0.00%    0.00%    0.00%    0.00%    0.00%    0.00%    0.00%
 24  1     2    1  |1 1>-         0.00%    0.00%    0.00%    0.00%    0.00%    0.00%    0.00%    0.00%
 25  1     3    1  |1 1>-         0.00%    0.00%    0.00%    0.00%    0.00%    0.00%    0.00%    0.00%
 26  1     4    1  |1 1>-         2.55%    0.00%    0.00%    1.21%   45.77%    0.62%    6.87%    0.41%
 27  1     5    1  |1 1>-         0.56%    0.00%    0.00%    0.30%   11.93%    0.13%   23.48%    1.30%
 28  1     6    1  |1 1>-         0.00%    0.05%    1.94%    7.97%    0.64%    9.30%    2.47%   15.00%
 29  1     7    1  |1 1>-         0.00%    0.19%    0.26%    3.70%    0.13%    0.28%    0.42%    0.55%
 30  1     8    1  |1 1>-         0.00%    2.09%    0.14%    9.69%    0.03%   10.16%    0.02%   16.15%
 31  1     9    1  |1 1>-         0.00%    0.23%   18.81%    0.00%    0.00%    0.00%    0.00%    0.00%
 32  1    10    1  |1 1>-         0.06%   43.21%    2.37%    0.00%    0.00%    0.00%    0.00%    0.00%
 33  1    11    1  |1 1>-         0.00%    2.60%   24.92%    0.00%    0.00%    0.00%    0.00%    0.00%
 34  1     1    1  |0 0>          0.00%    0.00%    0.00%    0.00%    0.00%    0.00%    0.00%    0.00%
 35  1     2    1  |0 0>          0.00%    0.00%    0.00%    0.00%    0.00%    0.00%    0.00%    0.00%
 36  1     3    1  |0 0>          0.00%    0.00%    0.00%    0.00%    0.00%    0.00%    0.00%    0.00%
 37  1     4    1  |0 0>          0.00%    0.00%    0.00%    0.00%    0.00%    0.00%    0.00%    0.00%
 38  1     5    1  |0 0>          0.00%    0.00%    0.00%    0.00%    0.00%    0.00%    0.00%    0.00%
 39  1     6    1  |0 0>          0.00%    0.00%    0.00%    0.00%    0.00%    0.00%    0.00%    0.00%

   Total
 Nr Sym  State Sym Spin / Nr.     33       34       35       36       37       38       39

  1  1     1    1  |1 1>+         0.00%    0.00%    0.00%    0.00%    0.00%    0.00%    0.00%
  2  1     2    1  |1 1>+         0.00%    0.00%    0.00%    0.00%    0.00%    0.00%    0.00%
  3  1     3    1  |1 1>+         0.00%    0.00%    0.00%    0.00%    0.00%    0.00%    0.00%
  4  1     4    1  |1 1>+        31.34%    0.00%    5.48%    1.49%    0.68%    0.00%    0.00%
  5  1     5    1  |1 1>+         0.56%    0.00%    0.04%    0.01%    0.01%    0.00%    0.00%
  6  1     6    1  |1 1>+         0.40%   16.06%    0.01%    0.23%    0.89%    3.60%    0.01%
  7  1     7    1  |1 1>+         0.43%    0.67%    0.53%    1.02%    0.35%    0.13%    0.00%
  8  1     8    1  |1 1>+         0.56%   16.60%    0.00%    0.32%    0.52%    3.95%    0.01%
  9  1     9    1  |1 1>+         0.00%    0.00%    9.68%   17.35%    5.35%    0.08%   15.55%
 10  1    10    1  |1 1>+         0.00%    0.00%    1.44%   16.94%    5.19%    0.01%   27.83%
 11  1    11    1  |1 1>+         0.00%    0.00%    1.47%    1.22%   29.76%    0.14%   15.34%
 12  1     1    1  |1 0>          0.00%    0.00%    0.00%    0.00%    0.00%    0.00%    0.00%
 13  1     2    1  |1 0>          0.00%    0.00%    0.00%    0.00%    0.00%    0.00%    0.00%
 14  1     3    1  |1 0>          0.00%    0.00%    0.00%    0.00%    0.00%    0.00%    0.00%
 15  1     4    1  |1 0>          0.02%    0.00%    0.61%    0.48%    1.43%    0.00%    0.00%
 16  1     5    1  |1 0>          0.03%    0.00%    1.26%    0.98%    2.96%    0.00%    0.00%
 17  1     6    1  |1 0>          1.96%   12.11%    0.07%    1.12%    0.18%    0.77%    1.89%
 18  1     7    1  |1 0>         29.01%    5.78%    1.17%    0.13%    0.25%    0.39%    0.98%
 19  1     8    1  |1 0>          4.23%   15.45%    0.22%    0.32%    0.39%    1.13%    2.52%
 20  1     9    1  |1 0>          0.00%    0.00%   13.32%   23.68%    0.17%    7.18%    2.14%
 21  1    10    1  |1 0>          0.00%    0.00%    2.48%   11.57%    9.19%   19.14%    9.21%
 22  1    11    1  |1 0>          0.00%    0.00%   17.69%    0.49%    9.76%   15.04%    6.30%
 23  1     1    1  |1 1>-         0.00%    0.00%    0.00%    0.00%    0.00%    0.00%    0.00%
 24  1     2    1  |1 1>-         0.00%    0.00%    0.00%    0.00%    0.00%    0.00%    0.00%
 25  1     3    1  |1 1>-         0.00%    0.00%    0.00%    0.00%    0.00%    0.00%    0.00%
 26  1     4    1  |1 1>-         0.28%    0.00%    0.06%    0.85%    0.48%    0.00%    0.00%
 27  1     5    1  |1 1>-         1.03%    0.00%    0.27%    3.84%    2.19%    0.01%    0.00%
 28  1     6    1  |1 1>-        10.09%    4.91%    0.06%    0.66%    0.96%    0.23%    0.86%
 29  1     7    1  |1 1>-         5.10%   26.95%    0.12%    0.10%    0.08%    1.27%    5.03%
 30  1     8    1  |1 1>-        14.97%    1.47%    1.66%    0.00%    0.21%    0.07%    0.24%
 31  1     9    1  |1 1>-         0.00%    0.00%    0.35%    8.14%   10.14%   27.54%    6.68%
 32  1    10    1  |1 1>-         0.00%    0.00%   39.36%    0.01%    4.52%    0.41%    0.05%
 33  1    11    1  |1 1>-         0.00%    0.00%    2.63%    9.02%   14.33%   18.86%    5.31%
 34  1     1    1  |0 0>          0.00%    0.00%    0.00%    0.00%    0.00%    0.02%    0.00%
 35  1     2    1  |0 0>          0.00%    0.00%    0.01%    0.01%    0.01%    0.00%    0.01%
 36  1     3    1  |0 0>          0.00%    0.00%    0.01%    0.00%    0.00%    0.00%    0.02%
 37  1     4    1  |0 0>          0.00%    0.00%    0.02%    0.01%    0.01%    0.00%    0.00%
 38  1     5    1  |0 0>          0.00%    0.00%    0.00%    0.01%    0.01%    0.01%    0.00%
 39  1     6    1  |0 0>          0.00%    0.00%    0.00%    0.00%    0.00%    0.00%    0.00%


 No matrix element <i|DMX|i> larger than 5E-7
 No matrix element <i|DMX|1> larger than 5E-7

 No matrix element <i|DMY|i> larger than 5E-7
 No matrix element <i|DMY|1> larger than 5E-7

 No matrix element <i|DMZ|i> larger than 5E-7
 No matrix element <i|DMZ|1> larger than 5E-7


 **********************************************************************************************************************************
 DATASETS  * FILE   NREC   LENGTH (MB)   RECORD NAMES
              1      24      230.10       500      610      700      900      950      970     1000      129      960     1700   
                                          VAR    BASINP    GEOM    SYMINP    ZMAT    AOBASIS   BASIS     P2S    ABASIS    OPER   
                                         1101     1401     1411     1412     1650     1100     1400     1410     1200     1210   
                                          SR      EKINR    POTR     PVPR    MOLCAS      S      EKIN      POT      H0       H01  
                                         1080     1600     1380     1700(1)
                                         AOSYM     SMH     JKOP     OPER   

              2       7      810.79       700     1000      520     2100     2140     5203     5201   
                                         GEOM     BASIS   MCVARS     RHF     MCSCF    MRCI     MRCI   

 PROGRAMS   *        TOTAL        CI        CI        CI     MULTI   RHF-SCF       INT
 CPU TIMES  *     67613.59  63874.41    627.02   3106.82      3.14      0.35      1.64
 REAL TIME  *     68239.26 SEC
 DISK USED  *       872.17 MB (local),       10.91 GB (total)
 SF USED    *         6.48 GB
 GA USED    *         0.00 MB       (max)       0.00 MB       (current)
 **********************************************************************************************************************************

 CI/aug-cc-pWCVTZ-DK3 energy=  -6174.214664490839

              CI              CI           MULTI         RHF-SCF
  -6174.30078860  -6174.17029830  -6173.66599467  -6172.96982975
 **********************************************************************************************************************************
 Molpro calculation terminated with 1 warning(s)
