
 Working directory              : /wrk/irikura/molpro.FTVf2sjyqd/
 Global scratch directory       : /wrk/irikura/molpro.FTVf2sjyqd/
 Wavefunction directory         : /home/irikura/wfu/
 Main file repository           : /wrk/irikura/molpro.FTVf2sjyqd/

 id        : nistki

 Nodes            nprocs
 pn112695.nist.gov   12
 GA implementation: MPI file
 GA implementation (serial work in mppx): MPI file

 Using customized tuning parameters: mindgm=1; mindgv=20; mindgc=4; mindgr=1; noblas=0; minvec=7
 default implementation of scratch files=sf  


 Variables initialized (1042), CPU time= 0.01 sec
 ***,Sn SO-CI
                                                                                 ! trying to get minimal problem demonstration
 memory,1300,M;
 
 gprint,orbitals,civector;
 
 symmetry,xyz
 geometry={Sn};
 
 basis=aug-cc-pwCVTZ-DK3
 
 set,dkho=101
 
                                                                                 ! spherical dication (1S) orbitals
 {rhf;wf,nelec=48,sym=1,spin=0}
 
 NTRIP=12
 NSING=6
 
                                                                                 ! (4/7) active space (s + 2*p)
 {multi
     occ,15,15
     wf,nelec=50,sym=1,spin=2;state,NTRIP;
     expec2,lxx,lyy,lzz;
     wf,nelec=50,sym=1,spin=0;state,NSING;
     expec2,lxx,lyy,lzz;
 }
 table, energy, ll
 title, Energies and &lt;L**2&gt; values
 
                                                                                 ! free KL shells
 core,8,6
 
 {ci;wf,sym=1,spin=2;state,NTRIP; save,5203.2}
 hlsdiag = energd4
 {ci;wf,sym=1,spin=0;state,NSING; save,5201.2}
 hlsdiag(NTRIP+1) = energd4
 
 table,hlsdiag
 
                                                                                 !lsint
 {ci;hlsmat,ls,5203.2,5201.2;print,vls=0,hls=0}                                  !compute and diagonalize SO matrix
 Commands initialized (847), CPU time= 0.01 sec, 718 directives.
 Default parameters read. Elapsed time= 0.18 sec

 Checking input...
 Passed
1


                                         ***  PROGRAM SYSTEM MOLPRO  ***
                                       Copyright, TTI GmbH Stuttgart, 2015
                                    Version 2024.1 linked Wed Jan 31 05:42:09 2024


 **********************************************************************************************************************************
 LABEL *   Sn SO-CI                                                                                                                                                      
  (32 PROC) 64 bit mpp version                                                           DATE: 10-May-24          TIME: 15:39:57  
 **********************************************************************************************************************************

 SHA1:             675817fde4514a4a933b69e420913a90cee4ef91
 **********************************************************************************************************************************

 Memory per process:      1300 MW
 Total memory per node:  15600 MW

 GA preallocation disabled
 GA check disabled

 Variable memory set to 1300.0 MW


 ZSYMEL=XYZ

 SETTING BASIS          =    AUG-CC-PWCVTZ-DK3
 SETTING DKHO           =       101.00000000                                  


 Recomputing integrals since basis changed


 Using spherical harmonics

 Library entry SN     S augccpwCVTZ-DK3      selected for orbital group  1
 Library entry SN     P augccpwCVTZ-DK3      selected for orbital group  1
 Library entry SN     D augccpwCVTZ-DK3      selected for orbital group  1
 Library entry SN     F augccpwCVTZ-DK3      selected for orbital group  1
 Library entry SN     G augccpwCVTZ-DK3      selected for orbital group  1


 PROGRAM * SEWARD (Integral evaluation for generally contracted gaussian basis sets)     Author: Roland Lindh, 1990

 Geometry written to block  1 of record 700

 Orientation using atomic masses  
 Molecule type: Atom
 User-specified symmetry elements: XYZ
 Symmetry elements: XYZ
 Rotational constants:       0.0000000      0.0000000      0.0000000 GHz  (calculated with average atomic masses)

 Point group  Ci  



 ATOMIC COORDINATES

 NR  ATOM    CHARGE       X              Y              Z

   1  SN     50.00    0.000000000    0.000000000    0.000000000

 NUCLEAR CHARGE:                   50
 NUMBER OF PRIMITIVE AOS:         240
 NUMBER OF SYMMETRY AOS:          207
 NUMBER OF CONTRACTIONS:          109   (   54Ag  +   55Au  )
 NUMBER OF INNER CORE ORBITALS:    14   (    8Ag  +    6Au  )
 NUMBER OF OUTER CORE ORBITALS:     9   (    6Ag  +    3Au  )
 NUMBER OF VALENCE ORBITALS:        4   (    1Ag  +    3Au  )


 NUCLEAR REPULSION ENERGY    0.00000000

 One-electron integrals computed with SEWARD

 eXact-2-Component (X2C) method activated

 Computing Douglas-Kroll / X2C integrals

 AO integral compression algorithm  1   Integral accuracy      1.0D-11

     21.496 MB (compressed) written to integral file ( 15.0%)

     Node minimum: 0.786 MB, node maximum: 3.932 MB


 NUMBER OF SORTED TWO-ELECTRON INTEGRALS:     760824.     BUFFER LENGTH:  32768
 NUMBER OF SEGMENTS:   1  SEGMENT LENGTH:     760824      RECORD LENGTH: 524288

 Memory used in sort:       1.32 MW

 SORT1 READ    18047686. AND WROTE      147789. INTEGRALS IN      1 RECORDS. CPU TIME:     0.08 SEC, REAL TIME:     0.08 SEC
 SORT2 READ     1830907. AND WROTE     9150625. INTEGRALS IN     60 RECORDS. CPU TIME:     0.02 SEC, REAL TIME:     0.02 SEC

 Node minimum:      760322.  Node maximum:      766291. integrals

 OPERATOR DM      FOR CENTER  0  COORDINATES:    0.000000    0.000000    0.000000

 EXTRA SYMMETRY OF AOS IN SYMMETRY 1:   1 1 1 1 1 1 1 1 1 1   2 3 4 5 6 2 3 4 5 6   2 3 4 5 6 2 3 4 5 6   2 3 4 5 6 2 3 4 5 6
                                        2 3 4 5 6 7 8 91011  12131415
 EXTRA SYMMETRY OF AOS IN SYMMETRY 2:   1 2 3 1 2 3 1 2 3 1   2 3 1 2 3 1 2 3 1 2   3 1 2 3 1 2 3 4 5 6   7 8 910 4 5 6 7 8 9
                                       10 4 5 6 7 8 910 4 5   6 7 8 910

 Eigenvalues of metric

         1 0.298E-04 0.111E-02 0.159E-01 0.167E-01 0.167E-01 0.167E-01 0.167E-01 0.167E-01
         2 0.242E-02 0.242E-02 0.242E-02 0.707E-02 0.707E-02 0.707E-02 0.951E-01 0.951E-01


 **********************************************************************************************************************************
 DATASETS  * FILE   NREC   LENGTH (MB)   RECORD NAMES
              1      22       29.27       500      610      700      900      950      970     1000      129      960     1700   
                                          VAR    BASINP    GEOM    SYMINP    ZMAT    AOBASIS   BASIS     P2S    ABASIS    OPER   
                                         1101     1401     1411     1412     1650     1100     1400     1410     1200     1210   
                                          SR      EKINR    POTR     PVPR    MOLCAS      S      EKIN      POT      H0       H01  
                                         1080     1600   
                                         AOSYM     SMH  

 PROGRAMS   *        TOTAL       INT
 CPU TIMES  *         2.00      1.73
 REAL TIME  *         2.73 SEC
 DISK USED  *        29.63 MB (local),      414.05 MB (total)
 GA USED    *         0.00 MB       (max)       0.00 MB       (current)
 **********************************************************************************************************************************


 Program * Restricted Hartree-Fock

 Orbital guess generated from atomic densities.

 Initial occupancy:  14  10

 NELEC=   48   SYM=1   MS2= 0   THRE=1.0D-08   THRD=3.2D-06   THRG=3.2D-06  HFMA2=F  DIIS_START=2   DIIS_MAX=10   DIIS_INCORE=F

 Level shifts:    0.00 (CLOSED)    0.00 (OPEN)    0.30 (GAP_MIN)

 ITER           ETOT              DE          GRAD        DDIFF     DIIS  NEXP   TIME(IT)  TIME(TOT)  DIAG
   1    -6084.60504268   -6084.60504268     0.00D+00     0.14D+01     0     0       0.01      0.02    start
   2    -6119.20716492     -34.60212224     0.54D+00     0.14D+01     1     0       0.00      0.02    diag
   3    -6169.62512300     -50.41795808     0.47D+00     0.21D+00     2     0       0.01      0.03    diag
   4    -6172.72282125      -3.09769825     0.11D+00     0.18D+00     3     0       0.00      0.03    diag
   5    -6172.96793599      -0.24511474     0.32D-01     0.27D-01     4     0       0.01      0.04    diag
   6    -6172.96981377      -0.00187777     0.24D-02     0.53D-02     5     0       0.00      0.04    diag
   7    -6172.96982923      -0.00001547     0.16D-03     0.23D-03     6     0       0.01      0.05    diag
   8    -6172.96982972      -0.00000049     0.41D-04     0.31D-04     7     0       0.00      0.05    fixocc
   9    -6172.96982975      -0.00000004     0.46D-05     0.18D-04     8     0       0.01      0.06    diag
  10    -6172.96982975      -0.00000000     0.27D-06     0.63D-06     9     0       0.00      0.06    diag/orth
  11    -6172.96982975       0.00000000     0.11D-07     0.41D-07     0     0       0.01      0.07    diag

 Final occupancy:  15   9

 !RHF STATE 1.1 Energy              -6172.969829754516
  RHF One-electron energy           -8458.981645824128
  RHF Two-electron energy            2286.011816069611
  RHF Kinetic energy                 7123.758090708948
  RHF Nuclear energy                    0.000000000000
  RHF Virial quotient                  -0.866532769804

 !RHF STATE 1.1 Dipole moment           0.00000000     0.00000000     0.00000000
 Dipole moment /Debye                   0.00000000     0.00000000     0.00000000

 ELECTRON ORBITALS
 =================

  Orbital  Occupation    Energy    Cen Mu Typ  Coefficients
    1.1     2.00000 -1079.04077     1  1  s    0.98900
    2.1     2.00000  -166.86501     1  2  s    1.07346
    3.1     2.00000   -34.18930     1  3  s    0.84465
    4.1     2.00000   -19.53200     1  1  d0   0.99996
    5.1     2.00000   -19.53200     1  1  d1+ -0.28221    1  1  d1-  0.95931
    6.1     2.00000   -19.53200     1  1  d1+  0.95931    1  1  d1-  0.28221
    7.1     2.00000   -19.53200     1  1  d2+  0.97202
    8.1     2.00000   -19.53200     1  1  d2-  0.97202
    9.1     2.00000    -6.52363     1  4  s    1.09168
   10.1     2.00000    -1.94645     1  2  d1+ -0.30500    1  2  d1-  0.95706
   11.1     2.00000    -1.94645     1  2  d1+  0.95706    1  2  d1-  0.30500
   12.1     2.00000    -1.94645     1  2  d0   1.00448
   13.1     2.00000    -1.94645     1  2  d2+  0.97642
   14.1     2.00000    -1.94645     1  2  d2-  0.97642
   15.1     2.00000    -1.05761     1  5  s    1.09341
    1.2     2.00000  -149.69231     1  1  pz   0.99999
    2.2     2.00000  -149.69231     1  1  px   0.87130    1  1  py  -0.49073
    3.2     2.00000  -149.69231     1  1  px   0.49073    1  1  py   0.87130
    4.2     2.00000   -28.42265     1  2  pz   1.00016
    5.2     2.00000   -28.42265     1  2  px  -0.25272    1  2  py   0.96770
    6.2     2.00000   -28.42265     1  2  px   0.96770    1  2  py   0.25272
    7.2     2.00000    -4.68852     1  3  pz   0.99711
    8.2     2.00000    -4.68852     1  3  py   0.98071
    9.2     2.00000    -4.68852     1  3  px   0.98071


 HOMO     15.1    -1.057606 =     -28.7789eV
 LUMO     10.2    -0.495066 =     -13.4714eV
 LUMO-HOMO         0.562541 =      15.3075eV

 Orbitals saved in record  2100.2


 **********************************************************************************************************************************
 DATASETS  * FILE   NREC   LENGTH (MB)   RECORD NAMES
              1      22       29.27       500      610      700      900      950      970     1000      129      960     1700   
                                          VAR    BASINP    GEOM    SYMINP    ZMAT    AOBASIS   BASIS     P2S    ABASIS    OPER   
                                         1101     1401     1411     1412     1650     1100     1400     1410     1200     1210   
                                          SR      EKINR    POTR     PVPR    MOLCAS      S      EKIN      POT      H0       H01  
                                         1080     1600   
                                         AOSYM     SMH  

              2       4        0.49       700     1000      520     2100   
                                         GEOM     BASIS   MCVARS     RHF  

 PROGRAMS   *        TOTAL   RHF-SCF       INT
 CPU TIMES  *         2.11      0.12      1.73
 REAL TIME  *         3.25 SEC
 DISK USED  *        30.26 MB (local),      421.70 MB (total)
 GA USED    *         0.00 MB       (max)       0.00 MB       (current)
 **********************************************************************************************************************************
 SETTING NTRIP          =        12.00000000                                  
 SETTING NSING          =         6.00000000                                  

 PROGRAM * MULTI (Direct Multiconfiguration SCF)       Authors: P.J. Knowles, H.-J. Werner (1984)
                                                                D.A. Kreplin, P.J. Knowles, H.-J. Werner (2019)

 Number of closed-shell orbitals:  23 (   14    9)
 Number of active  orbitals:        7 (    1    6)
 Number of external orbitals:      79 (   39   40)

 State symmetry 1

 Number of active electrons:   4    Spin symmetry=Triplet   Space symmetry=1
 Number of states:            12
 Number of CSFs:             120   (135 determinants, 245 intermediate states)

 State symmetry 2

 Number of active electrons:   4    Spin symmetry=Singlet   Space symmetry=1
 Number of states:             6
 Number of CSFs:             126   (261 determinants, 441 intermediate states)

 Molecular orbitals read from record     2100.2  Type=RHF/CANONICAL  
 *** IN SYMMETRY 1 ORBITAL  4 SYMMETRY CONTAMINATION OF 0.243D-02 HAS BEEN REMOVED
 *** IN SYMMETRY 1 ORBITAL  5 SYMMETRY CONTAMINATION OF 0.227D+00 HAS BEEN REMOVED
 *** IN SYMMETRY 1 ORBITAL  6 SYMMETRY CONTAMINATION OF 0.228D+00 HAS BEEN REMOVED
 *** IN SYMMETRY 1 ORBITAL  7 SYMMETRY CONTAMINATION OF 0.196D+00 HAS BEEN REMOVED
 *** IN SYMMETRY 1 ORBITAL  8 SYMMETRY CONTAMINATION OF 0.195D+00 HAS BEEN REMOVED
 *** IN SYMMETRY 1 ORBITAL 10 SYMMETRY CONTAMINATION OF 0.242D+00 HAS BEEN REMOVED
 *** IN SYMMETRY 1 ORBITAL 11 SYMMETRY CONTAMINATION OF 0.242D+00 HAS BEEN REMOVED
 *** IN SYMMETRY 1 ORBITAL 12 SYMMETRY CONTAMINATION OF 0.638D-03 HAS BEEN REMOVED
 *** IN SYMMETRY 1 ORBITAL 13 SYMMETRY CONTAMINATION OF 0.195D+00 HAS BEEN REMOVED
 *** IN SYMMETRY 1 ORBITAL 14 SYMMETRY CONTAMINATION OF 0.195D+00 HAS BEEN REMOVED

 EXTRA SYMMETRY OF MOS IN SYMMETRY 1:   1 1 1 2 6 4 5 3 1 6   4 2 5 3 1 1 2 6 4 5   3 1 2 6 4 5 3 1 2 6   4 5 3 2 6 4 5 3 1 7
                                       11 9 81214151310 2 6   4 5 3 1
 *** IN SYMMETRY 2 ORBITAL  1 SYMMETRY CONTAMINATION OF 0.822D-03 HAS BEEN REMOVED
 *** IN SYMMETRY 2 ORBITAL  2 SYMMETRY CONTAMINATION OF 0.361D+00 HAS BEEN REMOVED
 *** IN SYMMETRY 2 ORBITAL  3 SYMMETRY CONTAMINATION OF 0.360D+00 HAS BEEN REMOVED
 *** IN SYMMETRY 2 ORBITAL  4 SYMMETRY CONTAMINATION OF 0.176D-03 HAS BEEN REMOVED
 *** IN SYMMETRY 2 ORBITAL  5 SYMMETRY CONTAMINATION OF 0.207D+00 HAS BEEN REMOVED
 *** IN SYMMETRY 2 ORBITAL  6 SYMMETRY CONTAMINATION OF 0.207D+00 HAS BEEN REMOVED
 *** IN SYMMETRY 2 ORBITAL  7 SYMMETRY CONTAMINATION OF 0.175D-03 HAS BEEN REMOVED
 *** IN SYMMETRY 2 ORBITAL  8 SYMMETRY CONTAMINATION OF 0.155D+00 HAS BEEN REMOVED
 *** IN SYMMETRY 2 ORBITAL  9 SYMMETRY CONTAMINATION OF 0.155D+00 HAS BEEN REMOVED
 *** IN SYMMETRY 2 ORBITAL 10 SYMMETRY CONTAMINATION OF 0.169D+00 HAS BEEN REMOVED
 *** IN SYMMETRY 2 ORBITAL 11 SYMMETRY CONTAMINATION OF 0.169D+00 HAS BEEN REMOVED
 *** IN SYMMETRY 2 ORBITAL 12 SYMMETRY CONTAMINATION OF 0.199D-03 HAS BEEN REMOVED
 *** IN SYMMETRY 2 ORBITAL 13 SYMMETRY CONTAMINATION OF 0.181D-03 HAS BEEN REMOVED
 *** IN SYMMETRY 2 ORBITAL 14 SYMMETRY CONTAMINATION OF 0.163D+00 HAS BEEN REMOVED
 *** IN SYMMETRY 2 ORBITAL 15 SYMMETRY CONTAMINATION OF 0.163D+00 HAS BEEN REMOVED
 EXTRA SYMMETRY OF MOS IN SYMMETRY 2:   3 1 2 3 2 1 3 2 1 1   2 3 3 2 1 3 2 1 6 5   410 8 7 9 6 5 4 810   7 9 3 2 1 6 5 410 8
                                        7 9 3 2 1 6 5 410 8   9 7 2 1 3

 Wavefunction dump at record             2140.2

 Convergence thresholds  0.10E-04 (gradient)  0.10E-05 (energy)

 Weight factors for state symmetry  1:    0.05556   0.05556   0.05556   0.05556   0.05556   0.05556   0.05556   0.05556
                                          0.05556   0.05556   0.05556   0.05556
 Weight factors for state symmetry  2:    0.05556   0.05556   0.05556   0.05556   0.05556   0.05556
 
 Number of orbital rotations:  1253  ( 68 closed/active, 906 closed/virtual, 0 active/active, 279 active/virtual )
 Total number of variables:    4439
 
 Second-order MCSCF: L-BFGS accelerated
 
 ITER  MIC  NCI  NEG     ENERGY(VAR)    ENERGY(PROJ) ENERGY CHANGE       GRAD(0)  GRAD(ORB)   GRAD(CI)      STEP      TIME
   1    5    8    0  -6173.60864986   -6173.62586165   -0.01721180    0.18055373 0.00005583 0.00000000  0.39E+00      0.76
   2    7   12    0  -6173.62631524   -6173.62635260   -0.00003736    0.00670942 0.00000191 0.00000000  0.24E-01      1.73
   3    8   16    0  -6173.62635266   -6173.62635266   -0.00000000    0.00001606 0.00000000 0.00000000  0.57E-04      2.79
   4   14   28    0  -6173.62635266   -6173.62635266   -0.00000000    0.00000001 0.00000001 0.00000000  0.46E-07      3.92

 CONVERGENCE REACHED!  Final gradient:    0.00000001 ( 0.83E-08)
                       Final energy:  -6173.62635266
 
 Results for state 1.1 Triplet
 =============================
 !MCSCF STATE 1.1 Triplet Energy             -6173.729746161807
 Nuclear energy                                  0.00000000
 Kinetic energy                               7125.00286279
 One electron energy                         -8492.06856607
 Two electron energy                          2318.33881990
 Virial ratio                                    1.86648804
 
 !MCSCF STATE 1.1 Triplet Dipole moment          0.00000000     0.00000000     0.00000000
 Dipole moment /Debye                            0.00000000     0.00000000     0.00000000
 
 Results for state 2.1 Triplet
 =============================
 !MCSCF STATE 2.1 Triplet Energy             -6173.729746160876
 Nuclear energy                                  0.00000000
 Kinetic energy                               7125.00286284
 One electron energy                         -8492.06856628
 Two electron energy                          2318.33882011
 Virial ratio                                    1.86648804
 
 !MCSCF STATE 2.1 Triplet Dipole moment          0.00000000     0.00000000     0.00000000
 Dipole moment /Debye                            0.00000000     0.00000000     0.00000000
 
 Results for state 3.1 Triplet
 =============================
 !MCSCF STATE 3.1 Triplet Energy             -6173.729746159851
 Nuclear energy                                  0.00000000
 Kinetic energy                               7125.00286289
 One electron energy                         -8492.06856649
 Two electron energy                          2318.33882033
 Virial ratio                                    1.86648804
 
 !MCSCF STATE 3.1 Triplet Dipole moment          0.00000000     0.00000000     0.00000000
 Dipole moment /Debye                            0.00000000     0.00000000     0.00000000
 
 Results for state 4.1 Triplet
 =============================
 !MCSCF STATE 4.1 Triplet Energy             -6173.552443274612
 Nuclear energy                                  0.00000000
 Kinetic energy                               7123.87163258
 One electron energy                         -8480.97356482
 Two electron energy                          2307.42112154
 Virial ratio                                    1.86660074
 
 !MCSCF STATE 4.1 Triplet Dipole moment          0.00000000     0.00000000     0.00000000
 Dipole moment /Debye                            0.00000000     0.00000000     0.00000000
 
 Results for state 5.1 Triplet
 =============================
 !MCSCF STATE 5.1 Triplet Energy             -6173.552443274549
 Nuclear energy                                  0.00000000
 Kinetic energy                               7123.87163257
 One electron energy                         -8480.97356482
 Two electron energy                          2307.42112154
 Virial ratio                                    1.86660074
 
 !MCSCF STATE 5.1 Triplet Dipole moment          0.00000000     0.00000000     0.00000000
 Dipole moment /Debye                            0.00000000     0.00000000     0.00000000
 
 Results for state 6.1 Triplet
 =============================
 !MCSCF STATE 6.1 Triplet Energy             -6173.552443274095
 Nuclear energy                                  0.00000000
 Kinetic energy                               7123.87163256
 One electron energy                         -8480.97356478
 Two electron energy                          2307.42112151
 Virial ratio                                    1.86660074
 
 !MCSCF STATE 6.1 Triplet Dipole moment          0.00000000     0.00000000     0.00000000
 Dipole moment /Debye                            0.00000000     0.00000000     0.00000000
 
 Results for state 7.1 Triplet
 =============================
 !MCSCF STATE 7.1 Triplet Energy             -6173.552443273617
 Nuclear energy                                  0.00000000
 Kinetic energy                               7123.87163254
 One electron energy                         -8480.97356476
 Two electron energy                          2307.42112149
 Virial ratio                                    1.86660074
 
 !MCSCF STATE 7.1 Triplet Dipole moment          0.00000000     0.00000000     0.00000000
 Dipole moment /Debye                            0.00000000     0.00000000     0.00000000
 
 Results for state 8.1 Triplet
 =============================
 !MCSCF STATE 8.1 Triplet Energy             -6173.552443273536
 Nuclear energy                                  0.00000000
 Kinetic energy                               7123.87163254
 One electron energy                         -8480.97356475
 Two electron energy                          2307.42112148
 Virial ratio                                    1.86660074
 
 !MCSCF STATE 8.1 Triplet Dipole moment          0.00000000     0.00000000     0.00000000
 Dipole moment /Debye                            0.00000000     0.00000000     0.00000000
 
 Results for state 9.1 Triplet
 =============================
 !MCSCF STATE 9.1 Triplet Energy             -6173.545741062993
 Nuclear energy                                  0.00000000
 Kinetic energy                               7124.09736325
 One electron energy                         -8482.25651114
 Two electron energy                          2308.71077008
 Virial ratio                                    1.86657234
 
 !MCSCF STATE 9.1 Triplet Dipole moment          0.00000000     0.00000000     0.00000000
 Dipole moment /Debye                            0.00000000     0.00000000     0.00000000
 
 Results for state 10.1 Triplet
 ==============================
 !MCSCF STATE 10.1 Triplet Energy            -6173.545741062523
 Nuclear energy                                  0.00000000
 Kinetic energy                               7124.09736324
 One electron energy                         -8482.25651110
 Two electron energy                          2308.71077003
 Virial ratio                                    1.86657234
 
 !MCSCF STATE 10.1 Triplet Dipole moment         0.00000000     0.00000000     0.00000000
 Dipole moment /Debye                            0.00000000     0.00000000     0.00000000
 
 Results for state 11.1 Triplet
 ==============================
 !MCSCF STATE 11.1 Triplet Energy            -6173.545741061955
 Nuclear energy                                  0.00000000
 Kinetic energy                               7124.09736322
 One electron energy                         -8482.25651107
 Two electron energy                          2308.71077001
 Virial ratio                                    1.86657234
 
 !MCSCF STATE 11.1 Triplet Dipole moment         0.00000000     0.00000000     0.00000000
 Dipole moment /Debye                            0.00000000     0.00000000     0.00000000
 
 Results for state 12.1 Triplet
 ==============================
 !MCSCF STATE 12.1 Triplet Energy            -6173.544905634522
 Nuclear energy                                  0.00000000
 Kinetic energy                               7123.87035709
 One electron energy                         -8480.96826483
 Two electron energy                          2307.42335920
 Virial ratio                                    1.86659984
 
 !MCSCF STATE 12.1 Triplet Dipole moment         0.00000000     0.00000000     0.00000000
 Dipole moment /Debye                            0.00000000     0.00000000     0.00000000
 
 Results for state 1.1 Singlet
 =============================
 !MCSCF STATE 1.1 Singlet Energy             -6173.695020019936
 Nuclear energy                                  0.00000000
 Kinetic energy                               7124.88739467
 One electron energy                         -8491.34249324
 Two electron energy                          2317.64747322
 Virial ratio                                    1.86649721
 
 !MCSCF STATE 1.1 Singlet Dipole moment          0.00000000     0.00000000     0.00000000
 Dipole moment /Debye                            0.00000000     0.00000000     0.00000000
 
 Results for state 2.1 Singlet
 =============================
 !MCSCF STATE 2.1 Singlet Energy             -6173.695020019763
 Nuclear energy                                  0.00000000
 Kinetic energy                               7124.88739468
 One electron energy                         -8491.34249327
 Two electron energy                          2317.64747325
 Virial ratio                                    1.86649721
 
 !MCSCF STATE 2.1 Singlet Dipole moment          0.00000000     0.00000000     0.00000000
 Dipole moment /Debye                            0.00000000     0.00000000     0.00000000
 
 Results for state 3.1 Singlet
 =============================
 !MCSCF STATE 3.1 Singlet Energy             -6173.695020018628
 Nuclear energy                                  0.00000000
 Kinetic energy                               7124.88739473
 One electron energy                         -8491.34249346
 Two electron energy                          2317.64747344
 Virial ratio                                    1.86649721
 
 !MCSCF STATE 3.1 Singlet Dipole moment          0.00000000     0.00000000     0.00000000
 Dipole moment /Debye                            0.00000000     0.00000000     0.00000000
 
 Results for state 4.1 Singlet
 =============================
 !MCSCF STATE 4.1 Singlet Energy             -6173.695020017410
 Nuclear energy                                  0.00000000
 Kinetic energy                               7124.88739478
 One electron energy                         -8491.34249365
 Two electron energy                          2317.64747363
 Virial ratio                                    1.86649721
 
 !MCSCF STATE 4.1 Singlet Dipole moment          0.00000000     0.00000000     0.00000000
 Dipole moment /Debye                            0.00000000     0.00000000     0.00000000
 
 Results for state 5.1 Singlet
 =============================
 !MCSCF STATE 5.1 Singlet Energy             -6173.695020017218
 Nuclear energy                                  0.00000000
 Kinetic energy                               7124.88739479
 One electron energy                         -8491.34249368
 Two electron energy                          2317.64747366
 Virial ratio                                    1.86649721
 
 !MCSCF STATE 5.1 Singlet Dipole moment          0.00000000     0.00000000     0.00000000
 Dipole moment /Debye                            0.00000000     0.00000000     0.00000000
 
 Results for state 6.1 Singlet
 =============================
 !MCSCF STATE 6.1 Singlet Energy             -6173.665664048503
 Nuclear energy                                  0.00000000
 Kinetic energy                               7124.71442236
 One electron energy                         -8490.37011647
 Two electron energy                          2316.70445242
 Virial ratio                                    1.86651412
 
 !MCSCF STATE 6.1 Singlet Dipole moment          0.00000000     0.00000000     0.00000000
 Dipole moment /Debye                            0.00000000     0.00000000     0.00000000
 
 State-averaged charge density matrix saved on record 2140.2 (density set 1)
 
 No non-zero expectation values
 
 Expectation values for two-electron operators:
 
 ? Warning
 ? Transition properties are only calculated between states of the same symmetry
 ? The problem occurs in mu_properties_expec2

 !MCSCF expec      <1.1 Triplet|LXLX|1.1 Triplet>     1.000000000000
 !MCSCF expec      <2.1 Triplet|LXLX|2.1 Triplet>     0.000000000001
 !MCSCF expec      <3.1 Triplet|LXLX|3.1 Triplet>     0.999999999999
 !MCSCF expec      <4.1 Triplet|LXLX|4.1 Triplet>     2.029744184069
 !MCSCF expec      <5.1 Triplet|LXLX|5.1 Triplet>     1.000000000293
 !MCSCF expec      <6.1 Triplet|LXLX|6.1 Triplet>     3.999999999598
 !MCSCF expec      <7.1 Triplet|LXLX|7.1 Triplet>     1.000000000000
 !MCSCF expec      <8.1 Triplet|LXLX|8.1 Triplet>     1.970258645326
 !MCSCF expec      <9.1 Triplet|LXLX|9.1 Triplet>     1.000000000000
 !MCSCF expec    <10.1 Triplet|LXLX|10.1 Triplet>     0.000000000000
 !MCSCF expec    <11.1 Triplet|LXLX|11.1 Triplet>     1.000000000000
 !MCSCF expec    <12.1 Triplet|LXLX|12.1 Triplet>     0.000000000000
 !MCSCF expec      <1.1 Singlet|LXLX|1.1 Singlet>     2.041248979017
 !MCSCF expec      <2.1 Singlet|LXLX|2.1 Singlet>     1.000000000000
 !MCSCF expec      <3.1 Singlet|LXLX|3.1 Singlet>     3.999999999998
 !MCSCF expec      <4.1 Singlet|LXLX|4.1 Singlet>     1.000000000079
 !MCSCF expec      <5.1 Singlet|LXLX|5.1 Singlet>     1.958751714930
 !MCSCF expec      <6.1 Singlet|LXLX|6.1 Singlet>     0.000000000000
 
 !MCSCF expec      <1.1 Triplet|LYLY|1.1 Triplet>     0.999999999991
 !MCSCF expec      <2.1 Triplet|LYLY|2.1 Triplet>     0.999999999999
 !MCSCF expec      <3.1 Triplet|LYLY|3.1 Triplet>     0.000000000010
 !MCSCF expec      <4.1 Triplet|LYLY|4.1 Triplet>     3.716987157906
 !MCSCF expec      <5.1 Triplet|LYLY|5.1 Triplet>     3.999999999923
 !MCSCF expec      <6.1 Triplet|LYLY|6.1 Triplet>     1.000000000063
 !MCSCF expec      <7.1 Triplet|LYLY|7.1 Triplet>     1.000000000000
 !MCSCF expec      <8.1 Triplet|LYLY|8.1 Triplet>     0.283011390795
 !MCSCF expec      <9.1 Triplet|LYLY|9.1 Triplet>     0.000000000000
 !MCSCF expec    <10.1 Triplet|LYLY|10.1 Triplet>     1.000000000000
 !MCSCF expec    <11.1 Triplet|LYLY|11.1 Triplet>     1.000000000000
 !MCSCF expec    <12.1 Triplet|LYLY|12.1 Triplet>     0.000000000000
 !MCSCF expec      <1.1 Singlet|LYLY|1.1 Singlet>     0.247693123015
 !MCSCF expec      <2.1 Singlet|LYLY|2.1 Singlet>     1.000000000016
 !MCSCF expec      <3.1 Singlet|LYLY|3.1 Singlet>     0.999999999985
 !MCSCF expec      <4.1 Singlet|LYLY|4.1 Singlet>     3.999999999951
 !MCSCF expec      <5.1 Singlet|LYLY|5.1 Singlet>     3.752306542418
 !MCSCF expec      <6.1 Singlet|LYLY|6.1 Singlet>    -0.000000000000
 
 !MCSCF expec      <1.1 Triplet|LZLZ|1.1 Triplet>     0.000000000009
 !MCSCF expec      <2.1 Triplet|LZLZ|2.1 Triplet>     1.000000000000
 !MCSCF expec      <3.1 Triplet|LZLZ|3.1 Triplet>     0.999999999991
 !MCSCF expec      <4.1 Triplet|LZLZ|4.1 Triplet>     0.253268658025
 !MCSCF expec      <5.1 Triplet|LZLZ|5.1 Triplet>     0.999999999785
 !MCSCF expec      <6.1 Triplet|LZLZ|6.1 Triplet>     1.000000000338
 !MCSCF expec      <7.1 Triplet|LZLZ|7.1 Triplet>     4.000000000000
 !MCSCF expec      <8.1 Triplet|LZLZ|8.1 Triplet>     3.746729963879
 !MCSCF expec      <9.1 Triplet|LZLZ|9.1 Triplet>     1.000000000000
 !MCSCF expec    <10.1 Triplet|LZLZ|10.1 Triplet>     1.000000000000
 !MCSCF expec    <11.1 Triplet|LZLZ|11.1 Triplet>     0.000000000000
 !MCSCF expec    <12.1 Triplet|LZLZ|12.1 Triplet>     0.000000000000
 !MCSCF expec      <1.1 Singlet|LZLZ|1.1 Singlet>     3.711057897968
 !MCSCF expec      <2.1 Singlet|LZLZ|2.1 Singlet>     3.999999999984
 !MCSCF expec      <3.1 Singlet|LZLZ|3.1 Singlet>     1.000000000017
 !MCSCF expec      <4.1 Singlet|LZLZ|4.1 Singlet>     0.999999999970
 !MCSCF expec      <5.1 Singlet|LZLZ|5.1 Singlet>     0.288941742652
 !MCSCF expec      <6.1 Singlet|LZLZ|6.1 Singlet>     0.000000000000
 
 !MCSCF expec      <1.1 Triplet|L**2|1.1 Triplet>     2.000000000000
 !MCSCF expec      <2.1 Triplet|L**2|2.1 Triplet>     2.000000000000
 !MCSCF expec      <3.1 Triplet|L**2|3.1 Triplet>     2.000000000000
 !MCSCF expec      <4.1 Triplet|L**2|4.1 Triplet>     6.000000000000
 !MCSCF expec      <5.1 Triplet|L**2|5.1 Triplet>     6.000000000000
 !MCSCF expec      <6.1 Triplet|L**2|6.1 Triplet>     6.000000000000
 !MCSCF expec      <7.1 Triplet|L**2|7.1 Triplet>     6.000000000000
 !MCSCF expec      <8.1 Triplet|L**2|8.1 Triplet>     6.000000000000
 !MCSCF expec      <9.1 Triplet|L**2|9.1 Triplet>     2.000000000000
 !MCSCF expec    <10.1 Triplet|L**2|10.1 Triplet>     2.000000000000
 !MCSCF expec    <11.1 Triplet|L**2|11.1 Triplet>     2.000000000000
 !MCSCF expec    <12.1 Triplet|L**2|12.1 Triplet>     0.000000000000
 !MCSCF expec      <1.1 Singlet|L**2|1.1 Singlet>     6.000000000000
 !MCSCF expec      <2.1 Singlet|L**2|2.1 Singlet>     6.000000000000
 !MCSCF expec      <3.1 Singlet|L**2|3.1 Singlet>     6.000000000000
 !MCSCF expec      <4.1 Singlet|L**2|4.1 Singlet>     6.000000000000
 !MCSCF expec      <5.1 Singlet|L**2|5.1 Singlet>     6.000000000000
 !MCSCF expec      <6.1 Singlet|L**2|6.1 Singlet>     0.000000000000
 
 EXTRA SYMMETRY OF MOS IN SYMMETRY 1:   1 1 1 3 5 4 2 6 1 5   3 4 2 6 1 1 3 5 4 2   6 1 4 5 3 2 6 1 3 5   4 2 6 3 5 4 2 6 110
                                       131415 9 812 711 2 3   5 4 6 1
 EXTRA SYMMETRY OF MOS IN SYMMETRY 2:   1 2 3 1 2 3 1 2 3 3   2 1 2 3 1 1 2 3 9 7   4 810 6 5 3 1 2 9 7   410 8 6 5 9 7 410 8
                                        6 5 1 2 3 9 7 810 4   6 5 1 2 3
 
  NATURAL ORBITALS (STATE AVERAGED)
  =================================

  Orbital  Occupation    Energy    Cen Mu Typ  Coefficients
    1.1     2.00000 -1078.47625     1  1  s    0.98900
    2.1     2.00000  -166.30407     1  2  s    1.07350
    3.1     2.00000   -33.62995     1  3  s    0.84457
    4.1     2.00000   -18.97293     1  1  d2-  0.99998
    5.1     2.00000   -18.97293     1  1  d2+  0.99998
    6.1     2.00000   -18.97293     1  1  d1+  0.99998
    7.1     2.00000   -18.97293     1  1  d0   0.99998
    8.1     2.00000   -18.97293     1  1  d1-  0.99998
    9.1     2.00000    -5.96627     1  4  s    1.09178
   10.1     2.00000    -1.39155     1  2  d2+  1.00076
   11.1     2.00000    -1.39155     1  2  d2-  1.00076
   12.1     2.00000    -1.39155     1  2  d1+  1.00076
   13.1     2.00000    -1.39155     1  2  d0   1.00076
   14.1     2.00000    -1.39155     1  2  d1-  1.00076
   15.1     1.95546    -0.56692     1  5  s    1.07329
    1.2     2.00000  -149.13162     1  1  px   0.99999
    2.2     2.00000  -149.13162     1  1  py   0.99999
    3.2     2.00000  -149.13162     1  1  pz   0.99999
    4.2     2.00000   -27.86444     1  2  px   1.00021
    5.2     2.00000   -27.86444     1  2  py   1.00021
    6.2     2.00000   -27.86444     1  2  pz   1.00021
    7.2     2.00000    -4.13330     1  3  px   0.99923
    8.2     2.00000    -4.13330     1  3  py   0.99923
    9.2     2.00000    -4.13330     1  3  pz   0.99923
   10.2     0.51181    -0.10477     1  4  pz   1.06861
   11.2     0.51181    -0.10477     1  4  py   1.06861
   12.2     0.51181    -0.10477     1  4  px   1.06861
   13.2     0.16970     0.04580     1  4  py  -0.46626    1  9  py   1.19229
   14.2     0.16970     0.04580     1  4  pz  -0.46626    1  9  pz   1.19229
   15.2     0.16970     0.04580     1  4  px  -0.46626    1  9  px   1.19229
 
 Natural orbital dump (state averaged) at molpro section 2140.2 (Orbital set 2)
 
 Transform the CI vectors
 
 CI Coefficients of symmetry 1 (Triplet)
 =======================================

 State:              1               2               3               4               5               6               7
 2 a0a000      -0.00000297      0.00000080      0.99172651     -0.00000000     -0.00000001     -0.00000000      0.00000000
 2 aa0000      -0.00000026      0.99172651     -0.00000080     -0.00000000     -0.00000000     -0.00000000     -0.00000000
 2 0aa000       0.99172651      0.00000026      0.00000297     -0.00000000      0.00000000      0.00000000     -0.00000000
 2 a000a0       0.00000000     -0.00000000      0.00000000      0.78023953     -0.00002675     -0.00000374      0.00000033
 2 0a0a00       0.00000000     -0.00000000     -0.00000000     -0.21443942      0.00000707      0.00000848     -0.00000009
 2 0a00a0       0.00000000     -0.00954567      0.00000001      0.00000147      0.00000080      0.69817177      0.00000006
 2 00a0a0       0.00000003     -0.00000001     -0.00954568      0.00002401      0.69817176     -0.00000080     -0.00000006
 2 0a000a       0.00954568      0.00000000      0.00000003     -0.00000030      0.00000006     -0.00000006      0.69817176
 2 00aa00      -0.00954568     -0.00000000     -0.00000003     -0.00000030      0.00000006     -0.00000006      0.69817174
 2 a0000a      -0.00000003      0.00000001      0.00954568      0.00002401      0.69817174     -0.00000080     -0.00000006
 2 a00a00      -0.00000000      0.00954568     -0.00000001      0.00000147      0.00000080      0.69817173      0.00000006
 2 00a00a      -0.00000000      0.00000000      0.00000000     -0.56579996      0.00001969     -0.00000474     -0.00000024
 2 000aa0      -0.00000000      0.01875416     -0.00000002      0.00000000      0.00000000     -0.00000000      0.00000000
 2 0000aa       0.00000006     -0.00000002     -0.01875416      0.00000000      0.00000000     -0.00000000      0.00000000
 2 000a0a      -0.01875416     -0.00000000     -0.00000006     -0.00000000      0.00000000      0.00000000     -0.00000000
 0 2aa000      -0.11557435     -0.00000003     -0.00000035      0.00000000     -0.00000000      0.00000000      0.00000000
 0 aa2000       0.00000003     -0.11557435      0.00000009      0.00000000      0.00000000      0.00000000      0.00000000
 0 a2a000       0.00000035     -0.00000009     -0.11557434      0.00000000      0.00000000      0.00000000     -0.00000000
 0 a200a0      -0.00000000      0.00000000      0.00000000     -0.08426856      0.00000289      0.00000040     -0.00000004
 0 2a0a00      -0.00000000      0.00000000      0.00000000      0.02241570     -0.00000074     -0.00000091      0.00000001
 0 a020a0       0.00000000      0.00000000     -0.00000000     -0.08390590      0.00000288      0.00000041     -0.00000004
 0 0a2a00      -0.00000000      0.00000000      0.00000000      0.02380502     -0.00000079     -0.00000091      0.00000001
 0 2a000a       0.00092402      0.00000000      0.00000000      0.00000003     -0.00000001      0.00000001     -0.07560301
 0 0a20a0       0.00000000     -0.00092402      0.00000000     -0.00000016     -0.00000009     -0.07560301     -0.00000001
 0 20aa00      -0.00092402     -0.00000000     -0.00000000      0.00000003     -0.00000001      0.00000001     -0.07560301
 0 02a0a0       0.00000000     -0.00000000     -0.00092402     -0.00000260     -0.07560301      0.00000009      0.00000001
 0 a02a00      -0.00000000      0.00092402     -0.00000000     -0.00000016     -0.00000009     -0.07560301     -0.00000001
 0 a2000a      -0.00000000      0.00000000      0.00092402     -0.00000260     -0.07560301      0.00000009      0.00000001
 0 2a00a0      -0.00000001      0.02419568     -0.00000002     -0.00000016     -0.00000009     -0.07488239     -0.00000001
 0 20a0a0      -0.00000007      0.00000002      0.02419568     -0.00000258     -0.07488239      0.00000009      0.00000001
 0 0a200a      -0.02419568     -0.00000001     -0.00000007      0.00000003     -0.00000001      0.00000001     -0.07488239
 0 a0200a       0.00000007     -0.00000002     -0.02419568     -0.00000258     -0.07488239      0.00000009      0.00000001
 0 02aa00       0.02419568      0.00000001      0.00000007      0.00000003     -0.00000001      0.00000001     -0.07488238
 0 a20a00       0.00000001     -0.02419568      0.00000002     -0.00000016     -0.00000009     -0.07488238     -0.00000001
 0 20a00a       0.00000000     -0.00000000     -0.00000000      0.06046352     -0.00000210      0.00000052      0.00000003
 0 02a00a       0.00000000     -0.00000000     -0.00000000      0.06149019     -0.00000214      0.00000050      0.00000003
 
 Energy:    -6173.72974616  -6173.72974616  -6173.72974616  -6173.55244327  -6173.55244327  -6173.55244327  -6173.55244327

 State:              8               9              10              11              12
 2 a0a000       0.00000000     -0.01845320     -0.00000001     -0.00000001     -0.00000000
 2 aa0000       0.00000000      0.00000001     -0.01845320      0.00000000      0.00000000
 2 0aa000      -0.00000000      0.00000001     -0.00000000     -0.01845320      0.00000000
 2 a000a0      -0.20285816     -0.00000000     -0.00000000     -0.00000000      0.56987122
 2 0a0a00       0.77713622     -0.00000000      0.00000000     -0.00000000      0.56987139
 2 0a00a0      -0.00000722      0.00000029     -0.69256309      0.00000000      0.00000000
 2 00a0a0       0.00000028     -0.69256310     -0.00000029     -0.00000028     -0.00000000
 2 0a000a      -0.00000000     -0.00000028      0.00000000      0.69256310     -0.00000000
 2 00aa00      -0.00000000      0.00000028     -0.00000000     -0.69256312     -0.00000000
 2 a0000a       0.00000028      0.69256313      0.00000029      0.00000028      0.00000000
 2 a00a00      -0.00000722     -0.00000029      0.69256313     -0.00000000     -0.00000000
 2 00a00a      -0.57427821     -0.00000000      0.00000000      0.00000000      0.56987131
 2 000aa0      -0.00000000     -0.00000005      0.12758280     -0.00000000     -0.00000000
 2 0000aa       0.00000000     -0.12758280     -0.00000005     -0.00000005     -0.00000000
 2 000a0a      -0.00000000      0.00000005     -0.00000000     -0.12758280     -0.00000000
 0 2aa000      -0.00000000     -0.00000000      0.00000000      0.00738324     -0.00000000
 0 aa2000      -0.00000000     -0.00000000      0.00738324     -0.00000000     -0.00000000
 0 a2a000       0.00000000      0.00738324      0.00000000      0.00000000      0.00000000
 0 a200a0       0.02116480      0.00000000      0.00000000      0.00000000     -0.06223001
 0 2a0a00      -0.08394447      0.00000000     -0.00000000      0.00000000     -0.06223003
 0 a020a0       0.02255967      0.00000000      0.00000000      0.00000000     -0.06223001
 0 0a2a00      -0.08356110      0.00000000     -0.00000000      0.00000000     -0.06223003
 0 2a000a       0.00000000      0.00000003     -0.00000000     -0.07559650      0.00000000
 0 0a20a0       0.00000078     -0.00000003      0.07559650     -0.00000000     -0.00000000
 0 20aa00       0.00000000     -0.00000003      0.00000000      0.07559650      0.00000000
 0 02a0a0      -0.00000003      0.07559650      0.00000003      0.00000003      0.00000000
 0 a02a00       0.00000078      0.00000003     -0.07559650      0.00000000      0.00000000
 0 a2000a      -0.00000003     -0.07559650     -0.00000003     -0.00000003     -0.00000000
 0 2a00a0       0.00000077     -0.00000003      0.07259152     -0.00000000     -0.00000000
 0 20a0a0      -0.00000003      0.07259152      0.00000003      0.00000003      0.00000000
 0 0a200a       0.00000000      0.00000003     -0.00000000     -0.07259152      0.00000000
 0 a0200a      -0.00000003     -0.07259152     -0.00000003     -0.00000003     -0.00000000
 0 02aa00       0.00000000     -0.00000003      0.00000000      0.07259152      0.00000000
 0 a20a00       0.00000077      0.00000003     -0.07259152      0.00000000      0.00000000
 0 20a00a       0.06239632      0.00000000     -0.00000000     -0.00000000     -0.06223002
 0 02a00a       0.06138481      0.00000000     -0.00000000     -0.00000000     -0.06223001
 
 Energy:    -6173.55244327  -6173.54574106  -6173.54574106  -6173.54574106  -6173.54490563
 
 
 CI Coefficients of symmetry 1 (Singlet)
 =======================================
 
 2 020000       0.78141939     -0.00000113      0.00000553      0.00000164     -0.20076686      0.55691521
 2 200000      -0.21684048      0.00000006     -0.00000513     -0.00000548      0.77711241      0.55691529
 2 ab0000      -0.00000404      0.00000006      0.69870785      0.00000038      0.00000349      0.00000000
 2 ba0000       0.00000404     -0.00000006     -0.69870785     -0.00000038     -0.00000349     -0.00000000
 2 0ab000       0.00000108      0.69870785     -0.00000006      0.00000160      0.00000024     -0.00000000
 2 0ba000      -0.00000108     -0.69870785      0.00000006     -0.00000160     -0.00000024      0.00000000
 2 b0a000       0.00000022      0.00000160      0.00000038     -0.69870785     -0.00000487      0.00000000
 2 a0b000      -0.00000022     -0.00000160     -0.00000038      0.69870785      0.00000487     -0.00000000
 2 002000      -0.56457884      0.00000107     -0.00000039      0.00000384     -0.57634563      0.55691525
 0 202000       0.09082830     -0.00000013      0.00000064      0.00000019     -0.02333613     -0.12458811
 0 220000      -0.06562385      0.00000012     -0.00000005      0.00000045     -0.06699154     -0.12458810
 0 022000      -0.02520447      0.00000001     -0.00000060     -0.00000064      0.09032769     -0.12458810
 0 2ba000       0.00000013      0.08121433     -0.00000001      0.00000019      0.00000003     -0.00000000
 0 2ab000      -0.00000013     -0.08121433      0.00000001     -0.00000019     -0.00000003      0.00000000
 0 ab2000       0.00000047     -0.00000001     -0.08121433     -0.00000004     -0.00000041     -0.00000000
 0 ba2000      -0.00000047      0.00000001      0.08121433      0.00000004      0.00000041      0.00000000
 0 b2a000      -0.00000003     -0.00000019     -0.00000004      0.08121432      0.00000057     -0.00000000
 0 a2b000       0.00000003      0.00000019      0.00000004     -0.08121432     -0.00000057      0.00000000
 2 a000b0      -0.01218006      0.00000000     -0.00000029     -0.00000031      0.04365087      0.05735161
 2 b000a0       0.01218006     -0.00000000      0.00000029      0.00000031     -0.04365087     -0.05735161
 2 00a00b      -0.03171273      0.00000006     -0.00000002      0.00000022     -0.03237368      0.05735161
 2 00b00a       0.03171273     -0.00000006      0.00000002     -0.00000022      0.03237368     -0.05735161
 2 0a0b00       0.04389279     -0.00000006      0.00000031      0.00000009     -0.01127719      0.05735160
 2 0b0a00      -0.04389279      0.00000006     -0.00000031     -0.00000009      0.01127719     -0.05735160
 
 Energy:    -6173.69502002  -6173.69502002  -6173.69502002  -6173.69502002  -6173.69502002  -6173.66566405
 


 **********************************************************************************************************************************
 DATASETS  * FILE   NREC   LENGTH (MB)   RECORD NAMES
              1      24       61.22       500      610      700      900      950      970     1000      129      960     1700   
                                          VAR    BASINP    GEOM    SYMINP    ZMAT    AOBASIS   BASIS     P2S    ABASIS    OPER   
                                         1101     1401     1411     1412     1650     1100     1400     1410     1200     1210   
                                          SR      EKINR    POTR     PVPR    MOLCAS      S      EKIN      POT      H0       H01  
                                         1080     1600     1380     1700(1)
                                         AOSYM     SMH     JKOP     OPER   

              2       5        0.82       700     1000      520     2100     2140   
                                         GEOM     BASIS   MCVARS     RHF     MCSCF   

 PROGRAMS   *        TOTAL     MULTI   RHF-SCF       INT
 CPU TIMES  *         5.81      3.69      0.12      1.73
 REAL TIME  *         7.71 SEC
 DISK USED  *        62.13 MB (local),      804.08 MB (total)
 SF USED    *        77.59 MB
 GA USED    *         0.00 MB       (max)       0.00 MB       (current)
 **********************************************************************************************************************************

 Energies and &lt;L**2&gt; values

          ENERGY    LL
    -6173.729746   2.0
    -6173.729746   2.0
    -6173.729746   2.0
    -6173.552443   6.0
    -6173.552443   6.0
    -6173.552443   6.0
    -6173.552443   6.0
    -6173.552443   6.0
    -6173.545741   2.0
    -6173.545741   2.0
    -6173.545741   2.0
    -6173.544906   0.0
    -6173.695020   6.0
    -6173.695020   6.0
    -6173.695020   6.0
    -6173.695020   6.0
    -6173.695020   6.0
    -6173.665664   0.0
                                                  


 PROGRAM * CI (Multireference internally contracted CI)     Authors: H.-J. Werner, P.J. Knowles, 1987


 Convergence thresholds:  THRVAR = 1.00D-08  THRDEN = 1.00D-06

 Number of optimized states: 12  Roots:   1   2   3   4   5   6   7   8   9  10  11  12
 Number of reference states: 12  Roots:   1   2   3   4   5   6   7   8   9  10  11  12

 Reference symmetry:                   1   Triplet 
 Number of electrons:                 50
 Maximum number of shells:             5
 Maximum number of spin couplings:    90

 Reference space:       90 conf      120 CSFs
 N elec internal:    18284 conf    76944 CSFs
 N-1 el internal:    12821 conf    88545 CSFs
 N-2 el internal:     4717 conf    46537 CSFs

 Number of electrons in valence space:                     22
 Maximum number of open shell orbitals in reference space:  4
 Maximum number of open shell orbitals in internal spaces: 10


 Number of core orbitals:          14 (   8   6 )
 Number of closed-shell orbitals:   9 (   6   3 )
 Number of active  orbitals:        7 (   1   6 )
 Number of external orbitals:      79 (  39  40 )

 Molecular orbitals read from record     2140.2  Type=MCSCF/NATURAL (state averaged)

 Integral transformation finished. Total CPU:   0.08 sec, npass=  1  Memory used:   1.05 MW


 Number of p-space configurations:  15

 Reference wavefunction optimized for reference space (refopt=1)

 State     Reference Energy 
     1     -6173.72974616
     2     -6173.72974616
     3     -6173.72974616
     4     -6173.55244327
     5     -6173.55244327
     6     -6173.55244327
     7     -6173.55244327
     8     -6173.55244327
     9     -6173.54574106
    10     -6173.54574106
    11     -6173.54574106
    12     -6173.54490563

 ?WARNING: SMALL EIGENVALUE OF PAIR OVERLAP MATRIX:  0.2320D-06

 Number of blocks in overlap matrix:  1073   Smallest eigenvalue:  0.23D-06
 Number of N-2 electron functions:    2547
 Number of N-1 electron functions:   88545

 Number of internal configurations:                38406
 Number of singly external configurations:       3497694
 Number of doubly external configurations:       3977340
 Total number of contracted configurations:      7513440
 Total number of uncontracted configurations:   75813963

 Diagonal Coupling coefficients finished.               Storage:  25507163 words, CPU-Time:     80.36 seconds.
 Energy denominators for pairs finished in 1 passes.    Storage:   1337578 words, CPU-time:      0.18 seconds.

  ITER. STATE  ROOT     SQ.NORM     CORR.ENERGY   TOTAL ENERGY   ENERGY CHANGE       DEN1      VAR(S)    VAR(P)      TIME
    1     1     1     1.00000000     0.00000000 -6173.72974616     0.00000000    -0.78827292  0.50D-01  0.98D-01    93.96
    1     2     2     1.00000000     0.00000000 -6173.72974616    -0.00000000    -0.78833621  0.50D-01  0.98D-01    93.96
    1     3     3     1.00000000     0.00000000 -6173.72974616    -0.00000000    -0.78841423  0.50D-01  0.98D-01    93.96
    1     4     4     1.00000000     0.00000000 -6173.55244327     0.00000000    -0.75500053  0.39D-01  0.89D-01    93.96
    1     5     5     1.00000000     0.00000000 -6173.55244327     0.00000000    -0.75473906  0.39D-01  0.89D-01    93.96
    1     6     6     1.00000000     0.00000000 -6173.55244327     0.00000000    -0.75480602  0.39D-01  0.89D-01    93.96
    1     7     7     1.00000000     0.00000000 -6173.55244327     0.00000000    -0.75471834  0.39D-01  0.89D-01    93.96
    1     8     8     1.00000000     0.00000000 -6173.55244327     0.00000000    -0.75507647  0.39D-01  0.89D-01    93.96
    1     9     9     1.00000000     0.00000000 -6173.54574106     0.00000000    -0.76104995  0.44D-01  0.90D-01    93.96
    1    10    10     1.00000000     0.00000000 -6173.54574106     0.00000000    -0.76117660  0.44D-01  0.90D-01    93.96
    1    11    11     1.00000000     0.00000000 -6173.54574106    -0.00000000    -0.76103086  0.44D-01  0.90D-01    93.96
    1    12    12     1.00000000     0.00000000 -6173.54490563     0.00000000    -0.75609141  0.41D-01  0.90D-01    93.96
    2     1     1     1.09152636    -0.62056573 -6174.35031189    -0.62056573    -0.01674705  0.34D-02  0.12D-02   466.39
    2     2     2     1.09164398    -0.62049401 -6174.35024017    -0.62049401    -0.01682593  0.35D-02  0.12D-02   466.39
    2     3     3     1.09168282    -0.62037876 -6174.35012492    -0.62037876    -0.01695151  0.36D-02  0.13D-02   466.39
    2     4     4     1.08299587    -0.60950608 -6174.16194935    -0.60950608    -0.01358694  0.23D-02  0.93D-03   466.39
    2     5     5     1.08285218    -0.60949675 -6174.16194002    -0.60949675    -0.01360130  0.23D-02  0.94D-03   466.39
    2     6     6     1.08287103    -0.60948472 -6174.16192800    -0.60948472    -0.01361462  0.23D-02  0.94D-03   466.39
    2     7     7     1.08300977    -0.60948312 -6174.16192639    -0.60948312    -0.01361233  0.24D-02  0.93D-03   466.39
    2     8     8     1.08291540    -0.60946752 -6174.16191080    -0.60946752    -0.01363276  0.24D-02  0.94D-03   466.39
    2     9     9     1.08528502    -0.61039115 -6174.15613221    -0.61039115    -0.01469017  0.31D-02  0.99D-03   466.39
    2    10    10     1.08530090    -0.61037959 -6174.15612065    -0.61037959    -0.01470408  0.31D-02  0.99D-03   466.39
    2    11    11     1.08536115    -0.61037033 -6174.15611139    -0.61037033    -0.01471486  0.31D-02  0.99D-03   466.39
    2    12    12     1.08389876    -0.60958721 -6174.15449285    -0.60958721    -0.01399296  0.27D-02  0.94D-03   466.39
    3     1     1     1.08129010    -0.63652602 -6174.36627218    -0.01596029    -0.00042482  0.62D-04  0.49D-04   838.37
    3     2     2     1.08129230    -0.63652235 -6174.36626851    -0.01602834    -0.00042843  0.62D-04  0.50D-04   838.37
    3     3     3     1.08125187    -0.63652217 -6174.36626833    -0.01614341    -0.00042878  0.63D-04  0.49D-04   838.37
    3     4     4     1.07724664    -0.62254774 -6174.17499102    -0.01304166    -0.00029614  0.33D-04  0.32D-04   838.37
    3     5     5     1.07724609    -0.62254735 -6174.17499063    -0.01305060    -0.00029660  0.33D-04  0.32D-04   838.37
    3     6     6     1.07724728    -0.62254641 -6174.17498969    -0.01306169    -0.00029749  0.33D-04  0.32D-04   838.37
    3     7     7     1.07727544    -0.62254508 -6174.17498836    -0.01306196    -0.00029887  0.33D-04  0.33D-04   838.37
    3     8     8     1.07727280    -0.62254427 -6174.17498754    -0.01307674    -0.00029961  0.33D-04  0.33D-04   838.37
    3     9     9     1.07778102    -0.62443710 -6174.17017816    -0.01404595    -0.00034661  0.48D-04  0.37D-04   838.37
    3    10    10     1.07778003    -0.62443666 -6174.17017772    -0.01405707    -0.00034716  0.49D-04  0.37D-04   838.37
    3    11    11     1.07778887    -0.62443540 -6174.17017646    -0.01406507    -0.00034833  0.49D-04  0.37D-04   838.37
    3    12    12     1.07753595    -0.62303617 -6174.16794181    -0.01344896    -0.00031189  0.35D-04  0.35D-04   838.37
    4     1     1     1.08123261    -0.63696917 -6174.36671533    -0.00044315    -0.00001918  0.31D-05  0.23D-05  1212.44
    4     2     2     1.08123168    -0.63696913 -6174.36671529    -0.00044678    -0.00001921  0.31D-05  0.24D-05  1212.44
    4     3     3     1.08123192    -0.63696900 -6174.36671516    -0.00044683    -0.00001933  0.31D-05  0.24D-05  1212.44
    4     4     4     1.07784976    -0.62285473 -6174.17529800    -0.00030699    -0.00001276  0.27D-05  0.13D-05  1212.44
    4     5     5     1.07784930    -0.62285473 -6174.17529800    -0.00030738    -0.00001277  0.27D-05  0.13D-05  1212.44
    4     6     6     1.07784796    -0.62285468 -6174.17529795    -0.00030827    -0.00001281  0.27D-05  0.13D-05  1212.44
    4     7     7     1.07784618    -0.62285464 -6174.17529791    -0.00030955    -0.00001298  0.27D-05  0.13D-05  1212.44
    4     8     8     1.07784550    -0.62285459 -6174.17529786    -0.00031032    -0.00001302  0.27D-05  0.14D-05  1212.44
    4     9     9     1.07821529    -0.62479469 -6174.17053575    -0.00035759    -0.00001593  0.35D-05  0.16D-05  1212.44
    4    10    10     1.07821479    -0.62479467 -6174.17053573    -0.00035801    -0.00001595  0.35D-05  0.17D-05  1212.44
    4    11    11     1.07821369    -0.62479459 -6174.17053566    -0.00035919    -0.00001600  0.35D-05  0.17D-05  1212.44
    4    12    12     1.07815762    -0.62335985 -6174.16826549    -0.00032368    -0.00001369  0.26D-05  0.16D-05  1212.44
    5     1     1     1.08128754    -0.63699025 -6174.36673641    -0.00002108    -0.00000080  0.73D-07  0.12D-06  1585.53
    5     2     2     1.08128863    -0.63699024 -6174.36673640    -0.00002112    -0.00000080  0.72D-07  0.12D-06  1585.53
    5     3     3     1.08128742    -0.63699024 -6174.36673640    -0.00002124    -0.00000081  0.74D-07  0.12D-06  1585.53
    5     4     4     1.07798337    -0.62286922 -6174.17531249    -0.00001449    -0.00000056  0.68D-07  0.93D-07  1585.53
    5     5     5     1.07798327    -0.62286922 -6174.17531249    -0.00001449    -0.00000056  0.67D-07  0.94D-07  1585.53
    5     6     6     1.07798387    -0.62286907 -6174.17531235    -0.00001440    -0.00000056  0.69D-07  0.92D-07  1585.53
    5     7     7     1.07798370    -0.62286907 -6174.17531235    -0.00001444    -0.00000056  0.69D-07  0.93D-07  1585.53
    5     8     8     1.07798388    -0.62286907 -6174.17531235    -0.00001448    -0.00000056  0.69D-07  0.93D-07  1585.53
    5     9     9     1.07831466    -0.62481206 -6174.17055312    -0.00001737    -0.00000079  0.12D-06  0.12D-06  1585.53
    5    10    10     1.07831462    -0.62481206 -6174.17055312    -0.00001739    -0.00000079  0.12D-06  0.12D-06  1585.53
    5    11    11     1.07831416    -0.62481206 -6174.17055312    -0.00001746    -0.00000079  0.12D-06  0.12D-06  1585.53
    5    12    12     1.07832723    -0.62337527 -6174.16828091    -0.00001542    -0.00000062  0.66D-07  0.12D-06  1585.53
    6     1     1     1.08127655    -0.63699112 -6174.36673729    -0.00000088    -0.00000004  0.47D-08  0.67D-08  1957.30
    6     2     2     1.08127654    -0.63699112 -6174.36673729    -0.00000088    -0.00000004  0.46D-08  0.67D-08  1957.30
    6     3     3     1.08127645    -0.63699112 -6174.36673728    -0.00000088    -0.00000004  0.46D-08  0.67D-08  1957.30
    6     4     4     1.07799121    -0.62286985 -6174.17531313    -0.00000063    -0.00000004  0.42D-08  0.86D-08  1957.30
    6     5     5     1.07799116    -0.62286985 -6174.17531313    -0.00000064    -0.00000004  0.43D-08  0.87D-08  1957.30
    6     6     6     1.07799143    -0.62286971 -6174.17531298    -0.00000063    -0.00000004  0.44D-08  0.85D-08  1957.30
    6     7     7     1.07799142    -0.62286971 -6174.17531298    -0.00000063    -0.00000004  0.44D-08  0.85D-08  1957.30
    6     8     8     1.07799142    -0.62286971 -6174.17531298    -0.00000063    -0.00000004  0.45D-08  0.86D-08  1957.30
    6     9     9     1.07831353    -0.62481291 -6174.17055397    -0.00000085    -0.00000006  0.60D-08  0.13D-07  1957.30
    6    10    10     1.07831348    -0.62481291 -6174.17055397    -0.00000085    -0.00000006  0.60D-08  0.13D-07  1957.30
    6    11    11     1.07831350    -0.62481291 -6174.17055397    -0.00000085    -0.00000006  0.60D-08  0.13D-07  1957.30
    6    12    12     1.07834072    -0.62337599 -6174.16828162    -0.00000071    -0.00000004  0.52D-08  0.95D-08  1957.30
    7     1     1     1.08128358    -0.63699117 -6174.36673733    -0.00000005    -0.00000000  0.19D-09  0.43D-09  2329.89
    7     2     2     1.08128363    -0.63699117 -6174.36673733    -0.00000005    -0.00000000  0.19D-09  0.43D-09  2329.89
    7     3     3     1.08128360    -0.63699117 -6174.36673733    -0.00000005    -0.00000000  0.19D-09  0.43D-09  2329.89
    7     4     4     1.07799682    -0.62286990 -6174.17531317    -0.00000004    -0.00000000  0.30D-09  0.87D-09  2329.89
    7     5     5     1.07799683    -0.62286990 -6174.17531317    -0.00000004    -0.00000000  0.30D-09  0.88D-09  2329.89
    7     6     6     1.07799670    -0.62286975 -6174.17531302    -0.00000004    -0.00000000  0.29D-09  0.87D-09  2329.89
    7     7     7     1.07799671    -0.62286975 -6174.17531302    -0.00000004    -0.00000000  0.29D-09  0.86D-09  2329.89
    7     8     8     1.07799670    -0.62286975 -6174.17531302    -0.00000004    -0.00000000  0.29D-09  0.87D-09  2329.89
    7     9     9     1.07831925    -0.62481298 -6174.17055404    -0.00000007    -0.00000001  0.47D-09  0.13D-08  2329.89
    7    10    10     1.07831928    -0.62481298 -6174.17055404    -0.00000007    -0.00000001  0.47D-09  0.13D-08  2329.89
    7    11    11     1.07831924    -0.62481298 -6174.17055404    -0.00000007    -0.00000001  0.47D-09  0.13D-08  2329.89
    7    12    12     1.07834783    -0.62337604 -6174.16828167    -0.00000005    -0.00000000  0.30D-09  0.78D-09  2329.89


 =====================================
 Analysis of CPU times by interactions
 =====================================

       I      S      P

 I   1.6%
 S   0.9%  12.0%
 P   0.4%  47.4%  26.8%

 Initialization:   3.5%
 Other:            7.3%

 Total CPU:     2329.9 seconds
 =====================================



 Wavefunction saved on  5203.2

 Reference coefficients greater than 0.0500000
 =============================================
 2222222222/0/000          -0.0107490   0.0099330   0.9548498   0.0000000   0.0000000   0.0000000   0.0000000   0.0000000
                           -0.0224180  -0.0004140  -0.0002353  -0.0000000
 2222222222//0000           0.0597493   0.9530461  -0.0092416  -0.0000000   0.0000000  -0.0000000  -0.0000000  -0.0000000
                           -0.0004156   0.0224187   0.0001497   0.0000000
 22222222220//000           0.9530303  -0.0596383   0.0113489   0.0000000  -0.0000000  -0.0000000   0.0000000   0.0000000
                            0.0002325   0.0001540  -0.0224213  -0.0000000
 2222222222/000/0          -0.0000000   0.0000000  -0.0000000   0.7706834  -0.1076564   0.0000117   0.0000823  -0.0000159
                           -0.0000000  -0.0000000  -0.0000000   0.5499697
 22222222220/0/00           0.0000000  -0.0000000   0.0000000  -0.2921085   0.7212595   0.0000198   0.0001004  -0.0001019
                           -0.0000000   0.0000000  -0.0000000   0.5499698
 2222222222/00/00          -0.0010976  -0.0175071   0.0001698  -0.0000901  -0.0001306  -0.0122974   0.6737820  -0.0048651
                           -0.0123722   0.6674341   0.0044558   0.0000000
 22222222220/00/0           0.0010976   0.0175071  -0.0001698  -0.0000901  -0.0001306  -0.0122974   0.6737820  -0.0048651
                            0.0123722  -0.6674341  -0.0044558  -0.0000000
 222222222200//00           0.0175068  -0.0010955   0.0002085   0.0000284   0.0001064  -0.0127804   0.0046318   0.6737747
                           -0.0069228  -0.0045846   0.6675120   0.0000000
 22222222220/000/          -0.0175068   0.0010955  -0.0002085   0.0000284   0.0001064  -0.0127804   0.0046318   0.6737746
                            0.0069228   0.0045846  -0.6675120  -0.0000000
 222222222200/0/0          -0.0001975   0.0001825   0.0175403  -0.0000147  -0.0000244   0.6736783   0.0123872   0.0126934
                            0.6674131   0.0123250   0.0070064   0.0000000
 2222222222/0000/           0.0001975  -0.0001825  -0.0175403  -0.0000147  -0.0000244   0.6736783   0.0123872   0.0126934
                           -0.6674131  -0.0123250  -0.0070064  -0.0000000
 222222222200/00/           0.0000000  -0.0000000   0.0000000  -0.4785748  -0.6136032  -0.0000315  -0.0001827   0.0001178
                           -0.0000000  -0.0000000  -0.0000000   0.5499697
 2222222222000/0/          -0.0132273   0.0008277  -0.0001575  -0.0000000   0.0000000  -0.0000000  -0.0000000   0.0000000
                           -0.0013489  -0.0008933   0.1300680   0.0000000
 2222222222000//0           0.0008293   0.0132276  -0.0001283   0.0000000  -0.0000000   0.0000000  -0.0000000  -0.0000000
                           -0.0024108   0.1300528   0.0008682   0.0000000
 22222222220000//           0.0001492  -0.0001379  -0.0132526   0.0000000   0.0000000   0.0000000   0.0000000   0.0000000
                            0.1300487   0.0024016   0.0013652   0.0000000
 2222220222/2/000           0.0011173  -0.0010325  -0.0992536  -0.0000000   0.0000000   0.0000001   0.0000000   0.0000000
                           -0.0026362  -0.0000487  -0.0000277  -0.0000000
 2222220222//2000          -0.0062108  -0.0990662   0.0009606   0.0000000  -0.0000000  -0.0000000   0.0000001  -0.0000000
                           -0.0000489   0.0026363   0.0000176   0.0000000
 22222202222//000          -0.0990645   0.0061992  -0.0011797   0.0000000   0.0000000  -0.0000000   0.0000000   0.0000000
                            0.0000273   0.0000181  -0.0026366  -0.0000000
 2222220222/200/0          -0.0000000   0.0000000  -0.0000000  -0.0735796   0.0094723  -0.0000011  -0.0000080   0.0000016
                            0.0000000   0.0000000   0.0000000  -0.0533499
 2222220222/020/0          -0.0000000   0.0000000  -0.0000000  -0.0733587   0.0110535  -0.0000011  -0.0000077   0.0000014
                           -0.0000000  -0.0000000   0.0000000  -0.0533499
 22222202222/0/00          -0.0000000  -0.0000000  -0.0000000   0.0271068  -0.0690573  -0.0000019  -0.0000097   0.0000098
                            0.0000000  -0.0000000   0.0000000  -0.0533499
 22222202220/2/00           0.0000000  -0.0000000   0.0000000   0.0285866  -0.0684579  -0.0000019  -0.0000094   0.0000096
                            0.0000000   0.0000000   0.0000000  -0.0533499
 22222202220/20/0          -0.0002211  -0.0035270   0.0000342   0.0000086   0.0000125   0.0011796  -0.0646307   0.0004667
                           -0.0011957   0.0645020   0.0004306   0.0000000
 2222220222/02/00           0.0002211   0.0035271  -0.0000342   0.0000086   0.0000125   0.0011796  -0.0646307   0.0004667
                            0.0011957  -0.0645020  -0.0004306   0.0000000
 222222022220//00          -0.0035270   0.0002207  -0.0000420  -0.0000027  -0.0000102   0.0012259  -0.0004443  -0.0646300
                            0.0006690   0.0004431  -0.0645096  -0.0000000
 22222202222/000/           0.0035270  -0.0002207   0.0000420  -0.0000027  -0.0000102   0.0012259  -0.0004443  -0.0646300
                           -0.0006690  -0.0004431   0.0645096   0.0000000
 222222022202/0/0           0.0000398  -0.0000368  -0.0035337   0.0000014   0.0000023  -0.0646207  -0.0011882  -0.0012176
                           -0.0645000  -0.0011911  -0.0006771  -0.0000000
 2222220222/2000/          -0.0000398   0.0000368   0.0035337   0.0000014   0.0000023  -0.0646207  -0.0011882  -0.0012176
                            0.0644999   0.0011911   0.0006771   0.0000000
 22222202222/00/0           0.0010992   0.0175336  -0.0001700   0.0000085   0.0000124   0.0011650  -0.0638325   0.0004609
                           -0.0011587   0.0625064   0.0004173  -0.0000000
 2222220222/20/00          -0.0010992  -0.0175336   0.0001700   0.0000085   0.0000124   0.0011650  -0.0638325   0.0004609
                            0.0011587  -0.0625063  -0.0004173  -0.0000000
 222222022202//00           0.0175333  -0.0010972   0.0002088  -0.0000027  -0.0000101   0.0012108  -0.0004388  -0.0638318
                            0.0006483   0.0004294  -0.0625137  -0.0000000
 22222202220/200/          -0.0175333   0.0010972  -0.0002088  -0.0000027  -0.0000101   0.0012108  -0.0004388  -0.0638318
                           -0.0006483  -0.0004294   0.0625136   0.0000000
 222222022220/0/0          -0.0001978   0.0001827   0.0175668   0.0000014   0.0000023  -0.0638227  -0.0011735  -0.0012025
                           -0.0625045  -0.0011543  -0.0006562  -0.0000000
 2222220222/0200/           0.0001978  -0.0001827  -0.0175668   0.0000014   0.0000023  -0.0638227  -0.0011735  -0.0012025
                            0.0625044   0.0011543   0.0006562   0.0000000
 222222022220/00/           0.0000000  -0.0000000   0.0000000   0.0449930   0.0589857   0.0000030   0.0000174  -0.0000113
                            0.0000000   0.0000000   0.0000000  -0.0533499
 222222022202/00/           0.0000000  -0.0000000   0.0000000   0.0462519   0.0580038   0.0000030   0.0000174  -0.0000112
                            0.0000000   0.0000000   0.0000000  -0.0533499

 Coefficients of fixed reference functions:
 ==========================================

 State      Coefficients
 1           0.958544    0.060095   -0.010811   -0.000000   -0.000000    0.000000   -0.000000    0.000000   -0.000438   -0.002432
             0.038790    0.000000
 2          -0.059983    0.958560    0.009990    0.000000    0.000000    0.000000   -0.000000   -0.000000    0.000404   -0.038791
            -0.002427    0.000000
 3           0.011415   -0.009295    0.960374   -0.000000    0.000000   -0.000000    0.000000    0.000000    0.038864    0.000376
             0.000462   -0.000000
 4           0.000000   -0.000000    0.000000    0.956049   -0.000021   -0.000129    0.000041   -0.111003    0.000000    0.000000
            -0.000000   -0.000000
 5          -0.000000    0.000000   -0.000000    0.111003   -0.000035   -0.000187    0.000152    0.956049    0.000000   -0.000000
             0.000000    0.000000
 6           0.000000    0.000000   -0.000000    0.000023    0.962138   -0.017563   -0.018253    0.000032    0.000000   -0.000000
             0.000000    0.000000
 7           0.000000   -0.000000    0.000000    0.000149    0.017691    0.962286    0.006615    0.000170    0.000000    0.000000
            -0.000000    0.000000
 8          -0.000000    0.000000   -0.000000   -0.000058    0.018129   -0.006948    0.962276   -0.000147    0.000000   -0.000000
             0.000000    0.000000
 9           0.000417   -0.000745   -0.040213   -0.000000    0.000000    0.000000   -0.000000   -0.000000    0.961271   -0.017820
            -0.009971   -0.000000
 10          0.000276    0.040214   -0.000743   -0.000000    0.000000   -0.000000    0.000000    0.000000    0.017752    0.961301
            -0.006603   -0.000000
 11         -0.040219    0.000268   -0.000422    0.000000   -0.000000    0.000000   -0.000000   -0.000000    0.010091    0.006418
             0.961414   -0.000000
 12         -0.000000    0.000000   -0.000000    0.000000   -0.000000   -0.000000   -0.000000   -0.000000    0.000000    0.000000
             0.000000    0.962318

 Coefficients of rotated reference functions:
 ============================================

 State      Coefficients
 1           0.961273   -0.000000    0.000000    0.000000   -0.000000    0.000000   -0.000000   -0.000000    0.000013    0.000046
            -0.000654    0.000000
 2          -0.000000    0.961273    0.000000   -0.000000    0.000000    0.000000   -0.000000    0.000000   -0.000019    0.000654
             0.000045   -0.000000
 3           0.000000    0.000000    0.961273    0.000000   -0.000000   -0.000000    0.000000    0.000000   -0.000655   -0.000018
            -0.000015    0.000000
 4           0.000000   -0.000000    0.000000    0.962472    0.000000    0.000000    0.000000    0.000000   -0.000000    0.000000
             0.000000   -0.000000
 5          -0.000000    0.000000   -0.000000    0.000000    0.962472   -0.000000    0.000000   -0.000000   -0.000000    0.000000
             0.000000   -0.000000
 6           0.000000    0.000000   -0.000000    0.000000   -0.000000    0.962472    0.000000    0.000000    0.000000    0.000000
            -0.000000   -0.000000
 7          -0.000000   -0.000000    0.000000    0.000000    0.000000    0.000000    0.962472    0.000000    0.000000   -0.000000
             0.000000    0.000000
 8          -0.000000    0.000000    0.000000    0.000000   -0.000000    0.000000    0.000000    0.962472    0.000000   -0.000000
             0.000000   -0.000000
 9           0.000013   -0.000019   -0.000655   -0.000000   -0.000000    0.000000    0.000000    0.000000    0.962329    0.000000
            -0.000000    0.000000
 10          0.000046    0.000654   -0.000018    0.000000    0.000000    0.000000   -0.000000   -0.000000    0.000000    0.962329
            -0.000000    0.000000
 11         -0.000654    0.000045   -0.000015    0.000000    0.000000   -0.000000    0.000000    0.000000   -0.000000   -0.000000
             0.962329    0.000000
 12          0.000000   -0.000000    0.000000   -0.000000   -0.000000   -0.000000    0.000000   -0.000000    0.000000    0.000000
             0.000000    0.962318


 RESULTS FOR STATE 1.1
 =====================

 Coefficient of reference function:   C(0) = 0.95854385 (fixed)   0.96136885 (relaxed)   0.96127258 (rotated)

 Energy contributions of configuration classes

 CLASS          SQ.NORM        ECORR1        ECORR2
 +++++++++++++++++++++++++++++++++++++++++++++++++++
 Internals    0.00084605   -0.00148649   -0.53708249
 Singles      0.01785226   -0.05630028   -0.06252988
 Pairs        0.06350009   -0.00000000   -0.03737880
 Total        1.08219841   -0.05778677   -0.63699117
 +++++++++++++++++++++++++++++++++++++++++++++++++++


 Reference energy                   -6173.72943509
 Nuclear energy                         0.00000000
 Kinetic energy                      7124.91459423
 One electron energy                -8490.53571361
 Two electron energy                 2316.16897628
 Virial quotient                       -0.86658818
 Correlation energy                    -0.63730224
 !MRCI STATE 1.1 Energy             -6174.366737333235

 Properties without orbital relaxation:

 !MRCI STATE 1.1 Dipole moment          0.00000000     0.00000000     0.00000000
 Dipole moment /Debye                   0.00000000     0.00000000     0.00000000

 Cluster corrected energies         -6174.41912256 (Davidson, fixed reference)
 Cluster corrected energies         -6174.41898444 (Davidson, relaxed reference)
 Cluster corrected energies         -6174.41912256 (Davidson, rotated reference)

 Cluster corrected energies         -6174.41716746 (Pople, fixed reference)
 Cluster corrected energies         -6174.41702536 (Pople, relaxed reference)
 Cluster corrected energies         -6174.41716746 (Pople, rotated reference)



 RESULTS FOR STATE 2.1
 =====================

 Coefficient of reference function:   C(0) = 0.95855973 (fixed)   0.96136883 (relaxed)   0.96127256 (rotated)

 Energy contributions of configuration classes

 CLASS          SQ.NORM        ECORR1        ECORR2
 +++++++++++++++++++++++++++++++++++++++++++++++++++
 Internals    0.00084606   -0.00148649   -0.53708246
 Singles      0.01785229   -0.05630029   -0.06252988
 Pairs        0.06350011   -0.00000000   -0.03737882
 Total        1.08219845   -0.05778678   -0.63699117
 +++++++++++++++++++++++++++++++++++++++++++++++++++


 Reference energy                   -6173.72943509
 Nuclear energy                         0.00000000
 Kinetic energy                      7124.91458330
 One electron energy                -8490.53569884
 Two electron energy                 2316.16896151
 Virial quotient                       -0.86658818
 Correlation energy                    -0.63730224
 !MRCI STATE 2.1 Energy             -6174.366737332922

 Properties without orbital relaxation:

 !MRCI STATE 2.1 Dipole moment          0.00000000     0.00000000     0.00000000
 Dipole moment /Debye                   0.00000000     0.00000000     0.00000000

 Cluster corrected energies         -6174.41912259 (Davidson, fixed reference)
 Cluster corrected energies         -6174.41898447 (Davidson, relaxed reference)
 Cluster corrected energies         -6174.41912259 (Davidson, rotated reference)

 Cluster corrected energies         -6174.41716749 (Pople, fixed reference)
 Cluster corrected energies         -6174.41702539 (Pople, relaxed reference)
 Cluster corrected energies         -6174.41716749 (Pople, rotated reference)



 RESULTS FOR STATE 3.1
 =====================

 Coefficient of reference function:   C(0) = 0.96037383 (fixed)   0.96136884 (relaxed)   0.96127257 (rotated)

 Energy contributions of configuration classes

 CLASS          SQ.NORM        ECORR1        ECORR2
 +++++++++++++++++++++++++++++++++++++++++++++++++++
 Internals    0.00084606   -0.00148649   -0.53708250
 Singles      0.01785227   -0.05630027   -0.06252987
 Pairs        0.06350010    0.00000000   -0.03737881
 Total        1.08219842   -0.05778676   -0.63699117
 +++++++++++++++++++++++++++++++++++++++++++++++++++


 Reference energy                   -6173.72943509
 Nuclear energy                         0.00000000
 Kinetic energy                      7124.91459081
 One electron energy                -8490.53570940
 Two electron energy                 2316.16897207
 Virial quotient                       -0.86658818
 Correlation energy                    -0.63730224
 !MRCI STATE 3.1 Energy             -6174.366737332505

 Properties without orbital relaxation:

 !MRCI STATE 3.1 Dipole moment          0.00000000     0.00000000     0.00000000
 Dipole moment /Debye                   0.00000000     0.00000000     0.00000000

 Cluster corrected energies         -6174.41912257 (Davidson, fixed reference)
 Cluster corrected energies         -6174.41898445 (Davidson, relaxed reference)
 Cluster corrected energies         -6174.41912257 (Davidson, rotated reference)

 Cluster corrected energies         -6174.41716747 (Pople, fixed reference)
 Cluster corrected energies         -6174.41702537 (Pople, relaxed reference)
 Cluster corrected energies         -6174.41716747 (Pople, rotated reference)



 RESULTS FOR STATE 4.1
 =====================

 Coefficient of reference function:   C(0) = 0.95604921 (fixed)   0.96262770 (relaxed)   0.96247170 (rotated)

 Energy contributions of configuration classes

 CLASS          SQ.NORM        ECORR1        ECORR2
 +++++++++++++++++++++++++++++++++++++++++++++++++++
 Internals    0.00139769   -0.00241254   -0.52397504
 Singles      0.01862858   -0.05810758   -0.06457433
 Pairs        0.05947725    0.00000000   -0.03432053
 Total        1.07950353   -0.06052011   -0.62286990
 +++++++++++++++++++++++++++++++++++++++++++++++++++


 Reference energy                   -6173.55244327
 Nuclear energy                         0.00000000
 Kinetic energy                      7124.41578758
 One electron energy                -8480.98559425
 Two electron energy                 2306.81028107
 Virial quotient                       -0.86662198
 Correlation energy                    -0.62286990
 !MRCI STATE 4.1 Energy             -6174.175313172017

 Properties without orbital relaxation:

 !MRCI STATE 4.1 Dipole moment          0.00000000     0.00000000     0.00000000
 Dipole moment /Debye                   0.00000000     0.00000000     0.00000000

 Cluster corrected energies         -6174.22483353 (Davidson, fixed reference)
 Cluster corrected energies         -6174.22461561 (Davidson, relaxed reference)
[...]
 21  1     9    1  |1 0>          0.00%    0.00%    0.00%    0.00%    0.00%    0.00%    0.00%    0.00%
 22  1    10    1  |1 0>          0.00%    0.00%    0.00%    0.00%    0.00%    0.00%    0.00%    5.32%
 23  1    11    1  |1 0>          0.00%    0.00%    0.00%    0.00%    0.01%    0.00%    0.01%    0.00%
 24  1    12    1  |1 0>          0.00%    0.00%    0.00%    0.00%    0.00%    0.00%    0.00%    0.00%
 25  1     1    1  |1 1>-         0.00%    1.54%    1.37%    2.26%    0.01%    0.00%    0.00%    0.01%
 26  1     2    1  |1 1>-         0.00%    0.01%    0.00%    0.00%    2.83%    4.03%    1.25%    0.00%
 27  1     3    1  |1 1>-         0.11%    1.37%    0.89%    2.90%    0.00%    0.00%    0.00%    0.00%
 28  1     4    1  |1 1>-         0.02%    0.01%    0.01%    0.00%    0.00%    0.00%    0.00%    0.00%
 29  1     5    1  |1 1>-         0.01%    0.01%    0.01%    0.00%    0.00%    0.00%    0.00%    0.00%
 30  1     6    1  |1 1>-         0.00%    0.00%    0.00%    0.00%    0.00%    0.00%    0.00%    0.16%
 31  1     7    1  |1 1>-         0.00%    0.00%    0.00%    0.00%    0.02%    0.01%    0.00%    0.00%
 32  1     8    1  |1 1>-         0.00%    0.00%    0.00%    0.00%    0.00%    0.00%    0.00%   26.26%
 33  1     9    1  |1 1>-         0.00%    0.00%    0.00%    0.00%    0.00%    0.00%    0.00%    0.03%
 34  1    10    1  |1 1>-         0.00%    0.00%    0.00%    0.00%    0.00%    0.00%    0.01%    0.00%
 35  1    11    1  |1 1>-         0.00%    0.00%    0.00%    0.00%    0.00%    0.00%    0.00%    5.31%
 36  1    12    1  |1 1>-         0.00%    0.00%    0.00%    0.00%    0.00%    0.00%    0.00%    0.00%
 37  1     1    1  |0 0>          4.50%    5.85%   31.06%   21.51%   16.46%   14.73%    0.00%    0.00%
 38  1     2    1  |0 0>          0.00%    0.18%    1.31%   49.25%    0.74%   38.13%    0.00%    0.00%
 39  1     3    1  |0 0>          0.07%    2.25%    0.00%   11.16%   53.90%   22.31%    0.00%    0.00%
 40  1     4    1  |0 0>          0.01%   44.85%   36.59%    0.95%    0.58%    6.64%    0.00%    0.00%
 41  1     5    1  |0 0>          5.71%   36.49%   20.66%    6.74%   17.93%    7.80%    0.00%    0.00%
 42  1     6    1  |0 0>          0.00%    0.00%    0.00%    0.00%    0.00%    0.00%   96.21%    0.00%

   Total
 Nr Sym  State Sym Spin / Nr.     17       18       19       20       21       22       23       24

  1  1     1    1  |1 1>+         0.00%    0.01%    0.00%    0.00%    0.01%    0.00%    0.00%    0.00%
  2  1     2    1  |1 1>+         0.01%    0.00%    0.00%    0.01%    0.00%    0.00%    0.00%    0.00%
  3  1     3    1  |1 1>+         0.00%    0.00%    0.00%    0.00%    0.00%    0.00%    0.02%    0.01%
  4  1     4    1  |1 1>+         0.02%    0.00%   50.51%    0.05%    0.00%    0.00%    0.00%    0.00%
  5  1     5    1  |1 1>+         0.10%    0.00%    8.29%    0.01%    0.00%    0.00%    0.00%    0.00%
  6  1     6    1  |1 1>+         0.01%    0.01%    0.00%    0.00%    0.01%   56.71%    2.10%    0.00%
  7  1     7    1  |1 1>+        26.32%    0.00%    0.01%   14.69%    0.00%    0.02%    0.00%    0.00%
  8  1     8    1  |1 1>+         0.00%   26.41%    0.00%    0.00%   14.71%    0.02%    0.00%    0.00%
  9  1     9    1  |1 1>+         0.00%    0.00%    0.00%    0.00%    0.00%    0.28%    7.47%   33.30%
 10  1    10    1  |1 1>+         5.32%    0.00%    0.01%    5.81%    0.00%    0.00%    0.00%    0.01%
 11  1    11    1  |1 1>+         0.00%    5.33%    0.00%    0.00%    5.81%    0.00%    0.00%    0.00%
 12  1    12    1  |1 1>+         0.00%    0.00%    0.00%    0.00%    0.00%    0.00%    0.00%    0.00%
 13  1     1    1  |1 0>          0.00%    0.00%    0.00%    0.00%    0.00%    0.01%    0.01%    0.01%
 14  1     2    1  |1 0>          0.00%    0.00%    0.01%    0.00%    0.00%    0.00%    0.00%    0.00%
 15  1     3    1  |1 0>          0.00%    0.01%    0.00%    0.00%    0.01%    0.00%    0.00%    0.00%
 16  1     4    1  |1 0>         34.44%    0.00%    0.00%    1.13%    0.00%    0.00%    0.00%    0.00%
 17  1     5    1  |1 0>          0.67%    0.00%    0.06%   57.67%    0.00%    0.00%    0.00%    0.00%
 18  1     6    1  |1 0>          0.00%   26.41%    0.01%    0.00%   14.70%    0.01%    0.01%    0.00%
 19  1     7    1  |1 0>          0.09%    0.01%   14.69%    0.02%    0.01%    0.00%    0.00%    0.00%
 20  1     8    1  |1 0>          0.00%    0.01%    0.00%    0.00%    0.01%   25.22%   33.61%    0.00%
 21  1     9    1  |1 0>          0.00%    5.33%    0.00%    0.00%    5.81%    0.00%    0.00%    0.00%
 22  1    10    1  |1 0>          0.02%    0.00%    5.81%    0.01%    0.00%    0.00%    0.00%    0.00%
 23  1    11    1  |1 0>          0.00%    0.00%    0.00%    0.00%    0.00%    4.43%    3.32%   33.31%
 24  1    12    1  |1 0>          1.23%    0.00%    0.00%    0.00%    0.00%    0.00%    0.00%    0.00%
 25  1     1    1  |1 1>-         0.00%    0.00%    0.01%    0.00%    0.00%    0.00%    0.00%    0.00%
 26  1     2    1  |1 1>-         0.00%    0.00%    0.00%    0.00%    0.00%    0.02%    0.00%    0.01%
 27  1     3    1  |1 1>-         0.01%    0.00%    0.00%    0.01%    0.00%    0.00%    0.00%    0.00%
 28  1     4    1  |1 1>-         0.00%   13.33%    0.00%    0.00%   36.60%    0.00%    0.00%    0.00%
 29  1     5    1  |1 1>-         0.00%   21.91%    0.00%    0.00%   22.26%    0.00%    0.00%    0.00%
 30  1     6    1  |1 1>-        26.26%    0.00%    0.00%   14.71%    0.00%    0.00%    0.02%    0.00%
 31  1     7    1  |1 1>-         0.01%    0.00%    0.00%    0.01%    0.00%    6.30%   52.54%    0.00%
 32  1     8    1  |1 1>-         0.16%    0.00%   14.71%    0.00%    0.00%    0.00%    0.00%    0.00%
 33  1     9    1  |1 1>-         5.31%    0.00%    0.00%    5.81%    0.00%    0.00%    0.00%    0.01%
 34  1    10    1  |1 1>-         0.00%    0.00%    0.00%    0.00%    0.00%    6.92%    0.83%   33.30%
 35  1    11    1  |1 1>-         0.03%    0.00%    5.81%    0.00%    0.00%    0.00%    0.00%    0.00%
 36  1    12    1  |1 1>-         0.00%    1.23%    0.00%    0.00%    0.00%    0.00%    0.00%    0.00%
 37  1     1    1  |0 0>          0.00%    0.00%    0.00%    0.01%    0.02%    0.02%    0.00%    0.00%
 38  1     2    1  |0 0>          0.00%    0.00%    0.02%    0.02%    0.00%    0.01%    0.01%    0.00%
 39  1     3    1  |0 0>          0.00%    0.00%    0.00%    0.01%    0.00%    0.01%    0.04%    0.00%
 40  1     4    1  |0 0>          0.00%    0.00%    0.04%    0.02%    0.00%    0.00%    0.00%    0.00%
 41  1     5    1  |0 0>          0.00%    0.00%    0.00%    0.01%    0.03%    0.02%    0.00%    0.00%
 42  1     6    1  |0 0>          0.00%    0.00%    0.00%    0.00%    0.00%    0.00%    0.00%    0.03%

   Total
 Nr Sym  State Sym Spin / Nr.     25       26       27       28       29       30       31       32

  1  1     1    1  |1 1>+         0.00%    0.00%    0.00%    0.00%    0.00%    0.00%    0.00%    0.00%
  2  1     2    1  |1 1>+         0.00%    0.00%    0.00%    0.00%    0.00%    0.00%    0.00%    0.00%
  3  1     3    1  |1 1>+         0.00%    0.00%    0.00%    0.00%    0.00%    0.00%    0.00%    0.00%
  4  1     4    1  |1 1>+         0.62%    0.00%    0.00%    0.00%    0.00%    6.90%    0.00%   30.18%
  5  1     5    1  |1 1>+         3.79%    0.01%    0.00%    0.00%    0.00%   53.03%    0.00%    3.21%
  6  1     6    1  |1 1>+         0.00%    0.00%    0.00%    0.01%    0.00%    0.00%    0.01%    0.00%
  7  1     7    1  |1 1>+         0.01%    3.31%    0.00%    0.00%   15.30%    0.00%   38.01%    0.00%
  8  1     8    1  |1 1>+         0.00%    0.00%    3.31%   18.14%    0.00%    0.00%    0.00%    0.01%
  9  1     9    1  |1 1>+         0.00%    0.01%    0.00%    0.00%    0.00%    0.00%    0.00%    0.00%
 10  1    10    1  |1 1>+         0.05%   29.58%    0.00%    0.00%    0.00%    0.00%    0.00%    0.00%
 11  1    11    1  |1 1>+         0.00%    0.00%   29.63%    0.00%    0.00%    0.00%    0.00%    0.00%
 12  1    12    1  |1 1>+        29.63%    0.05%    0.00%    0.00%    0.00%    0.00%    0.00%    0.00%
 13  1     1    1  |1 0>          0.00%    0.00%    0.00%    0.00%    0.00%    0.00%    0.00%    0.00%
 14  1     2    1  |1 0>          0.00%    0.00%    0.00%    0.00%    0.00%    0.00%    0.00%    0.00%
 15  1     3    1  |1 0>          0.00%    0.00%    0.00%    0.00%    0.00%    0.00%    0.00%    0.00%
 16  1     4    1  |1 0>          0.01%    4.33%    0.00%    0.00%   59.48%    0.00%    0.01%    0.00%
 17  1     5    1  |1 0>          0.00%    0.08%    0.00%    0.00%    0.28%    0.00%   33.56%    0.00%
 18  1     6    1  |1 0>          0.00%    0.00%    3.31%   21.87%    0.00%    0.01%    0.00%    0.00%
 19  1     7    1  |1 0>          3.31%    0.01%    0.00%    0.01%    0.00%   17.35%    0.00%   35.96%
 20  1     8    1  |1 0>          0.00%    0.00%    0.00%    0.01%    0.00%    0.00%    0.00%    0.00%
 21  1     9    1  |1 0>          0.00%    0.00%   29.63%    0.00%    0.00%    0.00%    0.00%    0.00%
 22  1    10    1  |1 0>         29.58%    0.05%    0.00%    0.00%    0.00%    0.00%    0.00%    0.00%
 23  1    11    1  |1 0>          0.00%    0.00%    0.00%    0.00%    0.00%    0.00%    0.00%    0.00%
 24  1    12    1  |1 0>          0.05%   29.63%    0.00%    0.00%    0.00%    0.00%    0.00%    0.00%
 25  1     1    1  |1 1>-         0.00%    0.00%    0.00%    0.00%    0.00%    0.00%    0.00%    0.00%
 26  1     2    1  |1 1>-         0.00%    0.00%    0.00%    0.00%    0.00%    0.00%    0.00%    0.00%
 27  1     3    1  |1 1>-         0.00%    0.00%    0.00%    0.00%    0.00%    0.00%    0.00%    0.00%
 28  1     4    1  |1 1>-         0.00%    0.00%    1.67%   24.26%    0.00%    0.00%    0.00%    0.01%
 29  1     5    1  |1 1>-         0.00%    0.00%    2.75%   35.70%    0.00%    0.00%    0.00%    0.00%
 30  1     6    1  |1 1>-         0.01%    3.30%    0.00%    0.00%   24.90%    0.01%   28.40%    0.00%
 31  1     7    1  |1 1>-         0.00%    0.00%    0.00%    0.00%    0.01%    0.00%    0.01%    0.00%
 32  1     8    1  |1 1>-         3.30%    0.01%    0.00%    0.00%    0.01%   22.70%    0.00%   30.61%
 33  1     9    1  |1 1>-         0.08%   29.55%    0.00%    0.00%    0.00%    0.00%    0.00%    0.00%
 34  1    10    1  |1 1>-         0.00%    0.01%    0.00%    0.00%    0.00%    0.00%    0.00%    0.00%
 35  1    11    1  |1 1>-        29.55%    0.08%    0.00%    0.00%    0.00%    0.00%    0.00%    0.00%
 36  1    12    1  |1 1>-         0.00%    0.00%   29.68%    0.00%    0.00%    0.00%    0.00%    0.00%
 37  1     1    1  |0 0>          0.00%    0.00%    0.00%    0.00%    0.00%    0.00%    0.00%    0.00%
 38  1     2    1  |0 0>          0.00%    0.00%    0.00%    0.00%    0.00%    0.00%    0.00%    0.00%
 39  1     3    1  |0 0>          0.00%    0.00%    0.00%    0.00%    0.00%    0.00%    0.00%    0.00%
 40  1     4    1  |0 0>          0.00%    0.00%    0.00%    0.00%    0.00%    0.00%    0.00%    0.00%
 41  1     5    1  |0 0>          0.00%    0.00%    0.00%    0.00%    0.00%    0.00%    0.00%    0.00%
 42  1     6    1  |0 0>          0.00%    0.00%    0.00%    0.00%    0.00%    0.00%    0.00%    0.00%

   Total
 Nr Sym  State Sym Spin / Nr.     33       34       35       36       37       38       39       40

  1  1     1    1  |1 1>+         0.00%    0.00%    0.00%    0.00%    0.00%    0.00%    0.00%    0.00%
  2  1     2    1  |1 1>+         0.00%    0.00%    0.00%    0.00%    0.00%    0.00%    0.00%    0.02%
  3  1     3    1  |1 1>+         0.00%    0.00%    0.00%    0.00%    0.00%    0.00%    0.00%    0.00%
  4  1     4    1  |1 1>+         0.01%    0.00%    0.00%    6.64%    0.00%    0.00%    0.00%    0.00%
  5  1     5    1  |1 1>+         0.00%    0.00%    0.00%    1.09%    0.00%    0.00%    0.00%    0.00%
  6  1     6    1  |1 1>+         0.01%   33.31%    0.00%    0.00%    5.70%    0.00%    2.03%    0.00%
  7  1     7    1  |1 1>+         0.00%    0.01%    1.93%    0.00%    0.00%    0.00%    0.00%    0.24%
  8  1     8    1  |1 1>+        35.17%    0.01%    0.00%    0.00%    0.00%    1.93%    0.00%    0.01%
  9  1     9    1  |1 1>+         0.00%    0.00%    0.02%    0.00%   15.47%    0.00%   43.41%    0.00%
 10  1    10    1  |1 1>+         0.00%    0.00%   44.14%    0.02%    0.02%    0.00%    0.01%   14.39%
 11  1    11    1  |1 1>+         0.00%    0.00%    0.00%    0.01%    0.00%   44.17%    0.00%    0.63%
 12  1    12    1  |1 1>+         0.00%    0.00%    0.00%    0.00%    0.00%    0.00%    0.00%    0.00%
 13  1     1    1  |1 0>          0.00%    0.00%    0.00%    0.00%    0.00%    0.00%    0.00%    0.00%
 14  1     2    1  |1 0>          0.00%    0.00%    0.00%    0.00%    0.00%    0.00%    0.00%    0.00%
 15  1     3    1  |1 0>          0.00%    0.00%    0.00%    0.00%    0.00%    0.00%    0.00%    0.00%
 16  1     4    1  |1 0>          0.00%    0.00%    0.15%    0.00%    0.00%    0.00%    0.00%    0.32%
 17  1     5    1  |1 0>          0.00%    0.00%    7.59%    0.00%    0.00%    0.00%    0.00%    0.01%
 18  1     6    1  |1 0>         31.43%    0.01%    0.00%    0.00%    0.00%    1.93%    0.00%    0.01%
 19  1     7    1  |1 0>          0.00%    0.00%    0.00%    1.93%    0.00%    0.00%    0.00%    0.00%
 20  1     8    1  |1 0>          0.01%   33.32%    0.00%    0.00%    5.90%    0.00%    1.84%    0.00%
 21  1     9    1  |1 0>          0.00%    0.00%    0.00%    0.00%    0.02%   44.16%    0.00%    0.67%
 22  1    10    1  |1 0>          0.00%    0.00%    0.02%   44.16%    0.00%    0.00%    0.00%    0.00%
 23  1    11    1  |1 0>          0.00%    0.00%    0.01%    0.00%   13.96%    0.01%   44.92%    0.00%
 24  1    12    1  |1 0>          0.00%    0.00%    0.00%    0.00%    0.00%    0.00%    0.00%   65.96%
 25  1     1    1  |1 1>-         0.00%    0.00%    0.00%    0.00%    0.00%    0.00%    0.00%    0.00%
 26  1     2    1  |1 1>-         0.00%    0.00%    0.00%    0.00%    0.00%    0.00%    0.00%    0.00%
 27  1     3    1  |1 1>-         0.00%    0.00%    0.00%    0.00%    0.00%    0.00%    0.00%    0.02%
 28  1     4    1  |1 1>-        19.15%    0.00%    0.00%    0.00%    0.00%    4.81%    0.00%    0.01%
 29  1     5    1  |1 1>-        14.21%    0.00%    0.00%    0.00%    0.00%    2.93%    0.00%    0.01%
 30  1     6    1  |1 1>-         0.00%    0.01%    1.93%    0.00%    0.00%    0.00%    0.00%    0.24%
 31  1     7    1  |1 1>-         0.00%   33.32%    0.00%    0.00%    0.00%    0.00%    7.73%    0.00%
 32  1     8    1  |1 1>-         0.01%    0.00%    0.00%    1.93%    0.00%    0.00%    0.00%    0.00%
 33  1     9    1  |1 1>-         0.00%    0.00%   44.14%    0.00%    0.04%    0.00%    0.00%   14.35%
 34  1    10    1  |1 1>-         0.00%    0.00%    0.04%    0.00%   58.83%    0.01%    0.01%    0.00%
 35  1    11    1  |1 1>-         0.00%    0.00%    0.00%   44.17%    0.01%    0.01%    0.00%    0.00%
 36  1    12    1  |1 1>-         0.00%    0.00%    0.00%    0.00%    0.00%    0.00%    0.00%    3.09%
 37  1     1    1  |0 0>          0.00%    0.00%    0.01%    0.00%    0.01%    0.01%    0.00%    0.00%
 38  1     2    1  |0 0>          0.00%    0.00%    0.01%    0.01%    0.01%    0.00%    0.00%    0.00%
 39  1     3    1  |0 0>          0.00%    0.00%    0.00%    0.00%    0.00%    0.00%    0.03%    0.00%
 40  1     4    1  |0 0>          0.00%    0.00%    0.01%    0.02%    0.00%    0.00%    0.00%    0.00%
 41  1     5    1  |0 0>          0.00%    0.00%    0.00%    0.00%    0.01%    0.02%    0.00%    0.00%
 42  1     6    1  |0 0>          0.00%    0.00%    0.00%    0.00%    0.00%    0.00%    0.00%    0.00%

   Total
 Nr Sym  State Sym Spin / Nr.     41       42

  1  1     1    1  |1 1>+         0.02%    0.00%
  2  1     2    1  |1 1>+         0.00%    0.00%
  3  1     3    1  |1 1>+         0.00%    0.00%
  4  1     4    1  |1 1>+         0.00%    0.05%
  5  1     5    1  |1 1>+         0.00%    0.29%
  6  1     6    1  |1 1>+         0.00%    0.00%
  7  1     7    1  |1 1>+         0.01%    0.00%
  8  1     8    1  |1 1>+         0.24%    0.00%
  9  1     9    1  |1 1>+         0.00%    0.00%
 10  1    10    1  |1 1>+         0.63%    0.00%
 11  1    11    1  |1 1>+        14.39%    0.00%
 12  1    12    1  |1 1>+         0.01%   69.04%
 13  1     1    1  |1 0>          0.00%    0.00%
 14  1     2    1  |1 0>          0.00%    0.02%
 15  1     3    1  |1 0>          0.02%    0.00%
 16  1     4    1  |1 0>          0.01%    0.00%
 17  1     5    1  |1 0>          0.00%    0.00%
 18  1     6    1  |1 0>          0.24%    0.00%
 19  1     7    1  |1 0>          0.00%    0.26%
 20  1     8    1  |1 0>          0.00%    0.00%
 21  1     9    1  |1 0>         14.34%    0.02%
 22  1    10    1  |1 0>          0.01%   15.01%
 23  1    11    1  |1 0>          0.00%    0.00%
 24  1    12    1  |1 0>          3.09%    0.00%
 25  1     1    1  |1 1>-         0.00%    0.02%
 26  1     2    1  |1 1>-         0.00%    0.00%
 27  1     3    1  |1 1>-         0.00%    0.00%
 28  1     4    1  |1 1>-         0.12%    0.00%
 29  1     5    1  |1 1>-         0.20%    0.00%
 30  1     6    1  |1 1>-         0.01%    0.00%
 31  1     7    1  |1 1>-         0.00%    0.00%
 32  1     8    1  |1 1>-         0.00%    0.26%
 33  1     9    1  |1 1>-         0.67%    0.00%
 34  1    10    1  |1 1>-         0.00%    0.00%
 35  1    11    1  |1 1>-         0.00%   15.02%
 36  1    12    1  |1 1>-        65.95%    0.01%
 37  1     1    1  |0 0>          0.00%    0.00%
 38  1     2    1  |0 0>          0.00%    0.00%
 39  1     3    1  |0 0>          0.00%    0.00%
 40  1     4    1  |0 0>          0.00%    0.00%
 41  1     5    1  |0 0>          0.00%    0.00%
 42  1     6    1  |0 0>          0.00%    0.00%


 No matrix element <i|DMX|i> larger than 5E-7
 No matrix element <i|DMX|1> larger than 5E-7

 No matrix element <i|DMY|i> larger than 5E-7
 No matrix element <i|DMY|1> larger than 5E-7

 No matrix element <i|DMZ|i> larger than 5E-7
 No matrix element <i|DMZ|1> larger than 5E-7


 **********************************************************************************************************************************
 DATASETS  * FILE   NREC   LENGTH (MB)   RECORD NAMES
              1      24      230.10       500      610      700      900      950      970     1000      129      960     1700   
                                          VAR    BASINP    GEOM    SYMINP    ZMAT    AOBASIS   BASIS     P2S    ABASIS    OPER   
                                         1101     1401     1411     1412     1650     1100     1400     1410     1200     1210   
                                          SR      EKINR    POTR     PVPR    MOLCAS      S      EKIN      POT      H0       H01  
                                         1080     1600     1380     1700(1)
                                         AOSYM     SMH     JKOP     OPER   

              2       7      897.38       700     1000      520     2100     2140     5203     5201   
                                         GEOM     BASIS   MCVARS     RHF     MCSCF    MRCI     MRCI   

 PROGRAMS   *        TOTAL        CI        CI        CI     MULTI   RHF-SCF       INT
 CPU TIMES  *     90420.59  86039.63    638.61   3736.51      3.69      0.12      1.73
 REAL TIME  *     91226.63 SEC
 DISK USED  *       958.76 MB (local),       11.93 GB (total)
 SF USED    *         7.38 GB
 GA USED    *         0.00 MB       (max)       0.00 MB       (current)
 **********************************************************************************************************************************

 CI/aug-cc-pWCVTZ-DK3 energy=  -6174.213646123764

              CI              CI           MULTI         RHF-SCF
  -6174.30061879  -6174.16828167  -6173.66566405  -6172.96982975
 **********************************************************************************************************************************
 Molpro calculation terminated with 1 warning(s)
