
 Working directory              : /wrk/irikura/molpro.dDX4wribFg/
 Global scratch directory       : /wrk/irikura/molpro.dDX4wribFg/
 Wavefunction directory         : /home/irikura/wfu/
 Main file repository           : /wrk/irikura/molpro.dDX4wribFg/

 id        : nistki

 Nodes            nprocs
 pn112695.nist.gov   16
 GA implementation: MPI file
 GA implementation (serial work in mppx): MPI file

 Using customized tuning parameters: mindgm=1; mindgv=20; mindgc=4; mindgr=1; noblas=0; minvec=7
 default implementation of scratch files=sf  


 Variables initialized (1040), CPU time= 0.02 sec
 ***,Sn SO-CI
                                                                                 ! Heaver weight on the three ground terms
 memory,1500,M;
 
 gprint,orbitals,civector,basis;
 
 symmetry,xyz
 geometry={Sn};
 
 basis={
 ecp,sn,ECP28MDF;
 spdfghi,sn,aug-cc-pwCV5Z-PP;C; spdf,1,even,nprim=1,ratio=3.0;
 }
 
                                                                                 ! spherical anion orbitals (4S)
 {rhf; wf,nelec=23,sym=2,spin=3}
 
 NTRIP=12
 NSING=15
 
                                                                                 ! add 6p to active space
 {multi
     closed,6,3
     occ,7,9
     wf,nelec=22,sym=1,spin=2;state,NTRIP;
 weight,3[5],(NTRIP-3)[1]
     wf,nelec=22,sym=1,spin=0;state,NSING;
 weight,6[5],(NSING-6)[1]
     expec2,lxx,lyy,lzz;
 }
 table, energy, ll
 title, Energies and &lt;L**2&gt; values
 
 core,0,0
 
 {ci;wf,sym=1,spin=2;state,NTRIP; save,5201.2}
 hlsdiag = energd4
 {ci;wf,sym=1,spin=0;state,NSING; save,5101.2}
 hlsdiag(NTRIP+1) = energd4
 
 table,hlsdiag
 
 {ci;hlsmat,ecp,5201.2,5101.2;print,vls=0,hls=0}                                 !compute and diagonalize SO matrix
 Commands initialized (846), CPU time= 0.02 sec, 717 directives.
 Default parameters read. Elapsed time= 0.21 sec

 Checking input...
 Passed
1


                                         ***  PROGRAM SYSTEM MOLPRO  ***
                                       Copyright, TTI GmbH Stuttgart, 2015
                                    Version 2023.2 linked Fri Sep 22 03:27:09 2023


 **********************************************************************************************************************************
 LABEL *   Sn SO-CI                                                                                                                                                      
  (32 PROC) 64 bit mpp version                                                           DATE: 27-Sep-24          TIME: 09:21:28  
 **********************************************************************************************************************************

 SHA1:             3c61bfe44d37c8635c785372c339f5cbdd4e4b59
 **********************************************************************************************************************************

 Memory per process:      1500 MW
 Total memory per node:  24000 MW

 GA preallocation disabled
 GA check disabled

 Variable memory set to 1500.0 MW


 ZSYMEL=XYZ

 SETTING BASIS          =    USERDEF


 Recomputing integrals since basis changed


 Using spherical harmonics

 Library entry Sn   ECP ECP28MDF                 selected for group  1
 Library entry SN     S AUG-CC-PWCV5Z-PP     selected for orbital group  1
 Even tempered Sn S diffuse               selected for group 1    nprim= 1    centre=  0.007    ratio= 3.000    dratio= 1.000
 Library entry SN     P AUG-CC-PWCV5Z-PP     selected for orbital group  1
 Even tempered Sn P diffuse               selected for group 1    nprim= 1    centre=  0.005    ratio= 3.000    dratio= 1.000
 Library entry SN     D AUG-CC-PWCV5Z-PP     selected for orbital group  1
 Even tempered Sn D diffuse               selected for group 1    nprim= 1    centre=  0.010    ratio= 3.000    dratio= 1.000
 Library entry SN     F AUG-CC-PWCV5Z-PP     selected for orbital group  1
 Even tempered Sn F diffuse               selected for group 1    nprim= 1    centre=  0.020    ratio= 3.000    dratio= 1.000
 Library entry SN     G AUG-CC-PWCV5Z-PP     selected for orbital group  1
 Library entry SN     H AUG-CC-PWCV5Z-PP     selected for orbital group  1
 Library entry SN     I AUG-CC-PWCV5Z-PP     selected for orbital group  1


 PROGRAM * SEWARD (Integral evaluation for generally contracted gaussian basis sets)     Author: Roland Lindh, 1990

 Geometry written to block  1 of record 700

 Orientation using atomic masses  
 Molecule type: Atom
 User-specified symmetry elements: XYZ
 Symmetry elements: XYZ
 Rotational constants:       0.0000000      0.0000000      0.0000000 GHz  (calculated with average atomic masses)

 Point group  Ci  



 ATOMIC COORDINATES

 NR  ATOM    CHARGE       X              Y              Z

   1  SN     22.00    0.000000000    0.000000000    0.000000000


          SN  CORE POTENTIAL

          g POTENTIAL

 POWERS             2
 EXPONENTIALS   1.000000    
 COEFFICIENTS   0.000000    

          s - g POTENTIAL

 POWERS             2              2
 EXPONENTIALS   17.42041       7.631155    
 COEFFICIENTS   279.9887       62.37781    

          p - g POTENTIAL

 POWERS             2              2              2              2
 EXPONENTIALS   16.13102       15.62808       7.325608       6.942519    
 COEFFICIENTS   66.16252       132.1744       16.33942       32.48896    

          d - g POTENTIAL

 POWERS             2              2              2              2
 EXPONENTIALS   15.51498       15.18816       5.456024       5.363105    
 COEFFICIENTS   36.38744       54.50784       8.696823       12.84021    

          f - g POTENTIAL

 POWERS             2              2
 EXPONENTIALS   12.28235       12.27215    
 COEFFICIENTS  -12.57633      -16.59594    


          SN  SPIN-ORBIT POTENTIAL

          p POTENTIAL

 POWERS             2              2              2              2
 EXPONENTIALS   16.13102       15.62808       7.325608       6.942519    
 COEFFICIENTS  -132.3250       132.1744      -32.67883       32.48896    

          d POTENTIAL

 POWERS             2              2              2              2
 EXPONENTIALS   15.51498       15.18816       5.456024       5.363105    
 COEFFICIENTS  -36.38744       36.33856      -8.696823       8.560139    

          f POTENTIAL

 POWERS             2              2
 EXPONENTIALS   12.28235       12.27215    
 COEFFICIENTS   8.384222      -8.297972    


 BASIS DATA

   Nr Sym  Nuc  Type         Exponents   Contraction coefficients

    1.1 Ag    1  1s       41524.900000     0.000006    0.000000    0.000000    0.000000    0.000000    0.000000
                                           0.000000
    2.1 Ag                 6000.750000     0.000048    0.000000    0.000000    0.000000    0.000000    0.000000
                                           0.000000
    3.1 Ag                 1326.310000     0.000240    0.000000    0.000000    0.000000    0.000000    0.000000
                                           0.000000
    4.1 Ag                  363.711000     0.000777    0.000000    0.000000    0.000000    0.000000    0.000000
                                           0.000000
    5.1 Ag                   97.929300     0.001885    0.000000    0.000000    0.000000    0.000000    0.000000
                                           0.000000
    6.1 Ag                   30.001000    -0.040299    0.000000    0.000000    0.000000    0.000000    0.000000
                                           0.000000
    7.1 Ag                   18.734900     0.188381    1.000000    0.000000    0.000000    0.000000    0.000000
                                           0.000000
                              9.104330    -0.221278    0.000000    0.000000    0.000000    0.000000    0.000000
                                           0.000000
                              5.571430    -0.599729    0.000000    0.000000    0.000000    0.000000    0.000000
                                           0.000000
                              3.374280     0.246610    0.000000    0.000000    0.000000    0.000000    0.000000
                                           0.000000
                              1.692130     0.783012    0.000000    0.000000    0.000000    0.000000    0.000000
                                           0.000000
                              0.875497     0.422966    0.000000    1.000000    0.000000    0.000000    0.000000
                                           0.000000
                              0.370553     0.036634    0.000000    0.000000    1.000000    0.000000    0.000000
                                           0.000000
                              0.205247    -0.005686    0.000000    0.000000    0.000000    1.000000    0.000000
                                           0.000000
                              0.099654     0.001600    0.000000    0.000000    0.000000    0.000000    1.000000
                                           0.000000
                              0.047005    -0.000259    0.000000    0.000000    0.000000    0.000000    0.000000
                                           1.000000
    8.1 Ag    1  1s           7.679500     1.000000
    9.1 Ag    1  1s           4.528800     1.000000
   10.1 Ag    1  1s           2.670700     1.000000
   11.1 Ag    1  1s           1.575000     1.000000
   12.1 Ag    1  1s           0.019900     1.000000
   13.1 Ag    1  1s           0.006633     1.000000
   14.1 Ag    1  3d0        664.308000     0.000010
                            207.972000     0.000088
                             81.145400     0.000488
                             33.116400     0.002578
                             13.770700    -0.012688
                              6.205420     0.034247
                              3.640330     0.189762
                              2.064110     0.320493
                              1.140520     0.327400
                              0.618067     0.218514
                              0.326252     0.085613
                              0.165692     0.015062
                              0.075400     0.000931
   15.1 Ag    1  3d2-       664.308000     0.000010
                            207.972000     0.000088
                             81.145400     0.000488
                             33.116400     0.002578
                             13.770700    -0.012688
                              6.205420     0.034247
                              3.640330     0.189762
                              2.064110     0.320493
                              1.140520     0.327400
                              0.618067     0.218514
                              0.326252     0.085613
                              0.165692     0.015062
                              0.075400     0.000931
   16.1 Ag    1  3d1+       664.308000     0.000010
                            207.972000     0.000088
                             81.145400     0.000488
                             33.116400     0.002578
                             13.770700    -0.012688
                              6.205420     0.034247
                              3.640330     0.189762
                              2.064110     0.320493
                              1.140520     0.327400
                              0.618067     0.218514
                              0.326252     0.085613
                              0.165692     0.015062
                              0.075400     0.000931
   17.1 Ag    1  3d2+       664.308000     0.000010
                            207.972000     0.000088
                             81.145400     0.000488
                             33.116400     0.002578
                             13.770700    -0.012688
                              6.205420     0.034247
                              3.640330     0.189762
                              2.064110     0.320493
                              1.140520     0.327400
                              0.618067     0.218514
                              0.326252     0.085613
                              0.165692     0.015062
                              0.075400     0.000931
   18.1 Ag    1  3d1-       664.308000     0.000010
                            207.972000     0.000088
                             81.145400     0.000488
                             33.116400     0.002578
                             13.770700    -0.012688
                              6.205420     0.034247
                              3.640330     0.189762
                              2.064110     0.320493
                              1.140520     0.327400
                              0.618067     0.218514
                              0.326252     0.085613
                              0.165692     0.015062
                              0.075400     0.000931
   19.1 Ag    1  3d0        664.308000     0.000000
                            207.972000     0.000000
                             81.145400     0.000000
                             33.116400     0.000000
                             13.770700     0.000000
                              6.205420     0.000000
                              3.640330     0.000000
                              2.064110     0.000000
                              1.140520     0.000000
                              0.618067     1.000000
                              0.326252     0.000000
                              0.165692     0.000000
                              0.075400     0.000000
   20.1 Ag    1  3d2-       664.308000     0.000000
                            207.972000     0.000000
                             81.145400     0.000000
                             33.116400     0.000000
                             13.770700     0.000000
                              6.205420     0.000000
                              3.640330     0.000000
                              2.064110     0.000000
                              1.140520     0.000000
                              0.618067     1.000000
                              0.326252     0.000000
                              0.165692     0.000000
                              0.075400     0.000000
   21.1 Ag    1  3d1+       664.308000     0.000000
                            207.972000     0.000000
                             81.145400     0.000000
                             33.116400     0.000000
                             13.770700     0.000000
                              6.205420     0.000000
                              3.640330     0.000000
                              2.064110     0.000000
                              1.140520     0.000000
                              0.618067     1.000000
                              0.326252     0.000000
                              0.165692     0.000000
                              0.075400     0.000000
   22.1 Ag    1  3d2+       664.308000     0.000000
                            207.972000     0.000000
                             81.145400     0.000000
                             33.116400     0.000000
                             13.770700     0.000000
                              6.205420     0.000000
                              3.640330     0.000000
                              2.064110     0.000000
                              1.140520     0.000000
                              0.618067     1.000000
                              0.326252     0.000000
                              0.165692     0.000000
                              0.075400     0.000000
   23.1 Ag    1  3d1-       664.308000     0.000000
                            207.972000     0.000000
                             81.145400     0.000000
                             33.116400     0.000000
                             13.770700     0.000000
                              6.205420     0.000000
                              3.640330     0.000000
                              2.064110     0.000000
                              1.140520     0.000000
                              0.618067     1.000000
                              0.326252     0.000000
                              0.165692     0.000000
                              0.075400     0.000000
   24.1 Ag    1  3d0        664.308000     0.000000
                            207.972000     0.000000
                             81.145400     0.000000
                             33.116400     0.000000
                             13.770700     0.000000
                              6.205420     0.000000
                              3.640330     0.000000
                              2.064110     0.000000
                              1.140520     0.000000
                              0.618067     0.000000
                              0.326252     1.000000
                              0.165692     0.000000
                              0.075400     0.000000
   25.1 Ag    1  3d2-       664.308000     0.000000
                            207.972000     0.000000
                             81.145400     0.000000
                             33.116400     0.000000
                             13.770700     0.000000
                              6.205420     0.000000
                              3.640330     0.000000
                              2.064110     0.000000
                              1.140520     0.000000
                              0.618067     0.000000
                              0.326252     1.000000
                              0.165692     0.000000
                              0.075400     0.000000
   26.1 Ag    1  3d1+       664.308000     0.000000
                            207.972000     0.000000
                             81.145400     0.000000
                             33.116400     0.000000
                             13.770700     0.000000
                              6.205420     0.000000
                              3.640330     0.000000
                              2.064110     0.000000
                              1.140520     0.000000
                              0.618067     0.000000
                              0.326252     1.000000
                              0.165692     0.000000
                              0.075400     0.000000
   27.1 Ag    1  3d2+       664.308000     0.000000
                            207.972000     0.000000
                             81.145400     0.000000
                             33.116400     0.000000
                             13.770700     0.000000
                              6.205420     0.000000
                              3.640330     0.000000
                              2.064110     0.000000
                              1.140520     0.000000
                              0.618067     0.000000
                              0.326252     1.000000
                              0.165692     0.000000
                              0.075400     0.000000
   28.1 Ag    1  3d1-       664.308000     0.000000
                            207.972000     0.000000
                             81.145400     0.000000
                             33.116400     0.000000
                             13.770700     0.000000
                              6.205420     0.000000
                              3.640330     0.000000
                              2.064110     0.000000
                              1.140520     0.000000
                              0.618067     0.000000
                              0.326252     1.000000
                              0.165692     0.000000
                              0.075400     0.000000
   29.1 Ag    1  3d0        664.308000     0.000000
                            207.972000     0.000000
                             81.145400     0.000000
                             33.116400     0.000000
                             13.770700     0.000000
                              6.205420     0.000000
                              3.640330     0.000000
                              2.064110     0.000000
                              1.140520     0.000000
                              0.618067     0.000000
                              0.326252     0.000000
                              0.165692     1.000000
                              0.075400     0.000000
   30.1 Ag    1  3d2-       664.308000     0.000000
                            207.972000     0.000000
                             81.145400     0.000000
                             33.116400     0.000000
                             13.770700     0.000000
                              6.205420     0.000000
                              3.640330     0.000000
                              2.064110     0.000000
                              1.140520     0.000000
                              0.618067     0.000000
                              0.326252     0.000000
                              0.165692     1.000000
                              0.075400     0.000000
   31.1 Ag    1  3d1+       664.308000     0.000000
                            207.972000     0.000000
                             81.145400     0.000000
                             33.116400     0.000000
                             13.770700     0.000000
                              6.205420     0.000000
                              3.640330     0.000000
                              2.064110     0.000000
                              1.140520     0.000000
                              0.618067     0.000000
                              0.326252     0.000000
                              0.165692     1.000000
                              0.075400     0.000000
   32.1 Ag    1  3d2+       664.308000     0.000000
                            207.972000     0.000000
                             81.145400     0.000000
                             33.116400     0.000000
                             13.770700     0.000000
                              6.205420     0.000000
                              3.640330     0.000000
                              2.064110     0.000000
                              1.140520     0.000000
                              0.618067     0.000000
                              0.326252     0.000000
                              0.165692     1.000000
                              0.075400     0.000000
   33.1 Ag    1  3d1-       664.308000     0.000000
                            207.972000     0.000000
                             81.145400     0.000000
                             33.116400     0.000000
                             13.770700     0.000000
                              6.205420     0.000000
                              3.640330     0.000000
                              2.064110     0.000000
                              1.140520     0.000000
                              0.618067     0.000000
                              0.326252     0.000000
                              0.165692     1.000000
                              0.075400     0.000000
   34.1 Ag    1  3d0        664.308000     0.000000
                            207.972000     0.000000
                             81.145400     0.000000
                             33.116400     0.000000
                             13.770700     0.000000
                              6.205420     0.000000
                              3.640330     0.000000
                              2.064110     0.000000
                              1.140520     0.000000
                              0.618067     0.000000
                              0.326252     0.000000
                              0.165692     0.000000
                              0.075400     1.000000
   35.1 Ag    1  3d2-       664.308000     0.000000
                            207.972000     0.000000
                             81.145400     0.000000
                             33.116400     0.000000
                             13.770700     0.000000
                              6.205420     0.000000
                              3.640330     0.000000
                              2.064110     0.000000
                              1.140520     0.000000
                              0.618067     0.000000
                              0.326252     0.000000
                              0.165692     0.000000
                              0.075400     1.000000
   36.1 Ag    1  3d1+       664.308000     0.000000
                            207.972000     0.000000
                             81.145400     0.000000
                             33.116400     0.000000
                             13.770700     0.000000
                              6.205420     0.000000
                              3.640330     0.000000
                              2.064110     0.000000
                              1.140520     0.000000
                              0.618067     0.000000
                              0.326252     0.000000
                              0.165692     0.000000
                              0.075400     1.000000
   37.1 Ag    1  3d2+       664.308000     0.000000
                            207.972000     0.000000
                             81.145400     0.000000
                             33.116400     0.000000
                             13.770700     0.000000
                              6.205420     0.000000
                              3.640330     0.000000
                              2.064110     0.000000
                              1.140520     0.000000
                              0.618067     0.000000
                              0.326252     0.000000
                              0.165692     0.000000
                              0.075400     1.000000
   38.1 Ag    1  3d1-       664.308000     0.000000
                            207.972000     0.000000
                             81.145400     0.000000
                             33.116400     0.000000
                             13.770700     0.000000
                              6.205420     0.000000
                              3.640330     0.000000
                              2.064110     0.000000
                              1.140520     0.000000
                              0.618067     0.000000
                              0.326252     0.000000
                              0.165692     0.000000
                              0.075400     1.000000
   39.1 Ag    1  3d0          8.822300     1.000000
   40.1 Ag    1  3d2-         8.822300     1.000000
   41.1 Ag    1  3d1+         8.822300     1.000000
   42.1 Ag    1  3d2+         8.822300     1.000000
   43.1 Ag    1  3d1-         8.822300     1.000000
   44.1 Ag    1  3d0          5.519700     1.000000
   45.1 Ag    1  3d2-         5.519700     1.000000
   46.1 Ag    1  3d1+         5.519700     1.000000
   47.1 Ag    1  3d2+         5.519700     1.000000
   48.1 Ag    1  3d1-         5.519700     1.000000
   49.1 Ag    1  3d0          3.453400     1.000000
   50.1 Ag    1  3d2-         3.453400     1.000000
   51.1 Ag    1  3d1+         3.453400     1.000000
   52.1 Ag    1  3d2+         3.453400     1.000000
   53.1 Ag    1  3d1-         3.453400     1.000000
   54.1 Ag    1  3d0          2.160600     1.000000
   55.1 Ag    1  3d2-         2.160600     1.000000
   56.1 Ag    1  3d1+         2.160600     1.000000
   57.1 Ag    1  3d2+         2.160600     1.000000
   58.1 Ag    1  3d1-         2.160600     1.000000
   59.1 Ag    1  3d0          0.030800     1.000000
   60.1 Ag    1  3d2-         0.030800     1.000000
   61.1 Ag    1  3d1+         0.030800     1.000000
   62.1 Ag    1  3d2+         0.030800     1.000000
   63.1 Ag    1  3d1-         0.030800     1.000000
   64.1 Ag    1  3d0          0.010267     1.000000
   65.1 Ag    1  3d2-         0.010267     1.000000
   66.1 Ag    1  3d1+         0.010267     1.000000
   67.1 Ag    1  3d2+         0.010267     1.000000
   68.1 Ag    1  3d1-         0.010267     1.000000
   69.1 Ag    1  5g0          0.532500     1.000000
   70.1 Ag    1  5g2-         0.532500     1.000000
   71.1 Ag    1  5g1+         0.532500     1.000000
   72.1 Ag    1  5g4+         0.532500     1.000000
   73.1 Ag    1  5g1-         0.532500     1.000000
   74.1 Ag    1  5g2+         0.532500     1.000000
   75.1 Ag    1  5g4-         0.532500     1.000000
   76.1 Ag    1  5g3+         0.532500     1.000000
   77.1 Ag    1  5g3-         0.532500     1.000000
   78.1 Ag    1  5g0          0.254200     1.000000
   79.1 Ag    1  5g2-         0.254200     1.000000
   80.1 Ag    1  5g1+         0.254200     1.000000
   81.1 Ag    1  5g4+         0.254200     1.000000
   82.1 Ag    1  5g1-         0.254200     1.000000
   83.1 Ag    1  5g2+         0.254200     1.000000
   84.1 Ag    1  5g4-         0.254200     1.000000
   85.1 Ag    1  5g3+         0.254200     1.000000
   86.1 Ag    1  5g3-         0.254200     1.000000
   87.1 Ag    1  5g0          5.007900     1.000000
   88.1 Ag    1  5g2-         5.007900     1.000000
   89.1 Ag    1  5g1+         5.007900     1.000000
   90.1 Ag    1  5g4+         5.007900     1.000000
   91.1 Ag    1  5g1-         5.007900     1.000000
   92.1 Ag    1  5g2+         5.007900     1.000000
   93.1 Ag    1  5g4-         5.007900     1.000000
   94.1 Ag    1  5g3+         5.007900     1.000000
   95.1 Ag    1  5g3-         5.007900     1.000000
   96.1 Ag    1  5g0          2.436800     1.000000
   97.1 Ag    1  5g2-         2.436800     1.000000
   98.1 Ag    1  5g1+         2.436800     1.000000
   99.1 Ag    1  5g4+         2.436800     1.000000
  100.1 Ag    1  5g1-         2.436800     1.000000
  101.1 Ag    1  5g2+         2.436800     1.000000
  102.1 Ag    1  5g4-         2.436800     1.000000
  103.1 Ag    1  5g3+         2.436800     1.000000
  104.1 Ag    1  5g3-         2.436800     1.000000
  105.1 Ag    1  5g0          1.185700     1.000000
  106.1 Ag    1  5g2-         1.185700     1.000000
  107.1 Ag    1  5g1+         1.185700     1.000000
  108.1 Ag    1  5g4+         1.185700     1.000000
  109.1 Ag    1  5g1-         1.185700     1.000000
  110.1 Ag    1  5g2+         1.185700     1.000000
  111.1 Ag    1  5g4-         1.185700     1.000000
  112.1 Ag    1  5g3+         1.185700     1.000000
  113.1 Ag    1  5g3-         1.185700     1.000000
  114.1 Ag    1  5g0          0.117900     1.000000
  115.1 Ag    1  5g2-         0.117900     1.000000
  116.1 Ag    1  5g1+         0.117900     1.000000
  117.1 Ag    1  5g4+         0.117900     1.000000
  118.1 Ag    1  5g1-         0.117900     1.000000
  119.1 Ag    1  5g2+         0.117900     1.000000
  120.1 Ag    1  5g4-         0.117900     1.000000
  121.1 Ag    1  5g3+         0.117900     1.000000
  122.1 Ag    1  5g3-         0.117900     1.000000
  123.1 Ag    1  7i6+         1.309300     1.000000
  124.1 Ag    1  7i2-         1.309300     1.000000
  125.1 Ag    1  7i5+         1.309300     1.000000
  126.1 Ag    1  7i4+         1.309300     1.000000
  127.1 Ag    1  7i5-         1.309300     1.000000
  128.1 Ag    1  7i2+         1.309300     1.000000
  129.1 Ag    1  7i6-         1.309300     1.000000
  130.1 Ag    1  7i3+         1.309300     1.000000
  131.1 Ag    1  7i4-         1.309300     1.000000
  132.1 Ag    1  7i0          1.309300     1.000000
  133.1 Ag    1  7i3-         1.309300     1.000000
  134.1 Ag    1  7i1-         1.309300     1.000000
  135.1 Ag    1  7i1+         1.309300     1.000000
    1.2 Au    1  2px        484.073000     0.000066
                            107.979000     0.000442
                             36.026800    -0.003236
                             22.495200     0.026363
                              9.405650    -0.153933
                              5.877910    -0.075804
                              2.925090     0.372388
                              1.549900     0.520309
                              0.794091     0.259335
                              0.364090     0.033161
                              0.170826    -0.000096
                              0.078038     0.000811
                              0.034833    -0.000113
    2.2 Au    1  2py        484.073000     0.000066
                            107.979000     0.000442
                             36.026800    -0.003236
                             22.495200     0.026363
                              9.405650    -0.153933
                              5.877910    -0.075804
                              2.925090     0.372388
                              1.549900     0.520309
                              0.794091     0.259335
                              0.364090     0.033161
                              0.170826    -0.000096
                              0.078038     0.000811
                              0.034833    -0.000113
    3.2 Au    1  2pz        484.073000     0.000066
                            107.979000     0.000442
                             36.026800    -0.003236
                             22.495200     0.026363
                              9.405650    -0.153933
                              5.877910    -0.075804
                              2.925090     0.372388
                              1.549900     0.520309
                              0.794091     0.259335
                              0.364090     0.033161
                              0.170826    -0.000096
                              0.078038     0.000811
                              0.034833    -0.000113
    4.2 Au    1  2px        484.073000     0.000000
                            107.979000     0.000000
                             36.026800     0.000000
                             22.495200     1.000000
                              9.405650     0.000000
                              5.877910     0.000000
                              2.925090     0.000000
                              1.549900     0.000000
                              0.794091     0.000000
                              0.364090     0.000000
                              0.170826     0.000000
                              0.078038     0.000000
                              0.034833     0.000000
    5.2 Au    1  2py        484.073000     0.000000
                            107.979000     0.000000
                             36.026800     0.000000
                             22.495200     1.000000
                              9.405650     0.000000
                              5.877910     0.000000
                              2.925090     0.000000
                              1.549900     0.000000
                              0.794091     0.000000
                              0.364090     0.000000
                              0.170826     0.000000
                              0.078038     0.000000
                              0.034833     0.000000
    6.2 Au    1  2pz        484.073000     0.000000
                            107.979000     0.000000
                             36.026800     0.000000
                             22.495200     1.000000
                              9.405650     0.000000
                              5.877910     0.000000
                              2.925090     0.000000
                              1.549900     0.000000
                              0.794091     0.000000
                              0.364090     0.000000
                              0.170826     0.000000
                              0.078038     0.000000
                              0.034833     0.000000
    7.2 Au    1  2px        484.073000     0.000000
                            107.979000     0.000000
                             36.026800     0.000000
                             22.495200     0.000000
                              9.405650     0.000000
                              5.877910     0.000000
                              2.925090     0.000000
                              1.549900     0.000000
                              0.794091     1.000000
                              0.364090     0.000000
                              0.170826     0.000000
                              0.078038     0.000000
                              0.034833     0.000000
    8.2 Au    1  2py        484.073000     0.000000
                            107.979000     0.000000
                             36.026800     0.000000
                             22.495200     0.000000
                              9.405650     0.000000
                              5.877910     0.000000
                              2.925090     0.000000
                              1.549900     0.000000
                              0.794091     1.000000
                              0.364090     0.000000
                              0.170826     0.000000
                              0.078038     0.000000
                              0.034833     0.000000
    9.2 Au    1  2pz        484.073000     0.000000
                            107.979000     0.000000
                             36.026800     0.000000
                             22.495200     0.000000
                              9.405650     0.000000
                              5.877910     0.000000
                              2.925090     0.000000
                              1.549900     0.000000
                              0.794091     1.000000
                              0.364090     0.000000
                              0.170826     0.000000
                              0.078038     0.000000
                              0.034833     0.000000
   10.2 Au    1  2px        484.073000     0.000000
                            107.979000     0.000000
                             36.026800     0.000000
                             22.495200     0.000000
                              9.405650     0.000000
                              5.877910     0.000000
                              2.925090     0.000000
                              1.549900     0.000000
                              0.794091     0.000000
                              0.364090     1.000000
                              0.170826     0.000000
                              0.078038     0.000000
                              0.034833     0.000000
   11.2 Au    1  2py        484.073000     0.000000
                            107.979000     0.000000
                             36.026800     0.000000
                             22.495200     0.000000
                              9.405650     0.000000
                              5.877910     0.000000
                              2.925090     0.000000
                              1.549900     0.000000
                              0.794091     0.000000
                              0.364090     1.000000
                              0.170826     0.000000
                              0.078038     0.000000
                              0.034833     0.000000
   12.2 Au    1  2pz        484.073000     0.000000
                            107.979000     0.000000
                             36.026800     0.000000
                             22.495200     0.000000
                              9.405650     0.000000
                              5.877910     0.000000
                              2.925090     0.000000
                              1.549900     0.000000
                              0.794091     0.000000
                              0.364090     1.000000
                              0.170826     0.000000
                              0.078038     0.000000
                              0.034833     0.000000
   13.2 Au    1  2px        484.073000     0.000000
                            107.979000     0.000000
                             36.026800     0.000000
                             22.495200     0.000000
                              9.405650     0.000000
                              5.877910     0.000000
                              2.925090     0.000000
                              1.549900     0.000000
                              0.794091     0.000000
                              0.364090     0.000000
                              0.170826     1.000000
                              0.078038     0.000000
                              0.034833     0.000000
   14.2 Au    1  2py        484.073000     0.000000
                            107.979000     0.000000
                             36.026800     0.000000
                             22.495200     0.000000
                              9.405650     0.000000
                              5.877910     0.000000
                              2.925090     0.000000
                              1.549900     0.000000
                              0.794091     0.000000
                              0.364090     0.000000
                              0.170826     1.000000
                              0.078038     0.000000
                              0.034833     0.000000
   15.2 Au    1  2pz        484.073000     0.000000
                            107.979000     0.000000
                             36.026800     0.000000
                             22.495200     0.000000
                              9.405650     0.000000
                              5.877910     0.000000
                              2.925090     0.000000
                              1.549900     0.000000
                              0.794091     0.000000
                              0.364090     0.000000
                              0.170826     1.000000
                              0.078038     0.000000
                              0.034833     0.000000
   16.2 Au    1  2px        484.073000     0.000000
                            107.979000     0.000000
                             36.026800     0.000000
                             22.495200     0.000000
                              9.405650     0.000000
                              5.877910     0.000000
                              2.925090     0.000000
                              1.549900     0.000000
                              0.794091     0.000000
                              0.364090     0.000000
                              0.170826     0.000000
                              0.078038     1.000000
                              0.034833     0.000000
   17.2 Au    1  2py        484.073000     0.000000
                            107.979000     0.000000
                             36.026800     0.000000
                             22.495200     0.000000
                              9.405650     0.000000
                              5.877910     0.000000
                              2.925090     0.000000
                              1.549900     0.000000
                              0.794091     0.000000
                              0.364090     0.000000
                              0.170826     0.000000
                              0.078038     1.000000
                              0.034833     0.000000
   18.2 Au    1  2pz        484.073000     0.000000
                            107.979000     0.000000
                             36.026800     0.000000
                             22.495200     0.000000
                              9.405650     0.000000
                              5.877910     0.000000
                              2.925090     0.000000
                              1.549900     0.000000
                              0.794091     0.000000
                              0.364090     0.000000
                              0.170826     0.000000
                              0.078038     1.000000
                              0.034833     0.000000
   19.2 Au    1  2px        484.073000     0.000000
                            107.979000     0.000000
                             36.026800     0.000000
                             22.495200     0.000000
                              9.405650     0.000000
                              5.877910     0.000000
                              2.925090     0.000000
                              1.549900     0.000000
                              0.794091     0.000000
                              0.364090     0.000000
                              0.170826     0.000000
                              0.078038     0.000000
                              0.034833     1.000000
   20.2 Au    1  2py        484.073000     0.000000
                            107.979000     0.000000
                             36.026800     0.000000
                             22.495200     0.000000
                              9.405650     0.000000
                              5.877910     0.000000
                              2.925090     0.000000
                              1.549900     0.000000
                              0.794091     0.000000
                              0.364090     0.000000
                              0.170826     0.000000
                              0.078038     0.000000
                              0.034833     1.000000
   21.2 Au    1  2pz        484.073000     0.000000
                            107.979000     0.000000
                             36.026800     0.000000
                             22.495200     0.000000
                              9.405650     0.000000
                              5.877910     0.000000
                              2.925090     0.000000
                              1.549900     0.000000
                              0.794091     0.000000
                              0.364090     0.000000
                              0.170826     0.000000
                              0.078038     0.000000
                              0.034833     1.000000
   22.2 Au    1  2px          8.685200     1.000000
   23.2 Au    1  2py          8.685200     1.000000
   24.2 Au    1  2pz          8.685200     1.000000
   25.2 Au    1  2px          4.879300     1.000000
   26.2 Au    1  2py          4.879300     1.000000
   27.2 Au    1  2pz          4.879300     1.000000
   28.2 Au    1  2px          2.741200     1.000000
   29.2 Au    1  2py          2.741200     1.000000
   30.2 Au    1  2pz          2.741200     1.000000
   31.2 Au    1  2px          1.540000     1.000000
   32.2 Au    1  2py          1.540000     1.000000
   33.2 Au    1  2pz          1.540000     1.000000
   34.2 Au    1  2px          0.014200     1.000000
   35.2 Au    1  2py          0.014200     1.000000
   36.2 Au    1  2pz          0.014200     1.000000
   37.2 Au    1  2px          0.004733     1.000000
   38.2 Au    1  2py          0.004733     1.000000
   39.2 Au    1  2pz          0.004733     1.000000
   40.2 Au    1  4f1+         0.525100     1.000000
   41.2 Au    1  4f1-         0.525100     1.000000
   42.2 Au    1  4f0          0.525100     1.000000
   43.2 Au    1  4f3+         0.525100     1.000000
   44.2 Au    1  4f2-         0.525100     1.000000
   45.2 Au    1  4f3-         0.525100     1.000000
   46.2 Au    1  4f2+         0.525100     1.000000
   47.2 Au    1  4f1+         0.266300     1.000000
   48.2 Au    1  4f1-         0.266300     1.000000
   49.2 Au    1  4f0          0.266300     1.000000
   50.2 Au    1  4f3+         0.266300     1.000000
   51.2 Au    1  4f2-         0.266300     1.000000
   52.2 Au    1  4f3-         0.266300     1.000000
   53.2 Au    1  4f2+         0.266300     1.000000
   54.2 Au    1  4f1+         0.135100     1.000000
   55.2 Au    1  4f1-         0.135100     1.000000
   56.2 Au    1  4f0          0.135100     1.000000
   57.2 Au    1  4f3+         0.135100     1.000000
   58.2 Au    1  4f2-         0.135100     1.000000
   59.2 Au    1  4f3-         0.135100     1.000000
   60.2 Au    1  4f2+         0.135100     1.000000
   61.2 Au    1  4f1+        13.301800     1.000000
   62.2 Au    1  4f1-        13.301800     1.000000
   63.2 Au    1  4f0         13.301800     1.000000
   64.2 Au    1  4f3+        13.301800     1.000000
   65.2 Au    1  4f2-        13.301800     1.000000
   66.2 Au    1  4f3-        13.301800     1.000000
   67.2 Au    1  4f2+        13.301800     1.000000
   68.2 Au    1  4f1+         5.829800     1.000000
   69.2 Au    1  4f1-         5.829800     1.000000
   70.2 Au    1  4f0          5.829800     1.000000
   71.2 Au    1  4f3+         5.829800     1.000000
   72.2 Au    1  4f2-         5.829800     1.000000
   73.2 Au    1  4f3-         5.829800     1.000000
   74.2 Au    1  4f2+         5.829800     1.000000
   75.2 Au    1  4f1+         2.555000     1.000000
   76.2 Au    1  4f1-         2.555000     1.000000
   77.2 Au    1  4f0          2.555000     1.000000
   78.2 Au    1  4f3+         2.555000     1.000000
   79.2 Au    1  4f2-         2.555000     1.000000
   80.2 Au    1  4f3-         2.555000     1.000000
   81.2 Au    1  4f2+         2.555000     1.000000
   82.2 Au    1  4f1+         1.119800     1.000000
   83.2 Au    1  4f1-         1.119800     1.000000
   84.2 Au    1  4f0          1.119800     1.000000
   85.2 Au    1  4f3+         1.119800     1.000000
   86.2 Au    1  4f2-         1.119800     1.000000
   87.2 Au    1  4f3-         1.119800     1.000000
   88.2 Au    1  4f2+         1.119800     1.000000
   89.2 Au    1  4f1+         0.059900     1.000000
   90.2 Au    1  4f1-         0.059900     1.000000
   91.2 Au    1  4f0          0.059900     1.000000
   92.2 Au    1  4f3+         0.059900     1.000000
   93.2 Au    1  4f2-         0.059900     1.000000
   94.2 Au    1  4f3-         0.059900     1.000000
   95.2 Au    1  4f2+         0.059900     1.000000
   96.2 Au    1  4f1+         0.019967     1.000000
   97.2 Au    1  4f1-         0.019967     1.000000
   98.2 Au    1  4f0          0.019967     1.000000
   99.2 Au    1  4f3+         0.019967     1.000000
  100.2 Au    1  4f2-         0.019967     1.000000
  101.2 Au    1  4f3-         0.019967     1.000000
  102.2 Au    1  4f2+         0.019967     1.000000
  103.2 Au    1  6h1+         0.468100     1.000000
  104.2 Au    1  6h1-         0.468100     1.000000
  105.2 Au    1  6h2+         0.468100     1.000000
  106.2 Au    1  6h3+         0.468100     1.000000
  107.2 Au    1  6h4-         0.468100     1.000000
  108.2 Au    1  6h3-         0.468100     1.000000
  109.2 Au    1  6h4+         0.468100     1.000000
  110.2 Au    1  6h5-         0.468100     1.000000
  111.2 Au    1  6h0          0.468100     1.000000
  112.2 Au    1  6h5+         0.468100     1.000000
  113.2 Au    1  6h2-         0.468100     1.000000
  114.2 Au    1  6h1+         4.579700     1.000000
  115.2 Au    1  6h1-         4.579700     1.000000
  116.2 Au    1  6h2+         4.579700     1.000000
  117.2 Au    1  6h3+         4.579700     1.000000
  118.2 Au    1  6h4-         4.579700     1.000000
  119.2 Au    1  6h3-         4.579700     1.000000
  120.2 Au    1  6h4+         4.579700     1.000000
  121.2 Au    1  6h5-         4.579700     1.000000
  122.2 Au    1  6h0          4.579700     1.000000
  123.2 Au    1  6h5+         4.579700     1.000000
  124.2 Au    1  6h2-         4.579700     1.000000
  125.2 Au    1  6h1+         1.314000     1.000000
  126.2 Au    1  6h1-         1.314000     1.000000
  127.2 Au    1  6h2+         1.314000     1.000000
  128.2 Au    1  6h3+         1.314000     1.000000
  129.2 Au    1  6h4-         1.314000     1.000000
  130.2 Au    1  6h3-         1.314000     1.000000
  131.2 Au    1  6h4+         1.314000     1.000000
  132.2 Au    1  6h5-         1.314000     1.000000
  133.2 Au    1  6h0          1.314000     1.000000
  134.2 Au    1  6h5+         1.314000     1.000000
  135.2 Au    1  6h2-         1.314000     1.000000
  136.2 Au    1  6h1+         0.250100     1.000000
  137.2 Au    1  6h1-         0.250100     1.000000
  138.2 Au    1  6h2+         0.250100     1.000000
  139.2 Au    1  6h3+         0.250100     1.000000
  140.2 Au    1  6h4-         0.250100     1.000000
  141.2 Au    1  6h3-         0.250100     1.000000
  142.2 Au    1  6h4+         0.250100     1.000000
  143.2 Au    1  6h5-         0.250100     1.000000
  144.2 Au    1  6h0          0.250100     1.000000
  145.2 Au    1  6h5+         0.250100     1.000000
  146.2 Au    1  6h2-         0.250100     1.000000

 NUCLEAR CHARGE:                   22
 NUMBER OF PRIMITIVE AOS:         485
 NUMBER OF SYMMETRY AOS:          348
 NUMBER OF CONTRACTIONS:          281   (  135Ag  +  146Au  )
 NUMBER OF INNER CORE ORBITALS:     0   (    0Ag  +    0Au  )
 NUMBER OF OUTER CORE ORBITALS:     9   (    6Ag  +    3Au  )
 NUMBER OF VALENCE ORBITALS:        4   (    1Ag  +    3Au  )


 LX: Ag           LY: Ag           LZ: Ag 


 NUCLEAR REPULSION ENERGY    0.00000000

 EXTRA SYMMETRY OF AOS IN SYMMETRY 1:   1 1 1 1 1 1 1 1 1 1   1 1 1 2 3 4 5 6 2 3   4 5 6 2 3 4 5 6 2 3   4 5 6 2 3 4 5 6 2 3
                                        4 5 6 2 3 4 5 6 2 3   4 5 6 2 3 4 5 6 2 3   4 5 6 2 3 4 5 6 7 8   9101112131415 7 8 9
                                       101112131415 7 8 910  1112131415 7 8 91011  12131415 7 8 9101112  131415 7 8 910111213
                                       14151617181920212223  2425262728
 EXTRA SYMMETRY OF AOS IN SYMMETRY 2:   1 2 3 1 2 3 1 2 3 1   2 3 1 2 3 1 2 3 1 2   3 1 2 3 1 2 3 1 2 3   1 2 3 1 2 3 1 2 3 4
                                        5 6 7 8 910 4 5 6 7   8 910 4 5 6 7 8 910   4 5 6 7 8 910 4 5 6   7 8 910 4 5 6 7 8 9
                                       10 4 5 6 7 8 910 4 5   6 7 8 910 4 5 6 7 8   9101112131415161718  19202111121314151617
                                       18192021111213141516  17181920211112131415  161718192021


 Eigenvalues of metric

         1 0.418E-05 0.567E-04 0.210E-03 0.210E-03 0.210E-03 0.210E-03 0.210E-03 0.407E-03
         2 0.130E-06 0.130E-06 0.130E-06 0.621E-03 0.621E-03 0.621E-03 0.382E-02 0.382E-02


 Contracted 2-electron integrals neglected if value below      1.0D-14
 AO integral compression algorithm  1   Integral accuracy      1.0D-14

     898.892 MB (compressed) written to integral file ( 17.4%)

     Node minimum: 38.273 MB, node maximum: 70.255 MB


 NUMBER OF SORTED TWO-ELECTRON INTEGRALS:   24679576.     BUFFER LENGTH:  32768
 NUMBER OF SEGMENTS:   2  SEGMENT LENGTH:   15976936      RECORD LENGTH: 524288

 Memory used in sort:      16.53 MW

 SORT1 READ   646821870. AND WROTE     4259435. INTEGRALS IN     14 RECORDS. CPU TIME:     3.38 SEC, REAL TIME:     3.47 SEC
 SORT2 READ    68066201. AND WROTE   395255076. INTEGRALS IN   3408 RECORDS. CPU TIME:     0.50 SEC, REAL TIME:     0.56 SEC

 Node minimum:    24675847.  Node maximum:    24720811. integrals

 OPERATOR DM      FOR CENTER  0  COORDINATES:    0.000000    0.000000    0.000000


 **********************************************************************************************************************************
 DATASETS  * FILE   NREC   LENGTH (MB)   RECORD NAMES
              1      19       30.69       500      610      700      900      950      970     1000      129      960     1100   
                                          VAR    BASINP    GEOM    SYMINP    ZMAT    AOBASIS   BASIS     P2S    ABASIS      S 
                                         1400     1410     1420     1200     1210     1080     1700     1600     1650   
                                           T        V       ECP      H0       H01     AOSYM    OPER      SMH    MOLCAS    

 PROGRAMS   *        TOTAL       INT
 CPU TIMES  *        10.75     10.38
 REAL TIME  *        12.14 SEC
 DISK USED  *        31.11 MB (local),        2.07 GB (total)
 GA USED    *         0.00 MB       (max)       0.00 MB       (current)
 **********************************************************************************************************************************


 Program * Restricted Hartree-Fock


   Atom=SN basis=cc-pVTZ-PP        lmin=0  lmax=2

 Orbital guess generated from atomic densities.

 Initial alpha occupancy:   7   6
 Initial beta  occupancy:   7   3

 NELEC=   23   SYM=2   MS2= 3   THRE=1.0D-08   THRD=3.2D-06   THRG=3.2D-06  HFMA2=F  DIIS_START=2   DIIS_MAX=10   DIIS_INCORE=F

 Level shifts:    0.00 (CLOSED)    0.00 (OPEN)    0.30 (GAP_MIN)

 ITER           ETOT              DE          GRAD        DDIFF     DIIS  NEXP   TIME(IT)  TIME(TOT)  DIAG
   1     -213.37058279    -213.37058279     0.00D+00     0.44D-01     0     0       0.15      0.27    start
   2     -213.37339735      -0.00281456     0.75D-03     0.11D-02     1     0       0.16      0.43    diag2
   3     -213.37370047      -0.00030313     0.41D-03     0.28D-03     2     0       0.16      0.59    diag2
   4     -213.37379128      -0.00009080     0.13D-03     0.21D-03     3     0       0.15      0.74    diag2
   5     -213.37380231      -0.00001104     0.35D-04     0.65D-04     4     0       0.15      0.89    diag2
   6     -213.37380401      -0.00000170     0.85D-05     0.28D-04     5     0       0.16      1.05    diag2
   7     -213.37380445      -0.00000044     0.32D-05     0.18D-04     6     0       0.15      1.20    diag2
   8     -213.37380458      -0.00000013     0.13D-05     0.66D-05     7     0       0.15      1.35    fixocc
   9     -213.37380461      -0.00000003     0.61D-06     0.32D-05     8     0       0.15      1.50    diag2
  10     -213.37380461      -0.00000000     0.16D-06     0.16D-05     9     0       0.16      1.66    diag2/orth
  11     -213.37380461      -0.00000000     0.26D-07     0.13D-06     0     0       0.15      1.81    diag

 Final alpha occupancy:   7   6
 Final beta  occupancy:   7   3

 !RHF STATE 1.2 Energy               -213.373804610771
  RHF One-electron energy            -381.083849735867
  RHF Two-electron energy             167.710045125096
  RHF Kinetic energy                   82.648017415264
  RHF Nuclear energy                    0.000000000000
  RHF Virial quotient                  -2.581717157699

 !RHF STATE 1.2 Dipole moment           0.00000000     0.00000000     0.00000000
 Dipole moment /Debye                   0.00000000     0.00000000     0.00000000

 ELECTRON ORBITALS
 =================

  Orbital  Occupation    Energy    Cen Mu Typ  Coefficients
    1.1     2.00000    -5.62713     1  1  s    1.00022
    2.1     2.00000    -1.07698     1  1  d0   0.69903    1  1  d2+ -0.48247    1  1  d1-  0.45386
    3.1     2.00000    -1.07698     1  1  d2-  0.43596    1  1  d1+  0.86131
    4.1     2.00000    -1.07698     1  1  d0   0.70876    1  1  d2+  0.42001    1  1  d1- -0.53587
    5.1     2.00000    -1.07698     1  1  d2-  0.79820    1  1  d1+ -0.47193    1  1  d2+  0.36564
    6.1     2.00000    -1.07698     1  1  d2- -0.28979    1  1  d2+  0.64697    1  1  d1-  0.68881
    7.1     2.00000    -0.29349     1  1  s   -0.33850    1  5  s    0.48375    1  6  s    0.46847
    1.2     2.00000    -3.81344     1  1  py   0.57829    1  1  pz   0.81161
    2.2     2.00000    -3.81344     1  1  px   0.98598
    3.2     2.00000    -3.81344     1  1  py   0.81149    1  1  pz  -0.56495
    4.2     1.00000    -0.05737     1  5  py   0.33690    1  6  py   0.37317    1  7  py   0.25093
    5.2     1.00000    -0.05737     1  5  px   0.35222    1  6  px   0.39014    1  7  px   0.26234
    6.2     1.00000    -0.05737     1  5  pz   0.33708    1  6  pz   0.37337    1  7  pz   0.25106


 HOMO      6.2    -0.057375 =      -1.5612eV
 LUMO      7.2     0.067838 =       1.8460eV
 LUMO-HOMO         0.125213 =       3.4072eV

 Orbitals saved in record  2100.2


 **********************************************************************************************************************************
 DATASETS  * FILE   NREC   LENGTH (MB)   RECORD NAMES
              1      19       30.69       500      610      700      900      950      970     1000      129      960     1100   
                                          VAR    BASINP    GEOM    SYMINP    ZMAT    AOBASIS   BASIS     P2S    ABASIS      S 
                                         1400     1410     1420     1200     1210     1080     1700     1600     1650   
                                           T        V       ECP      H0       H01     AOSYM    OPER      SMH    MOLCAS    

              2       4        1.64       700     1000      520     2100   
                                         GEOM     BASIS   MCVARS     RHF  

 PROGRAMS   *        TOTAL   RHF-SCF       INT
 CPU TIMES  *        12.57      1.81     10.38
 REAL TIME  *        14.08 SEC
 DISK USED  *        37.93 MB (local),        2.17 GB (total)
 GA USED    *         0.00 MB       (max)       0.00 MB       (current)
 **********************************************************************************************************************************
 SETTING NTRIP          =        12.00000000                                  
 SETTING NSING          =        15.00000000                                  

 PROGRAM * MULTI (Direct Multiconfiguration SCF)       Authors: P.J. Knowles, H.-J. Werner (1984)
                                                                D.A. Kreplin, P.J. Knowles, H.-J. Werner (2019)

 Number of closed-shell orbitals:   9 (    6    3)
 Number of active  orbitals:        7 (    1    6)
 Number of external orbitals:     265 (  128  137)

 State symmetry 1

 Number of active electrons:   4    Spin symmetry=Triplet   Space symmetry=1
 Number of states:            12
 Number of CSFs:             120   (135 determinants, 245 intermediate states)

 State symmetry 2

 Number of active electrons:   4    Spin symmetry=Singlet   Space symmetry=1
 Number of states:            15
 Number of CSFs:             126   (261 determinants, 441 intermediate states)

 Molecular orbitals read from record     2100.2  Type=RHF/CANONICAL  
 *** IN SYMMETRY 1 ORBITAL  2 SYMMETRY CONTAMINATION OF 0.650D+00 HAS BEEN REMOVED
 *** IN SYMMETRY 1 ORBITAL  3 SYMMETRY CONTAMINATION OF 0.498D+00 HAS BEEN REMOVED
 *** IN SYMMETRY 1 ORBITAL  4 SYMMETRY CONTAMINATION OF 0.718D+00 HAS BEEN REMOVED
 *** IN SYMMETRY 1 ORBITAL  5 SYMMETRY CONTAMINATION OF 0.537D+00 HAS BEEN REMOVED
 *** IN SYMMETRY 1 ORBITAL  6 SYMMETRY CONTAMINATION OF 0.647D+00 HAS BEEN REMOVED

 EXTRA SYMMETRY OF MOS IN SYMMETRY 1:   1 2 4 6 3 5 1 1 2 4   6 3 5 1 4 2 6 3 5 1   3 6 2 5 4 914121511   813 710 1 6 3 2 5 4
                                        9 712141511 81013 2   4 6 3 5 112 9 7 811  14151013 2 4 6 3 5 1   9 7 8151114121310 2
                                        6 4 5 3282124272517  20232622191816 1 812   91113 7101514 2 3 4   6 5131511 91014 7 8
                                       12 1 3 2 4 5 6 3 2 4   5 6 1 1 1
 *** IN SYMMETRY 2 ORBITAL  1 SYMMETRY CONTAMINATION OF 0.446D+00 HAS BEEN REMOVED
 *** IN SYMMETRY 2 ORBITAL  2 SYMMETRY CONTAMINATION OF 0.182D+00 HAS BEEN REMOVED
 *** IN SYMMETRY 2 ORBITAL  3 SYMMETRY CONTAMINATION OF 0.467D+00 HAS BEEN REMOVED
 *** IN SYMMETRY 2 ORBITAL  4 SYMMETRY CONTAMINATION OF 0.252D+00 HAS BEEN REMOVED
 *** IN SYMMETRY 2 ORBITAL  5 SYMMETRY CONTAMINATION OF 0.339D-01 HAS BEEN REMOVED
 *** IN SYMMETRY 2 ORBITAL  6 SYMMETRY CONTAMINATION OF 0.237D+00 HAS BEEN REMOVED
 *** IN SYMMETRY 2 ORBITAL  7 SYMMETRY CONTAMINATION OF 0.442D+00 HAS BEEN REMOVED
 *** IN SYMMETRY 2 ORBITAL  9 SYMMETRY CONTAMINATION OF 0.442D+00 HAS BEEN REMOVED
 EXTRA SYMMETRY OF MOS IN SYMMETRY 2:   3 1 2 2 1 3 2 1 3 2   1 3 5 7 9 6 810 4 2   1 3 6 5 4 8 7 910 2   1 3 6 9 7 8 5 410 4
                                        6 8 510 9 7 3 1 213  21111912141815201617   410 6 8 5 7 9111319  151221181416201710 8
                                        6 4 5 9 7 2 1 3 810   6 4 5 7 91311192112  152014171816 2 1 3 7   9 4 610 8 5 2 1 315
                                       17182019111312211614   9 7 5 4 610 8 2 1 3   2 3 1 2 3 1

 Wavefunction dump at record             2140.2

 Convergence thresholds  0.10E-04 (gradient)  0.10E-05 (energy)

 Weight factors for state symmetry  1:    0.07937   0.07937   0.07937   0.01587   0.01587   0.01587   0.01587   0.01587
                                          0.01587   0.01587   0.01587   0.01587
 Weight factors for state symmetry  2:    0.07937   0.07937   0.07937   0.07937   0.07937   0.07937   0.01587   0.01587
                                          0.01587   0.01587   0.01587   0.01587   0.01587   0.01587   0.01587
 
 Number of orbital rotations:  2153  ( 24 closed/active, 1179 closed/virtual, 0 active/active, 950 active/virtual )
 Total number of variables:    7688
 
 Second-order MCSCF: L-BFGS accelerated
 
 ITER  MIC  NCI  NEG     ENERGY(VAR)    ENERGY(PROJ) ENERGY CHANGE       GRAD(0)  GRAD(ORB)   GRAD(CI)      STEP      TIME
   1   16   28    3   -213.23889328    -213.27402081   -0.03512753    0.13940731 0.00126547 0.00000000  0.16E+01      3.07
   2    7   12    0   -213.27321315    -213.27334620   -0.00013305    0.00892754 0.00000986 0.00000000  0.11E+00      5.62
   3    5   10    0   -213.27334634    -213.27334634   -0.00000000    0.00002928 0.00000001 0.00000000  0.36E-03      7.87
   4    2    4    0   -213.27334634    -213.27334634    0.00000000    0.00000001 0.00000001 0.00000000  0.43E-07      9.77

 CONVERGENCE REACHED!  Final gradient:    0.00000002 ( 0.18E-07)
                       Final energy:   -213.27334634
 
 Results for state 1.1 Triplet
 =============================
 !MCSCF STATE 1.1 Triplet Energy              -213.344906464252
 Nuclear energy                                  0.00000000
 Kinetic energy                                 82.69180577
 One electron energy                          -376.34119617
 Two electron energy                           162.99628971
 Virial ratio                                    3.58000058
 
 !MCSCF STATE 1.1 Triplet Dipole moment          0.00000000     0.00000000     0.00000000
 Dipole moment /Debye                            0.00000000     0.00000000     0.00000000
 
 Results for state 2.1 Triplet
 =============================
 !MCSCF STATE 2.1 Triplet Energy              -213.344906464230
 Nuclear energy                                  0.00000000
 Kinetic energy                                 82.69180577
 One electron energy                          -376.34119618
 Two electron energy                           162.99628971
 Virial ratio                                    3.58000058
 
 !MCSCF STATE 2.1 Triplet Dipole moment          0.00000000     0.00000000     0.00000000
 Dipole moment /Debye                            0.00000000     0.00000000     0.00000000
 
 Results for state 3.1 Triplet
 =============================
 !MCSCF STATE 3.1 Triplet Energy              -213.344906464188
 Nuclear energy                                  0.00000000
 Kinetic energy                                 82.69180577
 One electron energy                          -376.34119617
 Two electron energy                           162.99628971
 Virial ratio                                    3.58000058
 
 !MCSCF STATE 3.1 Triplet Dipole moment          0.00000000     0.00000000     0.00000000
 Dipole moment /Debye                            0.00000000     0.00000000     0.00000000
 
 Results for state 4.1 Triplet
 =============================
 !MCSCF STATE 4.1 Triplet Energy              -213.166714339070
 Nuclear energy                                  0.00000000
 Kinetic energy                                 82.22465530
 One electron energy                          -371.54911851
 Two electron energy                           158.38240417
 Virial ratio                                    3.59249143
 
 !MCSCF STATE 4.1 Triplet Dipole moment          0.00000000     0.00000000     0.00000000
 Dipole moment /Debye                            0.00000000     0.00000000     0.00000000
 
 Results for state 5.1 Triplet
 =============================
 !MCSCF STATE 5.1 Triplet Energy              -213.166714339062
 Nuclear energy                                  0.00000000
 Kinetic energy                                 82.22465530
 One electron energy                          -371.54911852
 Two electron energy                           158.38240418
 Virial ratio                                    3.59249143
 
 !MCSCF STATE 5.1 Triplet Dipole moment          0.00000000     0.00000000     0.00000000
 Dipole moment /Debye                            0.00000000     0.00000000     0.00000000
 
 Results for state 6.1 Triplet
 =============================
 !MCSCF STATE 6.1 Triplet Energy              -213.166714338965
 Nuclear energy                                  0.00000000
 Kinetic energy                                 82.22465530
 One electron energy                          -371.54911855
 Two electron energy                           158.38240421
 Virial ratio                                    3.59249143
 
 !MCSCF STATE 6.1 Triplet Dipole moment          0.00000000     0.00000000     0.00000000
 Dipole moment /Debye                            0.00000000     0.00000000     0.00000000
 
 Results for state 7.1 Triplet
 =============================
 !MCSCF STATE 7.1 Triplet Energy              -213.166714338901
 Nuclear energy                                  0.00000000
 Kinetic energy                                 82.22465531
 One electron energy                          -371.54911859
 Two electron energy                           158.38240425
 Virial ratio                                    3.59249143
 
 !MCSCF STATE 7.1 Triplet Dipole moment          0.00000000     0.00000000     0.00000000
 Dipole moment /Debye                            0.00000000     0.00000000     0.00000000
 
 Results for state 8.1 Triplet
 =============================
 !MCSCF STATE 8.1 Triplet Energy              -213.166714338883
 Nuclear energy                                  0.00000000
 Kinetic energy                                 82.22465531
 One electron energy                          -371.54911859
 Two electron energy                           158.38240425
 Virial ratio                                    3.59249143
 
 !MCSCF STATE 8.1 Triplet Dipole moment          0.00000000     0.00000000     0.00000000
 Dipole moment /Debye                            0.00000000     0.00000000     0.00000000
 
 Results for state 9.1 Triplet
 =============================
 !MCSCF STATE 9.1 Triplet Energy              -213.162307794888
 Nuclear energy                                  0.00000000
 Kinetic energy                                 82.29666603
 One electron energy                          -371.91145204
 Two electron energy                           158.74914425
 Virial ratio                                    3.59016942
 
 !MCSCF STATE 9.1 Triplet Dipole moment          0.00000000     0.00000000     0.00000000
 Dipole moment /Debye                            0.00000000     0.00000000     0.00000000
 
 Results for state 10.1 Triplet
 ==============================
 !MCSCF STATE 10.1 Triplet Energy             -213.162307794571
 Nuclear energy                                  0.00000000
 Kinetic energy                                 82.29666603
 One electron energy                          -371.91145208
 Two electron energy                           158.74914429
 Virial ratio                                    3.59016942
 
 !MCSCF STATE 10.1 Triplet Dipole moment         0.00000000     0.00000000     0.00000000
 Dipole moment /Debye                            0.00000000     0.00000000     0.00000000
 
 Results for state 11.1 Triplet
 ==============================
 !MCSCF STATE 11.1 Triplet Energy             -213.162307794155
 Nuclear energy                                  0.00000000
 Kinetic energy                                 82.29666604
 One electron energy                          -371.91145214
 Two electron energy                           158.74914435
 Virial ratio                                    3.59016942
 
 !MCSCF STATE 11.1 Triplet Dipole moment         0.00000000     0.00000000     0.00000000
 Dipole moment /Debye                            0.00000000     0.00000000     0.00000000
 
 Results for state 12.1 Triplet
 ==============================
 !MCSCF STATE 12.1 Triplet Energy             -213.160249080488
 Nuclear energy                                  0.00000000
 Kinetic energy                                 82.22453893
 One electron energy                          -371.54729111
 Two electron energy                           158.38704203
 Virial ratio                                    3.59241647
 
 !MCSCF STATE 12.1 Triplet Dipole moment         0.00000000     0.00000000     0.00000000
 Dipole moment /Debye                            0.00000000     0.00000000     0.00000000
 
 Results for state 1.1 Singlet
 =============================
 !MCSCF STATE 1.1 Singlet Energy              -213.309965642877
 Nuclear energy                                  0.00000000
 Kinetic energy                                 82.65448419
 One electron energy                          -376.12661838
 Two electron energy                           162.81665274
 Virial ratio                                    3.58074281
 
 !MCSCF STATE 1.1 Singlet Dipole moment          0.00000000     0.00000000     0.00000000
 Dipole moment /Debye                            0.00000000     0.00000000     0.00000000
 
 Results for state 2.1 Singlet
 =============================
 !MCSCF STATE 2.1 Singlet Energy              -213.309965642868
 Nuclear energy                                  0.00000000
 Kinetic energy                                 82.65448419
 One electron energy                          -376.12661839
 Two electron energy                           162.81665274
 Virial ratio                                    3.58074281
 
 !MCSCF STATE 2.1 Singlet Dipole moment          0.00000000     0.00000000     0.00000000
 Dipole moment /Debye                            0.00000000     0.00000000     0.00000000
 
 Results for state 3.1 Singlet
 =============================
 !MCSCF STATE 3.1 Singlet Energy              -213.309965642845
 Nuclear energy                                  0.00000000
 Kinetic energy                                 82.65448419
 One electron energy                          -376.12661838
 Two electron energy                           162.81665273
 Virial ratio                                    3.58074281
 
 !MCSCF STATE 3.1 Singlet Dipole moment          0.00000000     0.00000000     0.00000000
 Dipole moment /Debye                            0.00000000     0.00000000     0.00000000
 
 Results for state 4.1 Singlet
 =============================
 !MCSCF STATE 4.1 Singlet Energy              -213.309965642801
 Nuclear energy                                  0.00000000
 Kinetic energy                                 82.65448419
 One electron energy                          -376.12661840
 Two electron energy                           162.81665276
 Virial ratio                                    3.58074281
 
 !MCSCF STATE 4.1 Singlet Dipole moment          0.00000000     0.00000000     0.00000000
 Dipole moment /Debye                            0.00000000     0.00000000     0.00000000
 
 Results for state 5.1 Singlet
 =============================
 !MCSCF STATE 5.1 Singlet Energy              -213.309965642799
 Nuclear energy                                  0.00000000
 Kinetic energy                                 82.65448419
 One electron energy                          -376.12661840
 Two electron energy                           162.81665275
 Virial ratio                                    3.58074281
 
 !MCSCF STATE 5.1 Singlet Dipole moment          0.00000000     0.00000000     0.00000000
 Dipole moment /Debye                            0.00000000     0.00000000     0.00000000
 
 Results for state 6.1 Singlet
 =============================
 !MCSCF STATE 6.1 Singlet Energy              -213.280011181571
 Nuclear energy                                  0.00000000
 Kinetic energy                                 82.60996651
 One electron energy                          -375.79343030
 Two electron energy                           162.51341912
 Virial ratio                                    3.58177094
 
 !MCSCF STATE 6.1 Singlet Dipole moment          0.00000000     0.00000000     0.00000000
 Dipole moment /Debye                            0.00000000     0.00000000     0.00000000
 
 Results for state 7.1 Singlet
 =============================
 !MCSCF STATE 7.1 Singlet Energy              -213.171028789674
 Nuclear energy                                  0.00000000
 Kinetic energy                                 82.22472798
 One electron energy                          -371.55026746
 Two electron energy                           158.37923867
 Virial ratio                                    3.59254161
 
 !MCSCF STATE 7.1 Singlet Dipole moment          0.00000000     0.00000000     0.00000000
 Dipole moment /Debye                            0.00000000     0.00000000     0.00000000
 
 Results for state 8.1 Singlet
 =============================
 !MCSCF STATE 8.1 Singlet Energy              -213.171028789664
 Nuclear energy                                  0.00000000
 Kinetic energy                                 82.22472797
 One electron energy                          -371.55026739
 Two electron energy                           158.37923860
 Virial ratio                                    3.59254161
 
 !MCSCF STATE 8.1 Singlet Dipole moment          0.00000000     0.00000000     0.00000000
 Dipole moment /Debye                            0.00000000     0.00000000     0.00000000
 
 Results for state 9.1 Singlet
 =============================
 !MCSCF STATE 9.1 Singlet Energy              -213.171028789641
 Nuclear energy                                  0.00000000
 Kinetic energy                                 82.22472797
 One electron energy                          -371.55026741
 Two electron energy                           158.37923862
 Virial ratio                                    3.59254161
 
 !MCSCF STATE 9.1 Singlet Dipole moment          0.00000000     0.00000000     0.00000000
 Dipole moment /Debye                            0.00000000     0.00000000     0.00000000
 
 Results for state 10.1 Singlet
 ==============================
 !MCSCF STATE 10.1 Singlet Energy             -213.152747732920
 Nuclear energy                                  0.00000000
 Kinetic energy                                 82.33672098
 One electron energy                          -372.13685389
 Two electron energy                           158.98410615
 Virial ratio                                    3.58879325
 
 !MCSCF STATE 10.1 Singlet Dipole moment         0.00000000     0.00000000     0.00000000
 Dipole moment /Debye                            0.00000000     0.00000000     0.00000000
 
 Results for state 11.1 Singlet
 ==============================
 !MCSCF STATE 11.1 Singlet Energy             -213.152747732781
 Nuclear energy                                  0.00000000
 Kinetic energy                                 82.33672099
 One electron energy                          -372.13685390
 Two electron energy                           158.98410617
 Virial ratio                                    3.58879325
 
 !MCSCF STATE 11.1 Singlet Dipole moment         0.00000000     0.00000000     0.00000000
 Dipole moment /Debye                            0.00000000     0.00000000     0.00000000
 
 Results for state 12.1 Singlet
 ==============================
 !MCSCF STATE 12.1 Singlet Energy             -213.152747732227
 Nuclear energy                                  0.00000000
 Kinetic energy                                 82.33672099
 One electron energy                          -372.13685394
 Two electron energy                           158.98410621
 Virial ratio                                    3.58879325
 
 !MCSCF STATE 12.1 Singlet Dipole moment         0.00000000     0.00000000     0.00000000
 Dipole moment /Debye                            0.00000000     0.00000000     0.00000000
 
 Results for state 13.1 Singlet
 ==============================
 !MCSCF STATE 13.1 Singlet Energy             -213.152747731466
 Nuclear energy                                  0.00000000
 Kinetic energy                                 82.33672100
 One electron energy                          -372.13685401
 Two electron energy                           158.98410628
[...]
 10  1    10    1  |1 1>+         0.05%    0.00%    0.01%   17.59%    0.67%    0.00%    0.00%    0.00%
 11  1    11    1  |1 1>+         0.18%    6.04%   29.54%    0.01%    0.00%    0.00%    0.00%    0.00%
 12  1    12    1  |1 1>+         0.00%    0.00%    0.00%    0.00%    0.00%    3.27%    0.00%    0.00%
 13  1     1    1  |1 0>          0.00%    0.00%    0.01%    0.00%    0.00%    0.00%    0.00%    0.00%
 14  1     2    1  |1 0>          0.00%    0.00%    0.00%    0.00%    0.00%    0.01%    0.00%    0.00%
 15  1     3    1  |1 0>          0.00%    0.00%    0.00%    0.00%    0.01%    0.00%    0.00%    0.00%
 16  1     4    1  |1 0>          0.08%    0.00%    0.00%    0.91%    0.01%    0.00%    0.11%   32.18%
 17  1     5    1  |1 0>          0.01%    0.00%    0.00%    6.01%    0.04%    0.00%    0.05%    0.27%
 18  1     6    1  |1 0>          0.50%    0.32%    0.00%    0.03%    5.06%    0.06%    2.12%    0.66%
 19  1     7    1  |1 0>          0.01%   40.31%    0.00%    0.00%    0.12%    0.72%   21.32%    0.08%
 20  1     8    1  |1 0>          8.69%    3.07%    0.00%    0.00%    0.01%    4.45%    9.46%    0.13%
 21  1     9    1  |1 0>          4.64%    0.01%   27.40%    0.00%    0.00%    1.33%    0.00%    0.00%
 22  1    10    1  |1 0>          3.07%    0.48%    2.16%    0.00%    0.01%   16.92%    0.00%    0.00%
 23  1    11    1  |1 0>          0.13%    0.07%    0.00%    0.12%   18.14%    0.01%    0.00%    0.00%
 24  1    12    1  |1 0>          0.00%    0.00%    0.00%    3.25%    0.02%    0.00%    0.00%    0.00%
 25  1     1    1  |1 1>-         0.00%    0.00%    0.00%    0.00%    0.00%    0.01%    0.00%    0.00%
 26  1     2    1  |1 1>-         0.00%    0.00%    0.01%    0.00%    0.00%    0.00%    0.00%    0.00%
 27  1     3    1  |1 1>-         0.00%    0.00%    0.00%    0.01%    0.00%    0.00%    0.00%    0.00%
 28  1     4    1  |1 1>-         0.02%    0.01%    0.00%    0.04%    6.77%    0.00%    1.16%    0.40%
 29  1     5    1  |1 1>-         1.04%    0.41%    0.00%    0.00%    0.16%    0.00%    0.17%    0.87%
 30  1     6    1  |1 1>-         0.23%    0.16%    0.00%    5.06%    0.03%    0.07%    0.85%   41.00%
 31  1     7    1  |1 1>-        12.72%    3.02%    0.00%    0.11%    0.00%    4.39%    1.64%    0.01%
 32  1     8    1  |1 1>-         1.61%    4.79%    0.00%    0.02%    0.00%    0.76%   29.47%    0.94%
 33  1     9    1  |1 1>-         3.46%    1.85%    2.16%    0.00%    0.00%   16.93%    0.00%    0.00%
 34  1    10    1  |1 1>-         3.04%    6.18%   27.38%    0.01%    0.00%    1.34%    0.00%    0.00%
 35  1    11    1  |1 1>-         0.01%    0.00%    0.02%   18.14%    0.12%    0.00%    0.00%    0.00%
 36  1    12    1  |1 1>-         0.00%    0.00%    0.00%    0.02%    3.25%    0.00%    0.00%    0.00%
 37  1     1    1  |0 0>          0.00%    0.00%    0.00%    0.00%    0.00%    0.00%    0.00%    0.00%
 38  1     2    1  |0 0>          0.00%    0.01%    0.00%    0.00%    0.00%    0.00%    0.00%    0.00%
 39  1     3    1  |0 0>          0.00%    0.00%    0.00%    0.00%    0.00%    0.00%    0.00%    0.00%
 40  1     4    1  |0 0>          0.00%    0.01%    0.00%    0.00%    0.00%    0.00%    0.00%    0.00%
 41  1     5    1  |0 0>          0.01%    0.00%    0.00%    0.00%    0.00%    0.00%    0.00%    0.00%
 42  1     6    1  |0 0>          0.00%    0.00%    0.03%    0.00%    0.00%    0.00%    0.00%    0.00%
 43  1     7    1  |0 0>          0.00%    0.00%    0.00%   42.47%    0.28%    0.00%    0.00%    0.00%
 44  1     8    1  |0 0>          0.00%    0.00%    0.00%    0.28%   42.47%    0.00%    0.00%    0.00%
 45  1     9    1  |0 0>          0.00%    0.00%    0.00%    0.00%    0.00%   42.75%    0.00%    0.00%
 46  1    10    1  |0 0>          0.03%    0.00%    0.00%    0.00%    0.00%    0.00%    0.00%    0.00%
 47  1    11    1  |0 0>          2.73%    1.28%    0.00%    0.00%    0.00%    0.00%    0.00%    0.00%
 48  1    12    1  |0 0>          0.36%    0.14%    0.00%    0.00%    0.00%    0.00%    0.00%    0.00%
 49  1    13    1  |0 0>         10.92%    0.87%    0.00%    0.00%    0.00%    0.00%    0.00%    0.00%
 50  1    14    1  |0 0>          1.66%   13.42%    0.00%    0.00%    0.00%    0.00%    0.00%    0.00%
 51  1    15    1  |0 0>          0.00%    0.00%   11.26%    0.00%    0.00%    0.00%    0.00%    0.00%

   Total
 Nr Sym  State Sym Spin / Nr.     33       34       35       36       37       38       39       40

  1  1     1    1  |1 1>+         0.00%    0.00%    0.00%    0.00%    0.00%    0.00%    0.00%    0.00%
  2  1     2    1  |1 1>+         0.00%    0.00%    0.00%    0.00%    0.00%    0.00%    0.00%    0.00%
  3  1     3    1  |1 1>+         0.00%    0.00%    0.00%    0.00%    0.00%    0.00%    0.00%    0.00%
  4  1     4    1  |1 1>+         0.04%   14.53%    0.19%   23.04%    4.34%    0.00%    0.01%   10.23%
  5  1     5    1  |1 1>+         1.81%   15.61%    1.94%   25.13%    3.52%    0.00%    0.00%    6.58%
  6  1     6    1  |1 1>+         0.62%    0.07%    0.02%    1.98%    0.04%    0.18%    0.00%    0.00%
  7  1     7    1  |1 1>+         1.15%    0.43%   10.22%    7.22%   33.37%    3.58%    0.64%    0.00%
  8  1     8    1  |1 1>+         0.08%    3.64%   22.32%    0.43%    4.50%    0.63%    3.74%    0.00%
  9  1     9    1  |1 1>+         0.00%    0.00%    0.00%    0.00%    0.00%    7.71%   24.45%    0.00%
 10  1    10    1  |1 1>+         0.00%    0.00%    0.00%    0.00%    0.00%   24.46%    7.69%    0.01%
 11  1    11    1  |1 1>+         0.00%    0.00%    0.00%    0.00%    0.00%    0.00%    0.03%    1.81%
 12  1    12    1  |1 1>+         0.00%    0.00%    0.00%    0.00%    0.00%    0.00%    0.00%    0.00%
 13  1     1    1  |1 0>          0.00%    0.00%    0.00%    0.00%    0.00%    0.00%    0.00%    0.00%
 14  1     2    1  |1 0>          0.00%    0.00%    0.00%    0.00%    0.00%    0.00%    0.00%    0.00%
 15  1     3    1  |1 0>          0.00%    0.00%    0.00%    0.00%    0.00%    0.00%    0.00%    0.00%
 16  1     4    1  |1 0>          0.43%    0.04%    3.54%    0.16%    0.39%    7.62%    7.61%    0.01%
 17  1     5    1  |1 0>          0.08%    2.21%   25.44%    2.67%   25.77%    1.16%    1.16%    0.00%
 18  1     6    1  |1 0>         49.32%    0.46%    0.00%    0.05%    0.43%    2.15%    2.17%    0.01%
 19  1     7    1  |1 0>          1.19%    6.86%    0.98%    4.93%    1.20%    0.03%    0.02%    0.01%
 20  1     8    1  |1 0>          1.60%   28.81%    2.04%    7.84%    0.52%    0.02%    0.00%    4.70%
 21  1     9    1  |1 0>          0.00%    0.00%    0.00%    0.00%    0.00%    0.01%    0.00%    0.64%
 22  1    10    1  |1 0>          0.00%    0.00%    0.00%    0.00%    0.00%    0.00%    0.05%   30.67%
 23  1    11    1  |1 0>          0.00%    0.00%    0.00%    0.00%    0.00%   16.09%   16.05%    0.03%
 24  1    12    1  |1 0>          0.00%    0.00%    0.00%    0.00%    0.00%    0.00%    0.00%    0.00%
 25  1     1    1  |1 1>-         0.00%    0.00%    0.00%    0.00%    0.00%    0.00%    0.00%    0.00%
 26  1     2    1  |1 1>-         0.00%    0.00%    0.00%    0.00%    0.00%    0.00%    0.00%    0.00%
 27  1     3    1  |1 1>-         0.00%    0.00%    0.00%    0.00%    0.00%    0.00%    0.00%    0.00%
 28  1     4    1  |1 1>-        19.15%    0.04%   21.00%    2.77%   14.86%    0.20%    0.20%    0.00%
 29  1     5    1  |1 1>-        23.29%    1.81%    2.45%    1.71%    3.64%    8.57%    8.57%    0.00%
 30  1     6    1  |1 1>-         0.44%    0.38%    8.63%    0.25%    1.54%    2.15%    2.16%    0.01%
 31  1     7    1  |1 1>-         0.59%   20.39%    1.04%   21.04%    5.87%    0.04%    0.03%    2.57%
 32  1     8    1  |1 1>-         0.20%    4.72%    0.20%    0.79%    0.00%    0.01%    0.01%    2.21%
 33  1     9    1  |1 1>-         0.00%    0.00%    0.00%    0.00%    0.00%    0.00%    0.04%   26.80%
 34  1    10    1  |1 1>-         0.00%    0.00%    0.00%    0.00%    0.00%    0.00%    0.02%    4.40%
 35  1    11    1  |1 1>-         0.00%    0.00%    0.00%    0.00%    0.00%   16.11%   16.05%    0.02%
 36  1    12    1  |1 1>-         0.00%    0.00%    0.00%    0.00%    0.00%    0.00%    0.00%    0.00%
 37  1     1    1  |0 0>          0.00%    0.00%    0.00%    0.00%    0.00%    0.01%    0.01%    0.00%
 38  1     2    1  |0 0>          0.00%    0.00%    0.00%    0.00%    0.00%    0.00%    0.00%    0.00%
 39  1     3    1  |0 0>          0.00%    0.00%    0.00%    0.00%    0.00%    0.01%    0.01%    0.00%
 40  1     4    1  |0 0>          0.00%    0.00%    0.00%    0.00%    0.00%    0.00%    0.00%    0.00%
 41  1     5    1  |0 0>          0.00%    0.00%    0.00%    0.00%    0.00%    0.00%    0.00%    0.03%
 42  1     6    1  |0 0>          0.00%    0.00%    0.00%    0.00%    0.00%    0.00%    0.00%    0.00%
 43  1     7    1  |0 0>          0.00%    0.00%    0.00%    0.00%    0.00%    0.00%    0.00%    0.00%
 44  1     8    1  |0 0>          0.00%    0.00%    0.00%    0.00%    0.00%    0.00%    0.00%    0.00%
 45  1     9    1  |0 0>          0.00%    0.00%    0.00%    0.00%    0.00%    0.00%    0.00%    0.00%
 46  1    10    1  |0 0>          0.00%    0.00%    0.00%    0.00%    0.00%    4.62%    4.62%    0.01%
 47  1    11    1  |0 0>          0.00%    0.00%    0.00%    0.00%    0.00%    0.00%    0.00%    0.26%
 48  1    12    1  |0 0>          0.00%    0.00%    0.00%    0.00%    0.00%    4.62%    4.62%    0.00%
 49  1    13    1  |0 0>          0.00%    0.00%    0.00%    0.00%    0.00%    0.00%    0.01%    8.85%
 50  1    14    1  |0 0>          0.00%    0.00%    0.00%    0.00%    0.00%    0.00%    0.00%    0.12%
 51  1    15    1  |0 0>          0.00%    0.00%    0.00%    0.00%    0.00%    0.00%    0.00%    0.00%

   Total
 Nr Sym  State Sym Spin / Nr.     41       42       43       44       45       46       47       48

  1  1     1    1  |1 1>+         0.00%    0.00%    0.00%    0.01%    0.00%    0.00%    0.01%    0.00%
  2  1     2    1  |1 1>+         0.00%    0.00%    0.01%    0.00%    0.00%    0.01%    0.00%    0.00%
  3  1     3    1  |1 1>+         0.00%    0.00%    0.00%    0.00%    0.00%    0.00%    0.00%    0.00%
  4  1     4    1  |1 1>+         0.43%    0.01%    0.00%    0.00%    0.01%    0.00%    0.00%    1.65%
  5  1     5    1  |1 1>+         0.28%    0.01%    0.00%    0.00%    0.01%    0.00%    0.00%    1.06%
  6  1     6    1  |1 1>+         0.81%   16.20%    0.00%    0.00%    0.00%    0.01%    0.01%    0.00%
  7  1     7    1  |1 1>+         0.02%    0.46%    0.00%    0.01%    0.00%    0.11%    0.55%    0.00%
  8  1     8    1  |1 1>+         0.01%    0.05%    0.01%    0.01%    0.00%    0.56%    0.11%    0.00%
  9  1     9    1  |1 1>+         0.01%    0.02%    0.02%   10.12%    0.00%    0.63%    9.82%    0.00%
 10  1    10    1  |1 1>+         0.03%    0.00%   10.12%    0.02%    0.00%    9.81%    0.63%    0.00%
 11  1    11    1  |1 1>+        39.08%    1.99%    0.01%    0.00%    0.00%    0.01%    0.00%    0.00%
 12  1    12    1  |1 1>+         0.00%    0.00%    0.00%    0.00%   76.07%    0.00%    0.00%    0.00%
 13  1     1    1  |1 0>          0.00%    0.00%    0.00%    0.00%    0.00%    0.00%    0.00%    0.00%
 14  1     2    1  |1 0>          0.00%    0.00%    0.00%    0.00%    0.01%    0.00%    0.00%    0.01%
 15  1     3    1  |1 0>          0.00%    0.00%    0.00%    0.01%    0.00%    0.00%    0.01%    0.00%
 16  1     4    1  |1 0>          0.00%    0.00%    0.00%    0.00%    0.00%    2.35%    0.00%    0.00%
 17  1     5    1  |1 0>          0.00%    0.00%    0.02%    0.00%    0.00%    0.36%    0.00%    0.00%
 18  1     6    1  |1 0>          0.15%    0.09%    0.00%    0.01%    0.00%    0.00%    0.66%    0.01%
 19  1     7    1  |1 0>          8.49%    6.88%    0.00%    0.00%    0.00%    0.00%    0.02%    0.09%
 20  1     8    1  |1 0>          0.58%    1.02%    0.00%    0.00%    0.01%    0.00%    0.00%    0.58%
 21  1     9    1  |1 0>         20.36%   21.13%    0.00%    0.00%    0.74%    0.00%    0.00%    0.72%
 22  1    10    1  |1 0>          0.01%    2.24%    0.00%    0.00%    9.39%    0.00%    0.01%    9.72%
 23  1    11    1  |1 0>          0.01%    0.02%    0.54%    9.60%    0.00%    0.01%   10.43%    0.01%
 24  1    12    1  |1 0>          0.00%    0.00%   72.04%    4.03%    0.00%    0.00%    0.00%    0.00%
 25  1     1    1  |1 1>-         0.00%    0.00%    0.00%    0.00%    0.01%    0.00%    0.00%    0.01%
 26  1     2    1  |1 1>-         0.00%    0.00%    0.00%    0.00%    0.00%    0.00%    0.00%    0.00%
 27  1     3    1  |1 1>-         0.00%    0.00%    0.01%    0.00%    0.00%    0.01%    0.00%    0.00%
 28  1     4    1  |1 1>-         0.00%    0.00%    0.00%    0.02%    0.00%    0.00%    0.06%    0.00%
 29  1     5    1  |1 1>-         0.00%    0.01%    0.00%    0.00%    0.00%    0.00%    2.64%    0.00%
 30  1     6    1  |1 1>-         0.21%    0.01%    0.01%    0.00%    0.00%    0.66%    0.00%    0.01%
 31  1     7    1  |1 1>-         3.40%    0.16%    0.00%    0.00%    0.01%    0.02%    0.00%    0.56%
 32  1     8    1  |1 1>-        11.95%    1.42%    0.00%    0.00%    0.00%    0.00%    0.00%    0.11%
 33  1     9    1  |1 1>-         2.60%    3.54%    0.00%    0.00%    9.40%    0.00%    0.00%    9.66%
 34  1    10    1  |1 1>-         2.27%   35.44%    0.01%    0.00%    0.74%    0.01%    0.00%    0.78%
 35  1    11    1  |1 1>-         0.01%    0.01%    9.60%    0.54%    0.00%   10.43%    0.01%    0.00%
 36  1    12    1  |1 1>-         0.00%    0.00%    4.03%   72.04%    0.00%    0.00%    0.00%    0.00%
 37  1     1    1  |0 0>          0.00%    0.00%    0.00%    0.00%    0.00%    0.00%    0.00%    0.00%
 38  1     2    1  |0 0>          0.03%    0.00%    0.00%    0.00%    0.00%    0.00%    0.00%    0.00%
 39  1     3    1  |0 0>          0.00%    0.00%    0.00%    0.00%    0.00%    0.00%    0.00%    0.00%
 40  1     4    1  |0 0>          0.00%    0.03%    0.00%    0.00%    0.00%    0.00%    0.00%    0.00%
 41  1     5    1  |0 0>          0.00%    0.00%    0.00%    0.00%    0.00%    0.00%    0.00%    0.00%
 42  1     6    1  |0 0>          0.00%    0.00%    0.00%    0.00%    0.00%    0.00%    0.00%    0.00%
 43  1     7    1  |0 0>          0.00%    0.00%    3.39%    0.19%    0.00%    0.00%    0.00%    0.00%
 44  1     8    1  |0 0>          0.00%    0.00%    0.19%    3.39%    0.00%    0.00%    0.00%    0.00%
 45  1     9    1  |0 0>          0.00%    0.00%    0.00%    0.00%    3.58%    0.00%    0.00%    0.00%
 46  1    10    1  |0 0>          0.00%    0.00%    0.00%    0.00%    0.00%   74.99%    0.05%    0.00%
 47  1    11    1  |0 0>          7.38%    1.61%    0.00%    0.00%    0.00%    0.00%    0.00%    0.01%
 48  1    12    1  |0 0>          0.00%    0.01%    0.00%    0.00%    0.00%    0.05%   74.99%    0.00%
 49  1    13    1  |0 0>          0.38%    0.01%    0.00%    0.00%    0.00%    0.00%    0.00%   75.03%
 50  1    14    1  |0 0>          1.49%    7.62%    0.00%    0.00%    0.00%    0.00%    0.00%    0.00%
 51  1    15    1  |0 0>          0.00%    0.00%    0.00%    0.00%    0.00%    0.00%    0.00%    0.00%

   Total
 Nr Sym  State Sym Spin / Nr.     49       50       51

  1  1     1    1  |1 1>+         0.00%    0.00%    0.00%
  2  1     2    1  |1 1>+         0.00%    0.00%    0.00%
  3  1     3    1  |1 1>+         0.01%    0.00%    0.01%
  4  1     4    1  |1 1>+         0.00%    0.00%    0.00%
  5  1     5    1  |1 1>+         0.00%    0.00%    0.00%
  6  1     6    1  |1 1>+         0.92%    1.71%    0.00%
  7  1     7    1  |1 1>+         0.02%    0.04%    0.00%
  8  1     8    1  |1 1>+         0.00%    0.01%    0.00%
  9  1     9    1  |1 1>+         0.00%    0.00%    0.00%
 10  1    10    1  |1 1>+         0.00%    0.00%    0.00%
 11  1    11    1  |1 1>+         9.07%    4.85%    3.76%
 12  1    12    1  |1 1>+         0.00%    0.00%    0.00%
 13  1     1    1  |1 0>          0.01%    0.00%    0.01%
 14  1     2    1  |1 0>          0.00%    0.00%    0.00%
 15  1     3    1  |1 0>          0.00%    0.00%    0.00%
 16  1     4    1  |1 0>          0.00%    0.00%    0.00%
 17  1     5    1  |1 0>          0.00%    0.00%    0.00%
 18  1     6    1  |1 0>          0.01%    0.03%    0.00%
 19  1     7    1  |1 0>          0.37%    1.90%    0.00%
 20  1     8    1  |1 0>          0.06%    0.33%    0.00%
 21  1     9    1  |1 0>         10.85%    2.10%    3.48%
 22  1    10    1  |1 0>          0.80%    0.18%    0.27%
 23  1    11    1  |1 0>          0.00%    0.00%    0.00%
 24  1    12    1  |1 0>          0.00%    0.00%    0.00%
 25  1     1    1  |1 1>-         0.00%    0.00%    0.00%
 26  1     2    1  |1 1>-         0.00%    0.01%    0.01%
 27  1     3    1  |1 1>-         0.00%    0.00%    0.00%
 28  1     4    1  |1 1>-         0.00%    0.00%    0.00%
 29  1     5    1  |1 1>-         0.00%    0.00%    0.00%
 30  1     6    1  |1 1>-         0.03%    0.00%    0.00%
 31  1     7    1  |1 1>-         0.38%    0.00%    0.00%
 32  1     8    1  |1 1>-         2.26%    0.03%    0.00%
 33  1     9    1  |1 1>-         0.01%    1.03%    0.27%
 34  1    10    1  |1 1>-         0.16%   12.73%    3.48%
 35  1    11    1  |1 1>-         0.00%    0.01%    0.00%
 36  1    12    1  |1 1>-         0.00%    0.00%    0.00%
 37  1     1    1  |0 0>          0.00%    0.00%    0.00%
 38  1     2    1  |0 0>          0.00%    0.00%    0.00%
 39  1     3    1  |0 0>          0.00%    0.00%    0.00%
 40  1     4    1  |0 0>          0.00%    0.00%    0.00%
 41  1     5    1  |0 0>          0.00%    0.00%    0.00%
 42  1     6    1  |0 0>          0.00%    0.00%    0.00%
 43  1     7    1  |0 0>          0.00%    0.00%    0.00%
 44  1     8    1  |0 0>          0.00%    0.00%    0.00%
 45  1     9    1  |0 0>          0.00%    0.00%    0.00%
 46  1    10    1  |0 0>          0.00%    0.00%    0.00%
 47  1    11    1  |0 0>         75.01%    0.02%    0.00%
 48  1    12    1  |0 0>          0.00%    0.00%    0.00%
 49  1    13    1  |0 0>          0.01%    0.00%    0.00%
 50  1    14    1  |0 0>          0.02%   75.02%    0.00%
 51  1    15    1  |0 0>          0.00%    0.00%   88.70%



 **********************************************************************************************************************************
 DATASETS  * FILE   NREC   LENGTH (MB)   RECORD NAMES
              1      21       94.20       500      610      700      900      950      970     1000      129      960     1100   
                                          VAR    BASINP    GEOM    SYMINP    ZMAT    AOBASIS   BASIS     P2S    ABASIS      S 
                                         1400     1410     1420     1200     1210     1080     1700     1600     1650     1380   
                                           T        V       ECP      H0       H01     AOSYM    OPER      SMH    MOLCAS    JKOP   
                                         1700(1)
                                         OPER   

              2       7    11407.68       700     1000      520     2100     2140     5201     5101   
                                         GEOM     BASIS   MCVARS     RHF     MCSCF    MRCI     MRCI   

 PROGRAMS   *        TOTAL        CI        CI        CI     MULTI   RHF-SCF       INT
 CPU TIMES  *    270263.51 240729.14  14227.67  15283.63     10.46      1.81     10.38
 REAL TIME  *    274167.07 SEC
 DISK USED  *        11.23 GB (local),      181.30 GB (total)
 SF USED    *        58.77 GB
 GA USED    *         0.00 MB       (max)       0.00 MB       (current)
 **********************************************************************************************************************************

 CI/USERDEF energy=   -214.074498945719

              CI              CI           MULTI         RHF-SCF
   -214.00084476   -214.01616457   -213.15274773   -213.37380461
 **********************************************************************************************************************************
 Molpro calculation terminated with 1 warning(s)
