
 Working directory              : /wrk/irikura/molpro.KGUE5EhVX3/
 Global scratch directory       : /wrk/irikura/molpro.KGUE5EhVX3/
 Wavefunction directory         : /home/irikura/wfu/
 Main file repository           : /wrk/irikura/molpro.KGUE5EhVX3/

 id        : nistki

 Nodes            nprocs
 pn125343.nist.gov   14
 GA implementation: MPI file
 GA implementation (serial work in mppx): MPI file

 Using customized tuning parameters: mindgm=1; mindgv=20; mindgc=4; mindgr=1; noblas=0; minvec=7
 default implementation of scratch files=sf  


 Variables initialized (1042), CPU time= 0.01 sec
 ***,Sn SO-CI
 memory,1300,M;
 
 gprint,orbitals,civector,basis;
 
 symmetry,xyz
 geometry={Sn};
 
                                                                                 !basis=aug-cc-pwCVTZ-DK3
 basis={
 spdfg,sn,aug-cc-pwCVTZ-DK3;C; spdf,1,even,nprim=1,ratio=3.0;
 }
 
 set,dkho=101
 
                                                                                 ! spherical dication (1S) orbitals
 {rhf;wf,nelec=48,sym=1,spin=0}
 
 NTRIP=12
 NSING=6
 
                                                                                 ! (4/7) active space (s + 2*p)
 {multi
     occ,15,15
     wf,nelec=50,sym=1,spin=2;state,NTRIP;
     expec2,lxx,lyy,lzz;
     wf,nelec=50,sym=1,spin=0;state,NSING;
     expec2,lxx,lyy,lzz;
 }
 table, energy, ll
 title, Energies and &lt;L**2&gt; values
 
                                                                                 ! free KL shells
 core,8,6
 
 {ci;wf,sym=1,spin=2;state,NTRIP; save,5203.2}
 hlsdiag = energd4
 {ci;wf,sym=1,spin=0;state,NSING; save,5201.2}
 hlsdiag(NTRIP+1) = energd4
 
 table,hlsdiag
 
                                                                                 !lsint
 {ci;hlsmat,ls,5203.2,5201.2;print,vls=0,hls=0}                                  !compute and diagonalize SO matrix
 Commands initialized (847), CPU time= 0.01 sec, 718 directives.
 Default parameters read. Elapsed time= 0.09 sec

 Checking input...
 Passed
1


                                         ***  PROGRAM SYSTEM MOLPRO  ***
                                       Copyright, TTI GmbH Stuttgart, 2015
                                    Version 2024.1 linked Mon Jun 17 07:53:25 2024


 **********************************************************************************************************************************
 LABEL *   Sn SO-CI                                                                                                                                                      
  (64 PROC) 64 bit mpp version                                                           DATE: 23-Oct-24          TIME: 10:59:48  
 **********************************************************************************************************************************

 SHA1:             0134236b472f03f1f5189f93707d8671e415b05c
 **********************************************************************************************************************************

 Memory per process:      1300 MW
 Total memory per node:  18200 MW

 GA preallocation disabled
 GA check disabled

 Variable memory set to 1300.0 MW


 ZSYMEL=XYZ

 SETTING BASIS          =    USERDEF
 SETTING DKHO           =       101.00000000                                  


 Recomputing integrals since basis changed


 Using spherical harmonics

 Library entry SN     S AUG-CC-PWCVTZ-DK     selected for orbital group  1
 Even tempered Sn S diffuse               selected for group 1    nprim= 1    centre=  0.009    ratio= 3.000    dratio= 1.000
 Library entry SN     P AUG-CC-PWCVTZ-DK     selected for orbital group  1
 Even tempered Sn P diffuse               selected for group 1    nprim= 1    centre=  0.006    ratio= 3.000    dratio= 1.000
 Library entry SN     D AUG-CC-PWCVTZ-DK     selected for orbital group  1
 Even tempered Sn D diffuse               selected for group 1    nprim= 1    centre=  0.014    ratio= 3.000    dratio= 1.000
 Library entry SN     F AUG-CC-PWCVTZ-DK     selected for orbital group  1
 Even tempered Sn F diffuse               selected for group 1    nprim= 1    centre=  0.036    ratio= 3.000    dratio= 1.000
 Library entry SN     G AUG-CC-PWCVTZ-DK     selected for orbital group  1


 PROGRAM * SEWARD (Integral evaluation for generally contracted gaussian basis sets)     Author: Roland Lindh, 1990

 Geometry written to block  1 of record 700

 Orientation using atomic masses  
 Molecule type: Atom
 User-specified symmetry elements: XYZ
 Symmetry elements: XYZ
 Rotational constants:       0.0000000      0.0000000      0.0000000 GHz  (calculated with average atomic masses)

 Point group  Ci  



 ATOMIC COORDINATES

 NR  ATOM    CHARGE       X              Y              Z

   1  SN     50.00    0.000000000    0.000000000    0.000000000


 BASIS DATA

   Nr Sym  Nuc  Type         Exponents   Contraction coefficients

    1.1 Ag    1  1s   468212200.000000     0.000038   -0.000013    0.000006   -0.000002    0.000001    0.000000
                                           0.000000    0.000000    0.000000
    2.1 Ag             74782910.000000     0.000096   -0.000033    0.000015   -0.000006    0.000002    0.000000
                                           0.000000    0.000000    0.000000
    3.1 Ag             15930880.000000     0.000258   -0.000089    0.000039   -0.000017    0.000005    0.000000
                                           0.000000    0.000000    0.000000
    4.1 Ag              4255039.000000     0.000564   -0.000194    0.000086   -0.000037    0.000011    0.000000
                                           0.000000    0.000000    0.000000
    5.1 Ag              1352709.000000     0.001147   -0.000395    0.000174   -0.000076    0.000023    0.000000
                                           0.000000    0.000000    0.000000
    6.1 Ag               490299.800000     0.002176   -0.000751    0.000332   -0.000144    0.000043    0.000000
                                           0.000000    0.000000    0.000000
    7.1 Ag               195681.200000     0.004033   -0.001397    0.000618   -0.000269    0.000081    0.000000
                                           0.000000    0.000000    0.000000
    8.1 Ag                83664.050000     0.007393   -0.002576    0.001140   -0.000496    0.000149    0.000000
                                           0.000000    0.000000    0.000000
    9.1 Ag                37527.340000     0.013703   -0.004816    0.002135   -0.000930    0.000279    0.000000
                                           0.000000    0.000000    0.000000
                          17393.320000     0.025804   -0.009203    0.004086   -0.001779    0.000534    0.000000
                                           0.000000    0.000000    0.000000
                           8244.896000     0.049387   -0.018019    0.008034   -0.003503    0.001052    0.000000
                                           0.000000    0.000000    0.000000
                           3972.629000     0.094077   -0.035736    0.016010   -0.006984    0.002094    0.000000
                                           0.000000    0.000000    0.000000
                           1940.035000     0.170003   -0.069311    0.031432   -0.013752    0.004136    0.000000
                                           0.000000    0.000000    0.000000
                            959.841900     0.265220   -0.123375    0.057001   -0.025021    0.007504    0.000000
                                           0.000000    0.000000    0.000000
                            481.709000     0.303270   -0.176056    0.084647   -0.037494    0.011321    0.000000
                                           0.000000    0.000000    0.000000
                            245.732800     0.194455   -0.137473    0.069083   -0.030840    0.009210    0.000000
                                           0.000000    0.000000    0.000000
                            127.685300     0.045921    0.116886   -0.073580    0.034189   -0.010174    0.000000
                                           0.000000    0.000000    0.000000
                             67.666920     0.002574    0.470999   -0.372567    0.183926   -0.056951    0.000000
                                           0.000000    0.000000    0.000000
                             36.561730    -0.000116    0.442257   -0.472667    0.246581   -0.075365    0.000000
                                           0.000000    0.000000    0.000000
                             20.085940     0.000217    0.137153   -0.032588    0.020423   -0.009424    0.000000
                                           0.000000    0.000000    0.000000
                             11.152230    -0.000264    0.012417    0.640450   -0.509023    0.177389    0.000000
                                           0.000000    0.000000    0.000000
                              6.195252     0.000146    0.000427    0.562082   -0.710192    0.250454    0.000000
                                           0.000000    0.000000    0.000000
                              3.392243    -0.000080    0.000073    0.110544    0.170116   -0.079136    0.000000
                                           0.000000    0.000000    0.000000
                              1.692210     0.000039   -0.000218    0.008001    0.841947   -0.431986    1.000000
                                           0.000000    0.000000    0.000000
                              0.833737    -0.000013    0.000022    0.000093    0.414262   -0.341961    0.000000
                                           1.000000    0.000000    0.000000
                              0.267484     0.000005   -0.000016    0.000312    0.019405    0.399698    0.000000
                                           0.000000    1.000000    0.000000
                              0.127941    -0.000003    0.000011   -0.000194   -0.004766    0.624327    0.000000
                                           0.000000    0.000000    0.000000
                              0.057682     0.000001   -0.000003    0.000049    0.001103    0.234312    0.000000
                                           0.000000    0.000000    1.000000
   10.1 Ag    1  1s           0.026827     1.000000
   11.1 Ag    1  1s           0.008942     1.000000
   12.1 Ag    1  3d0       3880.017000     0.000147
                           1087.186000     0.001233
                            401.489300     0.007261
                            173.878300     0.029883
                             82.163340     0.092848
                             40.716580     0.212931
                             20.760810     0.335417
                             10.777500     0.342510
                              5.616890     0.178666
                              2.860219     0.035851
                              1.402527     0.001757
                              0.663835     0.000135
                              0.296984    -0.000035
                              0.114807     0.000004
   13.1 Ag    1  3d2-      3880.017000     0.000147
                           1087.186000     0.001233
                            401.489300     0.007261
                            173.878300     0.029883
                             82.163340     0.092848
                             40.716580     0.212931
                             20.760810     0.335417
                             10.777500     0.342510
                              5.616890     0.178666
                              2.860219     0.035851
                              1.402527     0.001757
                              0.663835     0.000135
                              0.296984    -0.000035
                              0.114807     0.000004
   14.1 Ag    1  3d1+      3880.017000     0.000147
                           1087.186000     0.001233
                            401.489300     0.007261
                            173.878300     0.029883
                             82.163340     0.092848
                             40.716580     0.212931
                             20.760810     0.335417
                             10.777500     0.342510
                              5.616890     0.178666
                              2.860219     0.035851
                              1.402527     0.001757
                              0.663835     0.000135
                              0.296984    -0.000035
                              0.114807     0.000004
   15.1 Ag    1  3d2+      3880.017000     0.000147
                           1087.186000     0.001233
                            401.489300     0.007261
                            173.878300     0.029883
                             82.163340     0.092848
                             40.716580     0.212931
                             20.760810     0.335417
                             10.777500     0.342510
                              5.616890     0.178666
                              2.860219     0.035851
                              1.402527     0.001757
                              0.663835     0.000135
                              0.296984    -0.000035
                              0.114807     0.000004
   16.1 Ag    1  3d1-      3880.017000     0.000147
                           1087.186000     0.001233
                            401.489300     0.007261
                            173.878300     0.029883
                             82.163340     0.092848
                             40.716580     0.212931
                             20.760810     0.335417
                             10.777500     0.342510
                              5.616890     0.178666
                              2.860219     0.035851
                              1.402527     0.001757
                              0.663835     0.000135
                              0.296984    -0.000035
                              0.114807     0.000004
   17.1 Ag    1  3d0       3880.017000    -0.000055
                           1087.186000    -0.000459
                            401.489300    -0.002713
                            173.878300    -0.011242
                             82.163340    -0.035374
                             40.716580    -0.082042
                             20.760810    -0.125524
                             10.777500    -0.110831
                              5.616890     0.062757
                              2.860219     0.319069
                              1.402527     0.422186
                              0.663835     0.295149
                              0.296984     0.092209
                              0.114807     0.006455
   18.1 Ag    1  3d2-      3880.017000    -0.000055
                           1087.186000    -0.000459
                            401.489300    -0.002713
                            173.878300    -0.011242
                             82.163340    -0.035374
                             40.716580    -0.082042
                             20.760810    -0.125524
                             10.777500    -0.110831
                              5.616890     0.062757
                              2.860219     0.319069
                              1.402527     0.422186
                              0.663835     0.295149
                              0.296984     0.092209
                              0.114807     0.006455
   19.1 Ag    1  3d1+      3880.017000    -0.000055
                           1087.186000    -0.000459
                            401.489300    -0.002713
                            173.878300    -0.011242
                             82.163340    -0.035374
                             40.716580    -0.082042
                             20.760810    -0.125524
                             10.777500    -0.110831
                              5.616890     0.062757
                              2.860219     0.319069
                              1.402527     0.422186
                              0.663835     0.295149
                              0.296984     0.092209
                              0.114807     0.006455
   20.1 Ag    1  3d2+      3880.017000    -0.000055
                           1087.186000    -0.000459
                            401.489300    -0.002713
                            173.878300    -0.011242
                             82.163340    -0.035374
                             40.716580    -0.082042
                             20.760810    -0.125524
                             10.777500    -0.110831
                              5.616890     0.062757
                              2.860219     0.319069
                              1.402527     0.422186
                              0.663835     0.295149
                              0.296984     0.092209
                              0.114807     0.006455
   21.1 Ag    1  3d1-      3880.017000    -0.000055
                           1087.186000    -0.000459
                            401.489300    -0.002713
                            173.878300    -0.011242
                             82.163340    -0.035374
                             40.716580    -0.082042
                             20.760810    -0.125524
                             10.777500    -0.110831
                              5.616890     0.062757
                              2.860219     0.319069
                              1.402527     0.422186
                              0.663835     0.295149
                              0.296984     0.092209
                              0.114807     0.006455
   22.1 Ag    1  3d0       3880.017000     0.000000
                           1087.186000     0.000000
                            401.489300     0.000000
                            173.878300     0.000000
                             82.163340     0.000000
                             40.716580     0.000000
                             20.760810     0.000000
                             10.777500     0.000000
                              5.616890     0.000000
                              2.860219     0.000000
                              1.402527     1.000000
                              0.663835     0.000000
                              0.296984     0.000000
                              0.114807     0.000000
   23.1 Ag    1  3d2-      3880.017000     0.000000
                           1087.186000     0.000000
                            401.489300     0.000000
                            173.878300     0.000000
                             82.163340     0.000000
                             40.716580     0.000000
                             20.760810     0.000000
                             10.777500     0.000000
                              5.616890     0.000000
                              2.860219     0.000000
                              1.402527     1.000000
                              0.663835     0.000000
                              0.296984     0.000000
                              0.114807     0.000000
   24.1 Ag    1  3d1+      3880.017000     0.000000
                           1087.186000     0.000000
                            401.489300     0.000000
                            173.878300     0.000000
                             82.163340     0.000000
                             40.716580     0.000000
                             20.760810     0.000000
                             10.777500     0.000000
                              5.616890     0.000000
                              2.860219     0.000000
                              1.402527     1.000000
                              0.663835     0.000000
                              0.296984     0.000000
                              0.114807     0.000000
   25.1 Ag    1  3d2+      3880.017000     0.000000
                           1087.186000     0.000000
                            401.489300     0.000000
                            173.878300     0.000000
                             82.163340     0.000000
                             40.716580     0.000000
                             20.760810     0.000000
                             10.777500     0.000000
                              5.616890     0.000000
                              2.860219     0.000000
                              1.402527     1.000000
                              0.663835     0.000000
                              0.296984     0.000000
                              0.114807     0.000000
   26.1 Ag    1  3d1-      3880.017000     0.000000
                           1087.186000     0.000000
                            401.489300     0.000000
                            173.878300     0.000000
                             82.163340     0.000000
                             40.716580     0.000000
                             20.760810     0.000000
                             10.777500     0.000000
                              5.616890     0.000000
                              2.860219     0.000000
                              1.402527     1.000000
                              0.663835     0.000000
                              0.296984     0.000000
                              0.114807     0.000000
   27.1 Ag    1  3d0       3880.017000     0.000000
                           1087.186000     0.000000
                            401.489300     0.000000
                            173.878300     0.000000
                             82.163340     0.000000
                             40.716580     0.000000
                             20.760810     0.000000
                             10.777500     0.000000
                              5.616890     0.000000
                              2.860219     0.000000
                              1.402527     0.000000
                              0.663835     1.000000
                              0.296984     0.000000
                              0.114807     0.000000
   28.1 Ag    1  3d2-      3880.017000     0.000000
                           1087.186000     0.000000
                            401.489300     0.000000
                            173.878300     0.000000
                             82.163340     0.000000
                             40.716580     0.000000
                             20.760810     0.000000
                             10.777500     0.000000
                              5.616890     0.000000
                              2.860219     0.000000
                              1.402527     0.000000
                              0.663835     1.000000
                              0.296984     0.000000
                              0.114807     0.000000
   29.1 Ag    1  3d1+      3880.017000     0.000000
                           1087.186000     0.000000
                            401.489300     0.000000
                            173.878300     0.000000
                             82.163340     0.000000
                             40.716580     0.000000
                             20.760810     0.000000
                             10.777500     0.000000
                              5.616890     0.000000
                              2.860219     0.000000
                              1.402527     0.000000
                              0.663835     1.000000
                              0.296984     0.000000
                              0.114807     0.000000
   30.1 Ag    1  3d2+      3880.017000     0.000000
                           1087.186000     0.000000
                            401.489300     0.000000
                            173.878300     0.000000
                             82.163340     0.000000
                             40.716580     0.000000
                             20.760810     0.000000
                             10.777500     0.000000
                              5.616890     0.000000
                              2.860219     0.000000
                              1.402527     0.000000
                              0.663835     1.000000
                              0.296984     0.000000
                              0.114807     0.000000
   31.1 Ag    1  3d1-      3880.017000     0.000000
                           1087.186000     0.000000
                            401.489300     0.000000
                            173.878300     0.000000
                             82.163340     0.000000
                             40.716580     0.000000
                             20.760810     0.000000
                             10.777500     0.000000
                              5.616890     0.000000
                              2.860219     0.000000
                              1.402527     0.000000
                              0.663835     1.000000
                              0.296984     0.000000
                              0.114807     0.000000
   32.1 Ag    1  3d0       3880.017000     0.000000
                           1087.186000     0.000000
                            401.489300     0.000000
                            173.878300     0.000000
                             82.163340     0.000000
                             40.716580     0.000000
                             20.760810     0.000000
                             10.777500     0.000000
                              5.616890     0.000000
                              2.860219     0.000000
                              1.402527     0.000000
                              0.663835     0.000000
                              0.296984     1.000000
                              0.114807     0.000000
   33.1 Ag    1  3d2-      3880.017000     0.000000
                           1087.186000     0.000000
                            401.489300     0.000000
                            173.878300     0.000000
                             82.163340     0.000000
                             40.716580     0.000000
                             20.760810     0.000000
                             10.777500     0.000000
                              5.616890     0.000000
                              2.860219     0.000000
                              1.402527     0.000000
                              0.663835     0.000000
                              0.296984     1.000000
                              0.114807     0.000000
   34.1 Ag    1  3d1+      3880.017000     0.000000
                           1087.186000     0.000000
                            401.489300     0.000000
                            173.878300     0.000000
                             82.163340     0.000000
                             40.716580     0.000000
                             20.760810     0.000000
                             10.777500     0.000000
                              5.616890     0.000000
                              2.860219     0.000000
                              1.402527     0.000000
                              0.663835     0.000000
                              0.296984     1.000000
                              0.114807     0.000000
   35.1 Ag    1  3d2+      3880.017000     0.000000
                           1087.186000     0.000000
                            401.489300     0.000000
                            173.878300     0.000000
                             82.163340     0.000000
                             40.716580     0.000000
                             20.760810     0.000000
                             10.777500     0.000000
                              5.616890     0.000000
                              2.860219     0.000000
                              1.402527     0.000000
                              0.663835     0.000000
                              0.296984     1.000000
                              0.114807     0.000000
   36.1 Ag    1  3d1-      3880.017000     0.000000
                           1087.186000     0.000000
                            401.489300     0.000000
                            173.878300     0.000000
                             82.163340     0.000000
                             40.716580     0.000000
                             20.760810     0.000000
                             10.777500     0.000000
                              5.616890     0.000000
                              2.860219     0.000000
                              1.402527     0.000000
                              0.663835     0.000000
                              0.296984     1.000000
                              0.114807     0.000000
   37.1 Ag    1  3d0       3880.017000     0.000000
                           1087.186000     0.000000
                            401.489300     0.000000
                            173.878300     0.000000
                             82.163340     0.000000
                             40.716580     0.000000
                             20.760810     0.000000
                             10.777500     0.000000
                              5.616890     0.000000
                              2.860219     0.000000
                              1.402527     0.000000
                              0.663835     0.000000
                              0.296984     0.000000
                              0.114807     1.000000
   38.1 Ag    1  3d2-      3880.017000     0.000000
                           1087.186000     0.000000
                            401.489300     0.000000
                            173.878300     0.000000
                             82.163340     0.000000
                             40.716580     0.000000
                             20.760810     0.000000
                             10.777500     0.000000
                              5.616890     0.000000
                              2.860219     0.000000
                              1.402527     0.000000
                              0.663835     0.000000
                              0.296984     0.000000
                              0.114807     1.000000
   39.1 Ag    1  3d1+      3880.017000     0.000000
                           1087.186000     0.000000
                            401.489300     0.000000
                            173.878300     0.000000
                             82.163340     0.000000
                             40.716580     0.000000
                             20.760810     0.000000
                             10.777500     0.000000
                              5.616890     0.000000
                              2.860219     0.000000
                              1.402527     0.000000
                              0.663835     0.000000
                              0.296984     0.000000
                              0.114807     1.000000
   40.1 Ag    1  3d2+      3880.017000     0.000000
                           1087.186000     0.000000
                            401.489300     0.000000
                            173.878300     0.000000
                             82.163340     0.000000
                             40.716580     0.000000
                             20.760810     0.000000
                             10.777500     0.000000
                              5.616890     0.000000
                              2.860219     0.000000
                              1.402527     0.000000
                              0.663835     0.000000
                              0.296984     0.000000
                              0.114807     1.000000
   41.1 Ag    1  3d1-      3880.017000     0.000000
                           1087.186000     0.000000
                            401.489300     0.000000
                            173.878300     0.000000
                             82.163340     0.000000
                             40.716580     0.000000
                             20.760810     0.000000
                             10.777500     0.000000
                              5.616890     0.000000
                              2.860219     0.000000
                              1.402527     0.000000
                              0.663835     0.000000
                              0.296984     0.000000
                              0.114807     1.000000
   42.1 Ag    1  3d0          0.042275     1.000000
   43.1 Ag    1  3d2-         0.042275     1.000000
   44.1 Ag    1  3d1+         0.042275     1.000000
   45.1 Ag    1  3d2+         0.042275     1.000000
   46.1 Ag    1  3d1-         0.042275     1.000000
   47.1 Ag    1  3d0          0.014092     1.000000
   48.1 Ag    1  3d2-         0.014092     1.000000
   49.1 Ag    1  3d1+         0.014092     1.000000
   50.1 Ag    1  3d2+         0.014092     1.000000
   51.1 Ag    1  3d1-         0.014092     1.000000
   52.1 Ag    1  5g0          1.079443     1.000000
   53.1 Ag    1  5g2-         1.079443     1.000000
   54.1 Ag    1  5g1+         1.079443     1.000000
   55.1 Ag    1  5g4+         1.079443     1.000000
   56.1 Ag    1  5g1-         1.079443     1.000000
   57.1 Ag    1  5g2+         1.079443     1.000000
   58.1 Ag    1  5g4-         1.079443     1.000000
   59.1 Ag    1  5g3+         1.079443     1.000000
   60.1 Ag    1  5g3-         1.079443     1.000000
    1.2 Au    1  2px    2798244.000000     0.000016
                         442299.000000     0.000056
                          95505.340000     0.000199
                          26280.730000     0.000666
                           8703.660000     0.002199
                           3312.470000     0.007109
                           1396.777000     0.021855
                            634.468500     0.061309
                            303.991600     0.146909
                            151.305400     0.275783
                             77.394170     0.354457
                             40.376080     0.245531
                             21.360870     0.069372
                             11.401440     0.005959
                              6.103777     0.000217
                              3.251674    -0.000029
                              1.635136    -0.000094
                              0.792668     0.000001
                              0.311722    -0.000009
                              0.138426     0.000004
                              0.054636    -0.000001
    2.2 Au    1  2py    2798244.000000     0.000016
                         442299.000000     0.000056
                          95505.340000     0.000199
                          26280.730000     0.000666
                           8703.660000     0.002199
                           3312.470000     0.007109
                           1396.777000     0.021855
                            634.468500     0.061309
                            303.991600     0.146909
                            151.305400     0.275783
                             77.394170     0.354457
                             40.376080     0.245531
                             21.360870     0.069372
                             11.401440     0.005959
                              6.103777     0.000217
                              3.251674    -0.000029
                              1.635136    -0.000094
                              0.792668     0.000001
                              0.311722    -0.000009
                              0.138426     0.000004
                              0.054636    -0.000001
    3.2 Au    1  2pz    2798244.000000     0.000016
                         442299.000000     0.000056
                          95505.340000     0.000199
                          26280.730000     0.000666
                           8703.660000     0.002199
                           3312.470000     0.007109
                           1396.777000     0.021855
                            634.468500     0.061309
                            303.991600     0.146909
                            151.305400     0.275783
                             77.394170     0.354457
                             40.376080     0.245531
                             21.360870     0.069372
                             11.401440     0.005959
                              6.103777     0.000217
                              3.251674    -0.000029
                              1.635136    -0.000094
                              0.792668     0.000001
                              0.311722    -0.000009
                              0.138426     0.000004
                              0.054636    -0.000001
    4.2 Au    1  2px    2798244.000000    -0.000007
                         442299.000000    -0.000026
                          95505.340000    -0.000092
                          26280.730000    -0.000309
                           8703.660000    -0.001023
                           3312.470000    -0.003326
                           1396.777000    -0.010344
                            634.468500    -0.029630
                            303.991600    -0.073668
                            151.305400    -0.145448
                             77.394170    -0.195518
                             40.376080    -0.073325
                             21.360870     0.255016
                             11.401440     0.506204
                              6.103777     0.317690
                              3.251674     0.057568
                              1.635136     0.004863
                              0.792668    -0.000114
                              0.311722     0.000236
                              0.138426    -0.000118
                              0.054636     0.000028
    5.2 Au    1  2py    2798244.000000    -0.000007
                         442299.000000    -0.000026
                          95505.340000    -0.000092
                          26280.730000    -0.000309
                           8703.660000    -0.001023
                           3312.470000    -0.003326
                           1396.777000    -0.010344
                            634.468500    -0.029630
                            303.991600    -0.073668
                            151.305400    -0.145448
                             77.394170    -0.195518
                             40.376080    -0.073325
                             21.360870     0.255016
                             11.401440     0.506204
                              6.103777     0.317690
                              3.251674     0.057568
                              1.635136     0.004863
                              0.792668    -0.000114
                              0.311722     0.000236
                              0.138426    -0.000118
                              0.054636     0.000028
    6.2 Au    1  2pz    2798244.000000    -0.000007
                         442299.000000    -0.000026
                          95505.340000    -0.000092
                          26280.730000    -0.000309
                           8703.660000    -0.001023
                           3312.470000    -0.003326
                           1396.777000    -0.010344
                            634.468500    -0.029630
                            303.991600    -0.073668
                            151.305400    -0.145448
                             77.394170    -0.195518
                             40.376080    -0.073325
                             21.360870     0.255016
                             11.401440     0.506204
                              6.103777     0.317690
                              3.251674     0.057568
                              1.635136     0.004863
                              0.792668    -0.000114
                              0.311722     0.000236
                              0.138426    -0.000118
                              0.054636     0.000028
    7.2 Au    1  2px    2798244.000000    -0.000003
                         442299.000000    -0.000011
                          95505.340000    -0.000038
                          26280.730000    -0.000129
                           8703.660000    -0.000427
                           3312.470000    -0.001388
                           1396.777000    -0.004331
                            634.468500    -0.012443
                            303.991600    -0.031193
                            151.305400    -0.062149
                             77.394170    -0.084639
                             40.376080    -0.023289
                             21.360870     0.149457
                             11.401440     0.330251
                              6.103777     0.177701
                              3.251674    -0.343027
                              1.635136    -0.574653
                              0.792668    -0.285327
                              0.311722    -0.027244
                              0.138426     0.001616
                              0.054636    -0.000688
    8.2 Au    1  2py    2798244.000000    -0.000003
                         442299.000000    -0.000011
                          95505.340000    -0.000038
                          26280.730000    -0.000129
                           8703.660000    -0.000427
                           3312.470000    -0.001388
                           1396.777000    -0.004331
                            634.468500    -0.012443
                            303.991600    -0.031193
                            151.305400    -0.062149
                             77.394170    -0.084639
                             40.376080    -0.023289
                             21.360870     0.149457
                             11.401440     0.330251
                              6.103777     0.177701
                              3.251674    -0.343027
                              1.635136    -0.574653
                              0.792668    -0.285327
                              0.311722    -0.027244
                              0.138426     0.001616
                              0.054636    -0.000688
    9.2 Au    1  2pz    2798244.000000    -0.000003
                         442299.000000    -0.000011
                          95505.340000    -0.000038
                          26280.730000    -0.000129
                           8703.660000    -0.000427
                           3312.470000    -0.001388
                           1396.777000    -0.004331
                            634.468500    -0.012443
                            303.991600    -0.031193
                            151.305400    -0.062149
                             77.394170    -0.084639
                             40.376080    -0.023289
                             21.360870     0.149457
                             11.401440     0.330251
                              6.103777     0.177701
                              3.251674    -0.343027
                              1.635136    -0.574653
                              0.792668    -0.285327
                              0.311722    -0.027244
                              0.138426     0.001616
                              0.054636    -0.000688
   10.2 Au    1  2px    2798244.000000    -0.000001
                         442299.000000    -0.000003
                          95505.340000    -0.000009
                          26280.730000    -0.000030
                           8703.660000    -0.000100
                           3312.470000    -0.000324
                           1396.777000    -0.001015
                            634.468500    -0.002909
                            303.991600    -0.007330
                            151.305400    -0.014551
                             77.394170    -0.020019
                             40.376080    -0.004915
                             21.360870     0.036087
                             11.401440     0.083998
                              6.103777     0.039150
                              3.251674    -0.103444
                              1.635136    -0.191611
                              0.792668    -0.090799
                              0.311722     0.228239
                              0.138426     0.529012
                              0.054636     0.398973
   11.2 Au    1  2py    2798244.000000    -0.000001
                         442299.000000    -0.000003
                          95505.340000    -0.000009
                          26280.730000    -0.000030
                           8703.660000    -0.000100
                           3312.470000    -0.000324
                           1396.777000    -0.001015
                            634.468500    -0.002909
                            303.991600    -0.007330
                            151.305400    -0.014551
                             77.394170    -0.020019
                             40.376080    -0.004915
                             21.360870     0.036087
                             11.401440     0.083998
                              6.103777     0.039150
                              3.251674    -0.103444
                              1.635136    -0.191611
                              0.792668    -0.090799
                              0.311722     0.228239
                              0.138426     0.529012
                              0.054636     0.398973
   12.2 Au    1  2pz    2798244.000000    -0.000001
                         442299.000000    -0.000003
                          95505.340000    -0.000009
                          26280.730000    -0.000030
                           8703.660000    -0.000100
                           3312.470000    -0.000324
                           1396.777000    -0.001015
                            634.468500    -0.002909
                            303.991600    -0.007330
                            151.305400    -0.014551
                             77.394170    -0.020019
                             40.376080    -0.004915
                             21.360870     0.036087
                             11.401440     0.083998
                              6.103777     0.039150
                              3.251674    -0.103444
                              1.635136    -0.191611
                              0.792668    -0.090799
                              0.311722     0.228239
                              0.138426     0.529012
                              0.054636     0.398973
   13.2 Au    1  2px    2798244.000000     0.000000
                         442299.000000     0.000000
                          95505.340000     0.000000
                          26280.730000     0.000000
                           8703.660000     0.000000
                           3312.470000     0.000000
                           1396.777000     0.000000
                            634.468500     0.000000
                            303.991600     0.000000
                            151.305400     0.000000
                             77.394170     0.000000
                             40.376080     0.000000
                             21.360870     0.000000
                             11.401440     0.000000
                              6.103777     0.000000
                              3.251674     1.000000
                              1.635136     0.000000
                              0.792668     0.000000
                              0.311722     0.000000
                              0.138426     0.000000
                              0.054636     0.000000
   14.2 Au    1  2py    2798244.000000     0.000000
                         442299.000000     0.000000
                          95505.340000     0.000000
                          26280.730000     0.000000
                           8703.660000     0.000000
                           3312.470000     0.000000
                           1396.777000     0.000000
                            634.468500     0.000000
                            303.991600     0.000000
                            151.305400     0.000000
                             77.394170     0.000000
                             40.376080     0.000000
                             21.360870     0.000000
                             11.401440     0.000000
                              6.103777     0.000000
                              3.251674     1.000000
                              1.635136     0.000000
                              0.792668     0.000000
                              0.311722     0.000000
                              0.138426     0.000000
                              0.054636     0.000000
   15.2 Au    1  2pz    2798244.000000     0.000000
                         442299.000000     0.000000
                          95505.340000     0.000000
                          26280.730000     0.000000
                           8703.660000     0.000000
                           3312.470000     0.000000
                           1396.777000     0.000000
                            634.468500     0.000000
                            303.991600     0.000000
                            151.305400     0.000000
                             77.394170     0.000000
                             40.376080     0.000000
                             21.360870     0.000000
                             11.401440     0.000000
                              6.103777     0.000000
                              3.251674     1.000000
                              1.635136     0.000000
                              0.792668     0.000000
                              0.311722     0.000000
                              0.138426     0.000000
                              0.054636     0.000000
   16.2 Au    1  2px    2798244.000000     0.000000
                         442299.000000     0.000000
                          95505.340000     0.000000
                          26280.730000     0.000000
                           8703.660000     0.000000
                           3312.470000     0.000000
                           1396.777000     0.000000
                            634.468500     0.000000
                            303.991600     0.000000
                            151.305400     0.000000
                             77.394170     0.000000
                             40.376080     0.000000
                             21.360870     0.000000
                             11.401440     0.000000
                              6.103777     0.000000
                              3.251674     0.000000
                              1.635136     0.000000
                              0.792668     1.000000
                              0.311722     0.000000
                              0.138426     0.000000
                              0.054636     0.000000
   17.2 Au    1  2py    2798244.000000     0.000000
                         442299.000000     0.000000
                          95505.340000     0.000000
                          26280.730000     0.000000
                           8703.660000     0.000000
                           3312.470000     0.000000
                           1396.777000     0.000000
                            634.468500     0.000000
                            303.991600     0.000000
                            151.305400     0.000000
                             77.394170     0.000000
                             40.376080     0.000000
                             21.360870     0.000000
                             11.401440     0.000000
                              6.103777     0.000000
                              3.251674     0.000000
                              1.635136     0.000000
                              0.792668     1.000000
                              0.311722     0.000000
                              0.138426     0.000000
                              0.054636     0.000000
   18.2 Au    1  2pz    2798244.000000     0.000000
                         442299.000000     0.000000
                          95505.340000     0.000000
                          26280.730000     0.000000
                           8703.660000     0.000000
                           3312.470000     0.000000
                           1396.777000     0.000000
                            634.468500     0.000000
                            303.991600     0.000000
                            151.305400     0.000000
                             77.394170     0.000000
                             40.376080     0.000000
                             21.360870     0.000000
                             11.401440     0.000000
                              6.103777     0.000000
                              3.251674     0.000000
                              1.635136     0.000000
                              0.792668     1.000000
                              0.311722     0.000000
                              0.138426     0.000000
                              0.054636     0.000000
   19.2 Au    1  2px    2798244.000000     0.000000
                         442299.000000     0.000000
                          95505.340000     0.000000
                          26280.730000     0.000000
                           8703.660000     0.000000
                           3312.470000     0.000000
                           1396.777000     0.000000
                            634.468500     0.000000
                            303.991600     0.000000
                            151.305400     0.000000
                             77.394170     0.000000
                             40.376080     0.000000
                             21.360870     0.000000
                             11.401440     0.000000
                              6.103777     0.000000
                              3.251674     0.000000
                              1.635136     0.000000
                              0.792668     0.000000
                              0.311722     1.000000
                              0.138426     0.000000
                              0.054636     0.000000
   20.2 Au    1  2py    2798244.000000     0.000000
                         442299.000000     0.000000
                          95505.340000     0.000000
                          26280.730000     0.000000
                           8703.660000     0.000000
                           3312.470000     0.000000
                           1396.777000     0.000000
                            634.468500     0.000000
                            303.991600     0.000000
                            151.305400     0.000000
                             77.394170     0.000000
                             40.376080     0.000000
                             21.360870     0.000000
                             11.401440     0.000000
                              6.103777     0.000000
                              3.251674     0.000000
                              1.635136     0.000000
                              0.792668     0.000000
                              0.311722     1.000000
                              0.138426     0.000000
                              0.054636     0.000000
   21.2 Au    1  2pz    2798244.000000     0.000000
                         442299.000000     0.000000
                          95505.340000     0.000000
                          26280.730000     0.000000
                           8703.660000     0.000000
                           3312.470000     0.000000
                           1396.777000     0.000000
                            634.468500     0.000000
                            303.991600     0.000000
                            151.305400     0.000000
                             77.394170     0.000000
                             40.376080     0.000000
                             21.360870     0.000000
                             11.401440     0.000000
                              6.103777     0.000000
                              3.251674     0.000000
                              1.635136     0.000000
                              0.792668     0.000000
                              0.311722     1.000000
                              0.138426     0.000000
                              0.054636     0.000000
   22.2 Au    1  2px    2798244.000000     0.000000
                         442299.000000     0.000000
                          95505.340000     0.000000
                          26280.730000     0.000000
                           8703.660000     0.000000
                           3312.470000     0.000000
                           1396.777000     0.000000
                            634.468500     0.000000
                            303.991600     0.000000
                            151.305400     0.000000
                             77.394170     0.000000
                             40.376080     0.000000
                             21.360870     0.000000
                             11.401440     0.000000
                              6.103777     0.000000
                              3.251674     0.000000
                              1.635136     0.000000
                              0.792668     0.000000
                              0.311722     0.000000
                              0.138426     0.000000
                              0.054636     1.000000
   23.2 Au    1  2py    2798244.000000     0.000000
                         442299.000000     0.000000
                          95505.340000     0.000000
                          26280.730000     0.000000
                           8703.660000     0.000000
                           3312.470000     0.000000
                           1396.777000     0.000000
                            634.468500     0.000000
                            303.991600     0.000000
                            151.305400     0.000000
                             77.394170     0.000000
                             40.376080     0.000000
                             21.360870     0.000000
                             11.401440     0.000000
                              6.103777     0.000000
                              3.251674     0.000000
                              1.635136     0.000000
                              0.792668     0.000000
                              0.311722     0.000000
                              0.138426     0.000000
                              0.054636     1.000000
   24.2 Au    1  2pz    2798244.000000     0.000000
                         442299.000000     0.000000
                          95505.340000     0.000000
                          26280.730000     0.000000
                           8703.660000     0.000000
                           3312.470000     0.000000
                           1396.777000     0.000000
                            634.468500     0.000000
                            303.991600     0.000000
                            151.305400     0.000000
                             77.394170     0.000000
                             40.376080     0.000000
                             21.360870     0.000000
                             11.401440     0.000000
                              6.103777     0.000000
                              3.251674     0.000000
                              1.635136     0.000000
                              0.792668     0.000000
                              0.311722     0.000000
                              0.138426     0.000000
                              0.054636     1.000000
   25.2 Au    1  2px          0.019041     1.000000
   26.2 Au    1  2py          0.019041     1.000000
   27.2 Au    1  2pz          0.019041     1.000000
   28.2 Au    1  2px          0.006347     1.000000
   29.2 Au    1  2py          0.006347     1.000000
   30.2 Au    1  2pz          0.006347     1.000000
   31.2 Au    1  4f1+         0.281866     1.000000
   32.2 Au    1  4f1-         0.281866     1.000000
   33.2 Au    1  4f0          0.281866     1.000000
   34.2 Au    1  4f3+         0.281866     1.000000
   35.2 Au    1  4f2-         0.281866     1.000000
   36.2 Au    1  4f3-         0.281866     1.000000
   37.2 Au    1  4f2+         0.281866     1.000000
   38.2 Au    1  4f1+         0.108885     1.000000
   39.2 Au    1  4f1-         0.108885     1.000000
   40.2 Au    1  4f0          0.108885     1.000000
   41.2 Au    1  4f3+         0.108885     1.000000
   42.2 Au    1  4f2-         0.108885     1.000000
   43.2 Au    1  4f3-         0.108885     1.000000
   44.2 Au    1  4f2+         0.108885     1.000000
   45.2 Au    1  4f1+         3.218151     1.000000
   46.2 Au    1  4f1-         3.218151     1.000000
   47.2 Au    1  4f0          3.218151     1.000000
   48.2 Au    1  4f3+         3.218151     1.000000
   49.2 Au    1  4f2-         3.218151     1.000000
   50.2 Au    1  4f3-         3.218151     1.000000
   51.2 Au    1  4f2+         3.218151     1.000000
   52.2 Au    1  4f1+         0.936040     1.000000
   53.2 Au    1  4f1-         0.936040     1.000000
   54.2 Au    1  4f0          0.936040     1.000000
   55.2 Au    1  4f3+         0.936040     1.000000
   56.2 Au    1  4f2-         0.936040     1.000000
   57.2 Au    1  4f3-         0.936040     1.000000
   58.2 Au    1  4f2+         0.936040     1.000000
   59.2 Au    1  4f1+         0.036295     1.000000
   60.2 Au    1  4f1-         0.036295     1.000000
   61.2 Au    1  4f0          0.036295     1.000000
   62.2 Au    1  4f3+         0.036295     1.000000
   63.2 Au    1  4f2-         0.036295     1.000000
   64.2 Au    1  4f3-         0.036295     1.000000
   65.2 Au    1  4f2+         0.036295     1.000000

 NUCLEAR CHARGE:                   50
 NUMBER OF PRIMITIVE AOS:         260
 NUMBER OF SYMMETRY AOS:          223
 NUMBER OF CONTRACTIONS:          125   (   60Ag  +   65Au  )
 NUMBER OF INNER CORE ORBITALS:    14   (    8Ag  +    6Au  )
 NUMBER OF OUTER CORE ORBITALS:     9   (    6Ag  +    3Au  )
 NUMBER OF VALENCE ORBITALS:        4   (    1Ag  +    3Au  )


 NUCLEAR REPULSION ENERGY    0.00000000

 One-electron integrals computed with SEWARD

 eXact-2-Component (X2C) method activated

 Computing Douglas-Kroll / X2C integrals

 AO integral compression algorithm  1   Integral accuracy      1.0D-11

     36.176 MB (compressed) written to integral file ( 14.0%)

     Node minimum: 1.049 MB, node maximum: 4.981 MB


 NUMBER OF SORTED TWO-ELECTRON INTEGRALS:    1124114.     BUFFER LENGTH:  32768
 NUMBER OF SEGMENTS:   1  SEGMENT LENGTH:    1124114      RECORD LENGTH: 524288

 Memory used in sort:       1.68 MW

 SORT1 READ    32049457. AND WROTE      231012. INTEGRALS IN      1 RECORDS. CPU TIME:     0.15 SEC, REAL TIME:     0.16 SEC
 SORT2 READ     3151669. AND WROTE    15753000. INTEGRALS IN    154 RECORDS. CPU TIME:     0.01 SEC, REAL TIME:     0.02 SEC

 Node minimum:     1123108.  Node maximum:     1130459. integrals

 OPERATOR DM      FOR CENTER  0  COORDINATES:    0.000000    0.000000    0.000000

 EXTRA SYMMETRY OF AOS IN SYMMETRY 1:   1 1 1 1 1 1 1 1 1 1   1 2 3 4 5 6 2 3 4 5   6 2 3 4 5 6 2 3 4 5   6 2 3 4 5 6 2 3 4 5
                                        6 2 3 4 5 6 2 3 4 5   6 7 8 9101112131415
 EXTRA SYMMETRY OF AOS IN SYMMETRY 2:   1 2 3 1 2 3 1 2 3 1   2 3 1 2 3 1 2 3 1 2   3 1 2 3 1 2 3 1 2 3   4 5 6 7 8 910 4 5 6
                                        7 8 910 4 5 6 7 8 9  10 4 5 6 7 8 910 4 5   6 7 8 910

 Eigenvalues of metric

         1 0.294E-04 0.867E-03 0.124E-01 0.164E-01 0.164E-01 0.164E-01 0.164E-01 0.164E-01
         2 0.239E-02 0.239E-02 0.239E-02 0.647E-02 0.647E-02 0.647E-02 0.811E-01 0.811E-01


 **********************************************************************************************************************************
 DATASETS  * FILE   NREC   LENGTH (MB)   RECORD NAMES
              1      22       29.42       500      610      700      900      950      970     1000      129      960     1700   
                                          VAR    BASINP    GEOM    SYMINP    ZMAT    AOBASIS   BASIS     P2S    ABASIS    OPER   
                                         1101     1401     1411     1412     1650     1100     1400     1410     1200     1210   
                                          SR      EKINR    POTR     PVPR    MOLCAS      S      EKIN      POT      H0       H01  
                                         1080     1600   
                                         AOSYM     SMH  

 PROGRAMS   *        TOTAL       INT
 CPU TIMES  *         2.10      1.93
 REAL TIME  *         2.73 SEC
 DISK USED  *        29.78 MB (local),      490.16 MB (total)
 GA USED    *         0.00 MB       (max)       0.00 MB       (current)
 **********************************************************************************************************************************


 Program * Restricted Hartree-Fock


   Atom=SN basis=STO-3G            lmin=0  lmax=2

 Orbital guess generated from atomic densities.

 Initial occupancy:  14  10

 NELEC=   48   SYM=1   MS2= 0   THRE=1.0D-08   THRD=3.2D-06   THRG=3.2D-06  HFMA2=F  DIIS_START=2   DIIS_MAX=10   DIIS_INCORE=F

 Level shifts:    0.00 (CLOSED)    0.00 (OPEN)    0.30 (GAP_MIN)

 ITER           ETOT              DE          GRAD        DDIFF     DIIS  NEXP   TIME(IT)  TIME(TOT)  DIAG
   1    -6084.58512911   -6084.58512911     0.00D+00     0.13D+01     0     0       0.01      0.02    start
   2    -6118.68689028     -34.10176118     0.50D+00     0.12D+01     1     0       0.01      0.03    diag
   3    -6169.62937692     -50.94248663     0.43D+00     0.19D+00     2     0       0.01      0.04    diag
   4    -6172.74291055      -3.11353363     0.99D-01     0.16D+00     3     0       0.01      0.05    diag
   5    -6172.98934642      -0.24643588     0.29D-01     0.24D-01     4     0       0.01      0.06    diag
   6    -6172.99125680      -0.00191037     0.22D-02     0.47D-02     5     0       0.01      0.07    diag
   7    -6172.99127240      -0.00001560     0.15D-03     0.21D-03     6     0       0.00      0.07    diag
   8    -6172.99127289      -0.00000049     0.38D-04     0.28D-04     7     0       0.01      0.08    fixocc
   9    -6172.99127292      -0.00000004     0.43D-05     0.16D-04     8     0       0.01      0.09    diag
  10    -6172.99127293      -0.00000000     0.25D-06     0.58D-06     9     0       0.01      0.10    diag/orth
  11    -6172.99127293       0.00000000     0.10D-07     0.40D-07     0     0       0.01      0.11    diag

 Final occupancy:  15   9

 !RHF STATE 1.1 Energy              -6172.991272925034
  RHF One-electron energy           -8458.951835958949
  RHF Two-electron energy            2285.960563033916
  RHF Kinetic energy                 7119.452378753114
  RHF Nuclear energy                    0.000000000000
  RHF Virial quotient                  -0.867059844567

 !RHF STATE 1.1 Dipole moment           0.00000000     0.00000000     0.00000000
 Dipole moment /Debye                   0.00000000     0.00000000     0.00000000

 ELECTRON ORBITALS
 =================

  Orbital  Occupation    Energy    Cen Mu Typ  Coefficients
    1.1     2.00000 -1079.06336     1  1  s    0.99010
    2.1     2.00000  -166.86729     1  2  s    1.06409
    3.1     2.00000   -34.18949     1  3  s    0.86558
    4.1     2.00000   -19.53230     1  1  d0   0.99996
    5.1     2.00000   -19.53230     1  1  d1+ -0.47380    1  1  d1-  0.88059
    6.1     2.00000   -19.53230     1  1  d1+  0.88059    1  1  d1-  0.47380
    7.1     2.00000   -19.53230     1  1  d2-  0.72950    1  1  d2+  0.68393
    8.1     2.00000   -19.53230     1  1  d2- -0.68393    1  1  d2+  0.72950
    9.1     2.00000    -6.52360     1  4  s    1.07875
   10.1     2.00000    -1.94645     1  2  d1+ -0.35687    1  2  d1-  0.93886
   11.1     2.00000    -1.94645     1  2  d1+  0.93887    1  2  d1-  0.35687
   12.1     2.00000    -1.94645     1  2  d0   1.00440
   13.1     2.00000    -1.94645     1  2  d2-  0.73298    1  2  d2+  0.68671
   14.1     2.00000    -1.94645     1  2  d2- -0.68671    1  2  d2+  0.73298
   15.1     2.00000    -1.05760     1  5  s    1.09927
    1.2     2.00000  -149.69509     1  1  pz   0.99999
    2.2     2.00000  -149.69509     1  1  px  -0.53813    1  1  py   0.84285
    3.2     2.00000  -149.69509     1  1  px   0.84285    1  1  py   0.53813
    4.2     2.00000   -28.42311     1  2  pz   1.00014
    5.2     2.00000   -28.42311     1  2  px  -0.38949    1  2  py   0.92119
    6.2     2.00000   -28.42311     1  2  px   0.92119    1  2  py   0.38949
    7.2     2.00000    -4.68856     1  3  pz   0.99711
    8.2     2.00000    -4.68856     1  3  px  -0.38051    1  3  py   0.92165
    9.2     2.00000    -4.68856     1  3  px   0.92165    1  3  py   0.38051


 HOMO     15.1    -1.057601 =     -28.7788eV
 LUMO     10.2    -0.495073 =     -13.4716eV
 LUMO-HOMO         0.562528 =      15.3072eV

 Orbitals saved in record  2100.2


 **********************************************************************************************************************************
 DATASETS  * FILE   NREC   LENGTH (MB)   RECORD NAMES
              1      22       29.42       500      610      700      900      950      970     1000      129      960     1700   
                                          VAR    BASINP    GEOM    SYMINP    ZMAT    AOBASIS   BASIS     P2S    ABASIS    OPER   
                                         1101     1401     1411     1412     1650     1100     1400     1410     1200     1210   
                                          SR      EKINR    POTR     PVPR    MOLCAS      S      EKIN      POT      H0       H01  
                                         1080     1600   
                                         AOSYM     SMH  

              2       4        0.52       700     1000      520     2100   
                                         GEOM     BASIS   MCVARS     RHF  

 PROGRAMS   *        TOTAL   RHF-SCF       INT
 CPU TIMES  *         2.21      0.11      1.93
 REAL TIME  *         2.85 SEC
 DISK USED  *        30.58 MB (local),      501.35 MB (total)
 GA USED    *         0.00 MB       (max)       0.00 MB       (current)
 **********************************************************************************************************************************
 SETTING NTRIP          =        12.00000000                                  
 SETTING NSING          =         6.00000000                                  

 PROGRAM * MULTI (Direct Multiconfiguration SCF)       Authors: P.J. Knowles, H.-J. Werner (1984)
                                                                D.A. Kreplin, P.J. Knowles, H.-J. Werner (2019)

 Number of closed-shell orbitals:  23 (   14    9)
 Number of active  orbitals:        7 (    1    6)
 Number of external orbitals:      95 (   45   50)

 State symmetry 1

 Number of active electrons:   4    Spin symmetry=Triplet   Space symmetry=1
 Number of states:            12
 Number of CSFs:             120   (135 determinants, 245 intermediate states)

 State symmetry 2

 Number of active electrons:   4    Spin symmetry=Singlet   Space symmetry=1
 Number of states:             6
 Number of CSFs:             126   (261 determinants, 441 intermediate states)

 Molecular orbitals read from record     2100.2  Type=RHF/CANONICAL  
 *** IN SYMMETRY 1 ORBITAL  4 SYMMETRY CONTAMINATION OF 0.388D-02 HAS BEEN REMOVED
 *** IN SYMMETRY 1 ORBITAL  5 SYMMETRY CONTAMINATION OF 0.350D+00 HAS BEEN REMOVED
 *** IN SYMMETRY 1 ORBITAL  6 SYMMETRY CONTAMINATION OF 0.350D+00 HAS BEEN REMOVED
 *** IN SYMMETRY 1 ORBITAL  7 SYMMETRY CONTAMINATION OF 0.485D+00 HAS BEEN REMOVED
 *** IN SYMMETRY 1 ORBITAL  8 SYMMETRY CONTAMINATION OF 0.484D+00 HAS BEEN REMOVED
 *** IN SYMMETRY 1 ORBITAL 10 SYMMETRY CONTAMINATION OF 0.279D+00 HAS BEEN REMOVED
 *** IN SYMMETRY 1 ORBITAL 11 SYMMETRY CONTAMINATION OF 0.276D+00 HAS BEEN REMOVED
 *** IN SYMMETRY 1 ORBITAL 12 SYMMETRY CONTAMINATION OF 0.591D-02 HAS BEEN REMOVED
 *** IN SYMMETRY 1 ORBITAL 13 SYMMETRY CONTAMINATION OF 0.484D+00 HAS BEEN REMOVED
 *** IN SYMMETRY 1 ORBITAL 14 SYMMETRY CONTAMINATION OF 0.484D+00 HAS BEEN REMOVED

 EXTRA SYMMETRY OF MOS IN SYMMETRY 1:   1 1 1 2 6 4 3 5 1 6   4 2 3 5 1 1 2 6 4 3   5 1 2 6 4 3 5 1 2 6   4 3 5 1 2 6 4 3 5 6
                                        4 2 3 5 1 711 912 8  15141013 6 4 2 3 5 1
 *** IN SYMMETRY 2 ORBITAL  1 SYMMETRY CONTAMINATION OF 0.954D-03 HAS BEEN REMOVED
 *** IN SYMMETRY 2 ORBITAL  2 SYMMETRY CONTAMINATION OF 0.390D+00 HAS BEEN REMOVED
 *** IN SYMMETRY 2 ORBITAL  3 SYMMETRY CONTAMINATION OF 0.390D+00 HAS BEEN REMOVED
 *** IN SYMMETRY 2 ORBITAL  4 SYMMETRY CONTAMINATION OF 0.806D-03 HAS BEEN REMOVED
 *** IN SYMMETRY 2 ORBITAL  5 SYMMETRY CONTAMINATION OF 0.297D+00 HAS BEEN REMOVED
 *** IN SYMMETRY 2 ORBITAL  6 SYMMETRY CONTAMINATION OF 0.297D+00 HAS BEEN REMOVED
 *** IN SYMMETRY 2 ORBITAL  7 SYMMETRY CONTAMINATION OF 0.656D-03 HAS BEEN REMOVED
 *** IN SYMMETRY 2 ORBITAL  8 SYMMETRY CONTAMINATION OF 0.292D+00 HAS BEEN REMOVED
 *** IN SYMMETRY 2 ORBITAL  9 SYMMETRY CONTAMINATION OF 0.292D+00 HAS BEEN REMOVED
 *** IN SYMMETRY 2 ORBITAL 10 SYMMETRY CONTAMINATION OF 0.293D+00 HAS BEEN REMOVED
 *** IN SYMMETRY 2 ORBITAL 11 SYMMETRY CONTAMINATION OF 0.293D+00 HAS BEEN REMOVED
 *** IN SYMMETRY 2 ORBITAL 12 SYMMETRY CONTAMINATION OF 0.580D-03 HAS BEEN REMOVED
 *** IN SYMMETRY 2 ORBITAL 13 SYMMETRY CONTAMINATION OF 0.649D-03 HAS BEEN REMOVED
 *** IN SYMMETRY 2 ORBITAL 14 SYMMETRY CONTAMINATION OF 0.293D+00 HAS BEEN REMOVED
 *** IN SYMMETRY 2 ORBITAL 15 SYMMETRY CONTAMINATION OF 0.293D+00 HAS BEEN REMOVED
 EXTRA SYMMETRY OF MOS IN SYMMETRY 2:   3 2 1 3 2 1 3 2 1 1   2 3 3 2 1 6 5 4 810   9 7 3 2 1 3 2 1 6 5   4 810 9 7 3 2 1 6 5
                                        410 8 9 7 6 5 4 810   9 7 3 2 1 6 5 4 810   7 9 1 2 3

 Wavefunction dump at record             2140.2

 Convergence thresholds  0.10E-04 (gradient)  0.10E-05 (energy)

 Weight factors for state symmetry  1:    0.05556   0.05556   0.05556   0.05556   0.05556   0.05556   0.05556   0.05556
                                          0.05556   0.05556   0.05556   0.05556
 Weight factors for state symmetry  2:    0.05556   0.05556   0.05556   0.05556   0.05556   0.05556
 
 Number of orbital rotations:  1493  ( 68 closed/active, 1080 closed/virtual, 0 active/active, 345 active/virtual )
 Total number of variables:    4679
 
 Second-order MCSCF: L-BFGS accelerated
 
 ITER  MIC  NCI  NEG     ENERGY(VAR)    ENERGY(PROJ) ENERGY CHANGE       GRAD(0)  GRAD(ORB)   GRAD(CI)      STEP      TIME
   1    5    8    0  -6173.62988601   -6173.64855700   -0.01867100    0.18055733 0.00013886 0.00000000  0.65E+00      1.00
   2    7   12    0  -6173.64920691   -6173.64928576   -0.00007885    0.00848347 0.00000560 0.00000000  0.64E-01      2.27
   3    5   10    0  -6173.64928599   -6173.64928600   -0.00000000    0.00004016 0.00000001 0.00000000  0.28E-03      3.25
   4    3    6    0  -6173.64928600   -6173.64928600    0.00000000    0.00000000 0.00000001 0.00000000  0.23E-07      3.95

 CONVERGENCE REACHED!  Final gradient:    0.00000000 ( 0.49E-08)
                       Final energy:  -6173.64928600
 
 Results for state 1.1 Triplet
 =============================
 !MCSCF STATE 1.1 Triplet Energy             -6173.750654039529
 Nuclear energy                                  0.00000000
 Kinetic energy                               7120.72641800
 One electron energy                         -8492.18684529
 Two electron energy                          2318.43619125
 Virial ratio                                    1.86701135
 
 !MCSCF STATE 1.1 Triplet Dipole moment          0.00000000     0.00000000     0.00000000
 Dipole moment /Debye                            0.00000000     0.00000000     0.00000000
 
 Results for state 2.1 Triplet
 =============================
 !MCSCF STATE 2.1 Triplet Energy             -6173.750654038544
 Nuclear energy                                  0.00000000
 Kinetic energy                               7120.72641805
 One electron energy                         -8492.18684548
 Two electron energy                          2318.43619144
 Virial ratio                                    1.86701135
 
 !MCSCF STATE 2.1 Triplet Dipole moment          0.00000000     0.00000000     0.00000000
 Dipole moment /Debye                            0.00000000     0.00000000     0.00000000
 
 Results for state 3.1 Triplet
 =============================
 !MCSCF STATE 3.1 Triplet Energy             -6173.750654038450
 Nuclear energy                                  0.00000000
 Kinetic energy                               7120.72641805
 One electron energy                         -8492.18684551
 Two electron energy                          2318.43619147
 Virial ratio                                    1.86701135
 
 !MCSCF STATE 3.1 Triplet Dipole moment          0.00000000     0.00000000     0.00000000
 Dipole moment /Debye                            0.00000000     0.00000000     0.00000000
 
 Results for state 4.1 Triplet
 =============================
 !MCSCF STATE 4.1 Triplet Energy             -6173.577019946468
 Nuclear energy                                  0.00000000
 Kinetic energy                               7119.51384174
 One electron energy                         -8480.19537067
 Two electron energy                          2306.61835072
 Virial ratio                                    1.86713463
 
 !MCSCF STATE 4.1 Triplet Dipole moment          0.00000000     0.00000000     0.00000000
 Dipole moment /Debye                            0.00000000     0.00000000     0.00000000
 
 Results for state 5.1 Triplet
 =============================
 !MCSCF STATE 5.1 Triplet Energy             -6173.577019946442
 Nuclear energy                                  0.00000000
 Kinetic energy                               7119.51384173
 One electron energy                         -8480.19537063
 Two electron energy                          2306.61835068
 Virial ratio                                    1.86713463
 
 !MCSCF STATE 5.1 Triplet Dipole moment          0.00000000     0.00000000     0.00000000
 Dipole moment /Debye                            0.00000000     0.00000000     0.00000000
 
 Results for state 6.1 Triplet
 =============================
 !MCSCF STATE 6.1 Triplet Energy             -6173.577019946333
 Nuclear energy                                  0.00000000
 Kinetic energy                               7119.51384173
 One electron energy                         -8480.19537067
 Two electron energy                          2306.61835072
 Virial ratio                                    1.86713463
 
 !MCSCF STATE 6.1 Triplet Dipole moment          0.00000000     0.00000000     0.00000000
 Dipole moment /Debye                            0.00000000     0.00000000     0.00000000
 
 Results for state 7.1 Triplet
 =============================
 !MCSCF STATE 7.1 Triplet Energy             -6173.577019946017
 Nuclear energy                                  0.00000000
 Kinetic energy                               7119.51384171
 One electron energy                         -8480.19537058
 Two electron energy                          2306.61835063
 Virial ratio                                    1.86713463
 
 !MCSCF STATE 7.1 Triplet Dipole moment          0.00000000     0.00000000     0.00000000
 Dipole moment /Debye                            0.00000000     0.00000000     0.00000000
 
 Results for state 8.1 Triplet
 =============================
 !MCSCF STATE 8.1 Triplet Energy             -6173.577019945958
 Nuclear energy                                  0.00000000
 Kinetic energy                               7119.51384171
 One electron energy                         -8480.19537058
 Two electron energy                          2306.61835064
 Virial ratio                                    1.86713463
 
 !MCSCF STATE 8.1 Triplet Dipole moment          0.00000000     0.00000000     0.00000000
 Dipole moment /Debye                            0.00000000     0.00000000     0.00000000
 
 Results for state 9.1 Triplet
 =============================
 !MCSCF STATE 9.1 Triplet Energy             -6173.572048953461
 Nuclear energy                                  0.00000000
[...]
 20  1     8    1  |1 0>          0.00%    0.00%    0.00%    0.00%    0.00%    0.02%    0.00%    0.65%
 21  1     9    1  |1 0>          0.00%    0.00%    0.00%    0.00%    0.00%    0.00%    0.00%    3.29%
 22  1    10    1  |1 0>          0.00%    0.00%    0.00%    0.00%    0.00%    0.00%    0.00%    2.88%
 23  1    11    1  |1 0>          0.00%    0.00%    0.00%    0.00%    0.00%    0.00%    0.00%    0.80%
 24  1    12    1  |1 0>          0.00%    0.00%    0.00%    0.00%    0.00%    0.00%    0.00%    0.04%
 25  1     1    1  |1 1>-         0.12%    0.00%    5.12%    0.00%    0.00%    0.11%    0.02%    0.00%
 26  1     2    1  |1 1>-         2.67%    0.00%    0.07%    0.38%    0.13%    6.24%    1.18%    0.00%
 27  1     3    1  |1 1>-        41.94%    0.00%    0.01%    4.83%    0.01%    0.45%    0.07%    0.00%
 28  1     4    1  |1 1>-         0.00%    0.02%    0.00%    0.00%    0.00%    0.00%    0.00%    7.87%
 29  1     5    1  |1 1>-         0.00%    0.01%    0.00%    0.00%    0.00%    0.00%    0.00%   24.85%
 30  1     6    1  |1 1>-         0.00%    0.00%    0.00%    0.00%    0.01%    0.00%    0.00%    0.33%
 31  1     7    1  |1 1>-         0.00%    0.00%    0.00%    0.00%    0.01%    0.00%    0.00%    0.27%
 32  1     8    1  |1 1>-         0.00%    0.00%    0.01%    0.00%    0.00%    0.00%    0.00%    0.01%
 33  1     9    1  |1 1>-         0.00%    0.00%    0.00%    0.00%    0.00%    0.00%    0.00%    0.07%
 34  1    10    1  |1 1>-         0.00%    0.00%    0.00%    0.00%    0.00%    0.00%    0.00%    0.06%
 35  1    11    1  |1 1>-         0.00%    0.00%    0.00%    0.00%    0.00%    0.00%    0.00%    0.02%
 36  1    12    1  |1 1>-         0.00%    0.00%    0.00%    0.00%    0.00%    0.00%    0.00%    1.98%
 37  1     1    1  |0 0>          0.01%   89.54%    0.00%    0.00%    0.00%    0.00%    0.00%    0.00%
 38  1     2    1  |0 0>          0.00%    0.00%    0.00%    0.00%   89.47%    0.06%    0.00%    0.00%
 39  1     3    1  |0 0>          0.01%    0.00%   89.53%    0.00%    0.00%    0.00%    0.00%    0.00%
 40  1     4    1  |0 0>         10.30%    0.00%    0.00%   89.24%    0.00%    0.30%    0.00%    0.00%
 41  1     5    1  |0 0>          0.07%    0.00%    0.00%    0.30%    0.06%   89.18%    0.00%    0.00%
 42  1     6    1  |0 0>          0.00%    0.00%    0.00%    0.00%    0.00%    0.00%   96.19%    0.00%

   Total
 Nr Sym  State Sym Spin / Nr.     17       18       19       20       21       22       23       24

  1  1     1    1  |1 1>+         0.00%    0.00%    0.01%    0.00%    0.00%    0.00%    0.00%    0.00%
  2  1     2    1  |1 1>+         0.00%    0.00%    0.00%    0.00%    0.01%    0.00%    0.00%    0.00%
  3  1     3    1  |1 1>+         0.00%    0.00%    0.00%    0.00%    0.00%    0.01%    0.00%    0.00%
  4  1     4    1  |1 1>+         0.02%    8.56%    0.05%   38.71%    3.74%    0.00%    0.01%    0.00%
  5  1     5    1  |1 1>+         0.06%   24.85%    0.02%   13.33%    1.29%    0.00%    0.01%    0.00%
  6  1     6    1  |1 1>+        11.17%    0.06%    0.50%    0.54%    5.41%    0.00%   31.46%    0.00%
  7  1     7    1  |1 1>+        13.50%    0.01%    2.66%    0.59%    4.95%    0.00%   24.14%    0.00%
  8  1     8    1  |1 1>+         0.39%    0.00%   11.10%    0.15%    2.66%    0.00%    1.53%    0.00%
  9  1     9    1  |1 1>+         3.33%    0.01%    1.54%    0.23%    2.01%    4.43%    0.00%   15.56%
 10  1    10    1  |1 1>+         1.16%    0.00%    3.95%    0.04%    0.16%    3.94%    0.00%   13.83%
 11  1    11    1  |1 1>+         2.61%    0.00%    1.60%    0.36%    4.31%    1.11%    0.00%    3.93%
 12  1    12    1  |1 1>+         0.00%    2.02%    0.00%    0.00%    0.00%    0.00%    0.00%    0.00%
 13  1     1    1  |1 0>          0.00%    0.00%    0.00%    0.00%    0.00%    0.00%    0.01%    0.00%
 14  1     2    1  |1 0>          0.00%    0.00%    0.00%    0.01%    0.00%    0.00%    0.00%    0.00%
 15  1     3    1  |1 0>          0.00%    0.00%    0.01%    0.00%    0.00%    0.00%    0.00%    0.00%
 16  1     4    1  |1 0>         32.47%    0.07%    0.01%    0.00%    0.00%    0.00%    0.00%    0.00%
 17  1     5    1  |1 0>          0.00%    0.00%    2.21%    5.05%   49.88%    0.00%    0.00%    0.00%
 18  1     6    1  |1 0>          0.66%   10.83%    8.00%    6.18%    0.03%    0.13%    0.07%    0.00%
 19  1     7    1  |1 0>          0.17%   12.48%    5.34%    5.85%    1.62%    3.94%    1.51%    0.00%
 20  1     8    1  |1 0>          0.00%    1.76%    0.34%    1.00%    0.20%   38.33%   13.16%    0.00%
 21  1     9    1  |1 0>          0.12%    2.85%    3.40%    2.77%    0.02%    0.30%    0.91%    4.02%
 22  1    10    1  |1 0>          0.04%    0.70%    2.74%    0.48%    0.33%    1.20%    3.52%   16.35%
 23  1    11    1  |1 0>          0.00%    3.54%    0.70%    3.23%    0.55%    0.95%    2.60%   12.95%
 24  1    12    1  |1 0>          1.98%    0.00%    0.00%    0.00%    0.00%    0.00%    0.00%    0.00%
 25  1     1    1  |1 1>-         0.00%    0.00%    0.00%    0.01%    0.00%    0.00%    0.00%    0.00%
 26  1     2    1  |1 1>-         0.00%    0.00%    0.00%    0.00%    0.00%    0.00%    0.01%    0.00%
 27  1     3    1  |1 1>-         0.00%    0.00%    0.00%    0.00%    0.01%    0.00%    0.00%    0.00%
 28  1     4    1  |1 1>-         0.30%    0.00%   41.78%    0.02%    1.39%    0.00%    0.00%    0.00%
 29  1     5    1  |1 1>-         0.49%    0.00%   13.40%    0.01%    0.51%    0.00%    0.00%    0.00%
 30  1     6    1  |1 1>-        13.58%    0.01%    0.15%    1.20%    6.66%   19.26%    6.11%    0.00%
 31  1     7    1  |1 1>-         9.84%    2.80%    0.14%    0.18%    7.13%   21.05%    6.61%    0.00%
 32  1     8    1  |1 1>-         1.07%   22.30%    0.00%   12.91%    0.23%    3.00%    1.11%    0.00%
 33  1     9    1  |1 1>-         3.09%    1.02%    0.15%    0.14%    3.95%    0.94%    2.90%   13.74%
 34  1    10    1  |1 1>-         3.19%    3.20%    0.07%    5.33%    1.10%    0.22%    0.61%    3.14%
 35  1    11    1  |1 1>-         0.68%    2.90%    0.06%    1.63%    1.79%    1.13%    3.67%   16.44%
 36  1    12    1  |1 1>-         0.04%    0.00%    0.00%    0.00%    0.00%    0.00%    0.00%    0.00%
 37  1     1    1  |0 0>          0.00%    0.00%    0.04%    0.00%    0.00%    0.00%    0.00%    0.00%
 38  1     2    1  |0 0>          0.00%    0.00%    0.00%    0.00%    0.00%    0.03%    0.02%    0.00%
 39  1     3    1  |0 0>          0.00%    0.00%    0.00%    0.04%    0.00%    0.00%    0.00%    0.00%
 40  1     4    1  |0 0>          0.00%    0.00%    0.00%    0.00%    0.04%    0.00%    0.00%    0.00%
 41  1     5    1  |0 0>          0.00%    0.00%    0.00%    0.00%    0.00%    0.02%    0.03%    0.00%
 42  1     6    1  |0 0>          0.00%    0.00%    0.00%    0.00%    0.00%    0.00%    0.00%    0.03%

   Total
 Nr Sym  State Sym Spin / Nr.     25       26       27       28       29       30       31       32

  1  1     1    1  |1 1>+         0.00%    0.00%    0.00%    0.00%    0.00%    0.00%    0.00%    0.00%
  2  1     2    1  |1 1>+         0.00%    0.00%    0.00%    0.00%    0.00%    0.00%    0.00%    0.00%
  3  1     3    1  |1 1>+         0.00%    0.00%    0.00%    0.00%    0.00%    0.00%    0.00%    0.00%
  4  1     4    1  |1 1>+         0.00%    0.01%    1.55%   17.58%    0.04%    0.01%    0.01%   22.47%
  5  1     5    1  |1 1>+         0.01%    0.02%    4.49%   42.15%    0.08%    0.04%    0.01%   10.84%
  6  1     6    1  |1 1>+         0.31%    1.73%    0.01%    0.03%   11.27%    0.13%    3.34%    0.01%
  7  1     7    1  |1 1>+         0.01%    2.62%    0.01%    0.02%   13.65%    0.59%    0.68%    0.04%
  8  1     8    1  |1 1>+         4.23%    0.19%    0.02%    0.01%    0.29%   22.25%   25.15%    0.05%
  9  1     9    1  |1 1>+         0.00%   14.45%    0.07%    0.00%    0.00%    0.00%    0.00%    0.00%
 10  1    10    1  |1 1>+         6.20%    9.63%    0.10%    0.00%    0.00%    0.00%    0.00%    0.00%
 11  1    11    1  |1 1>+        20.99%    3.04%    0.01%    0.00%    0.00%    0.00%    0.00%    0.00%
 12  1    12    1  |1 1>+         0.06%    0.14%   30.10%    0.00%    0.00%    0.00%    0.00%    0.00%
 13  1     1    1  |1 0>          0.00%    0.00%    0.00%    0.00%    0.00%    0.00%    0.00%    0.00%
 14  1     2    1  |1 0>          0.00%    0.00%    0.00%    0.00%    0.00%    0.00%    0.00%    0.00%
 15  1     3    1  |1 0>          0.00%    0.00%    0.00%    0.00%    0.00%    0.00%    0.00%    0.00%
 16  1     4    1  |1 0>          1.44%    4.63%    0.01%    0.09%   57.07%    2.24%    0.29%    0.00%
 17  1     5    1  |1 0>          0.00%    0.00%    0.00%    0.00%    0.32%    0.00%   12.55%    0.02%
 18  1     6    1  |1 0>          2.08%    0.76%    1.70%   11.02%    0.23%    8.67%   12.73%   11.61%
 19  1     7    1  |1 0>          1.29%    0.34%    2.51%   10.17%    0.47%    7.45%    8.61%   16.07%
 20  1     8    1  |1 0>          0.08%    0.02%    0.34%    1.75%    0.05%    0.50%    0.52%    2.68%
 21  1     9    1  |1 0>         10.94%    3.50%    9.53%    0.00%    0.00%    0.00%    0.00%    0.00%
 22  1    10    1  |1 0>          8.42%    2.08%    3.37%    0.00%    0.00%    0.00%    0.00%    0.00%
 23  1    11    1  |1 0>          2.01%    0.34%   14.31%    0.00%    0.00%    0.00%    0.00%    0.00%
 24  1    12    1  |1 0>          6.53%   23.72%    0.05%    0.00%    0.00%    0.00%    0.00%    0.00%
 25  1     1    1  |1 1>-         0.00%    0.00%    0.00%    0.00%    0.00%    0.00%    0.00%    0.00%
 26  1     2    1  |1 1>-         0.00%    0.00%    0.00%    0.00%    0.00%    0.00%    0.00%    0.00%
 27  1     3    1  |1 1>-         0.00%    0.00%    0.00%    0.00%    0.00%    0.00%    0.00%    0.00%
 28  1     4    1  |1 1>-         1.10%    0.38%    0.01%    0.03%    0.63%   12.02%   17.41%    0.09%
 29  1     5    1  |1 1>-         3.61%    0.96%    0.02%    0.06%    1.82%   45.36%    4.27%    0.01%
 30  1     6    1  |1 1>-         0.56%    1.97%    0.00%    0.08%    7.74%    0.40%    8.01%    0.29%
 31  1     7    1  |1 1>-         0.47%    1.38%    0.49%    1.19%    6.15%    0.26%    5.79%    3.37%
 32  1     8    1  |1 1>-         0.01%    0.20%    4.04%   15.82%    0.20%    0.08%    0.63%   32.45%
 33  1     9    1  |1 1>-         3.02%    9.21%    3.78%    0.00%    0.00%    0.00%    0.00%    0.00%
 34  1    10    1  |1 1>-         1.95%   10.38%   12.35%    0.00%    0.00%    0.00%    0.00%    0.00%
 35  1    11    1  |1 1>-         0.96%    1.87%   10.98%    0.00%    0.00%    0.00%    0.00%    0.00%
 36  1    12    1  |1 1>-        23.70%    6.44%    0.15%    0.00%    0.00%    0.00%    0.00%    0.00%
 37  1     1    1  |0 0>          0.00%    0.00%    0.00%    0.00%    0.00%    0.00%    0.00%    0.00%
 38  1     2    1  |0 0>          0.00%    0.00%    0.00%    0.00%    0.00%    0.00%    0.00%    0.00%
 39  1     3    1  |0 0>          0.00%    0.00%    0.00%    0.00%    0.00%    0.00%    0.00%    0.00%
 40  1     4    1  |0 0>          0.00%    0.00%    0.00%    0.00%    0.00%    0.00%    0.00%    0.00%
 41  1     5    1  |0 0>          0.00%    0.00%    0.00%    0.00%    0.00%    0.00%    0.00%    0.00%
 42  1     6    1  |0 0>          0.00%    0.00%    0.00%    0.00%    0.00%    0.00%    0.00%    0.00%

   Total
 Nr Sym  State Sym Spin / Nr.     33       34       35       36       37       38       39       40

  1  1     1    1  |1 1>+         0.00%    0.00%    0.00%    0.00%    0.00%    0.00%    0.00%    0.00%
  2  1     2    1  |1 1>+         0.00%    0.00%    0.00%    0.00%    0.00%    0.00%    0.00%    0.00%
  3  1     3    1  |1 1>+         0.00%    0.00%    0.00%    0.00%    0.00%    0.00%    0.00%    0.00%
  4  1     4    1  |1 1>+         0.05%    0.00%    0.04%    0.05%    6.94%    0.01%    0.00%    0.11%
  5  1     5    1  |1 1>+         0.04%    0.00%    0.01%    0.02%    2.39%    0.00%    0.00%    0.31%
  6  1     6    1  |1 1>+         9.17%   18.36%    0.14%    0.86%    0.00%    0.04%    5.24%    0.00%
  7  1     7    1  |1 1>+        15.84%   14.09%    0.58%    0.85%    0.00%    0.02%    3.91%    0.00%
  8  1     8    1  |1 1>+         4.15%    0.89%    1.64%    0.65%    0.03%    0.00%    0.24%    0.00%
  9  1     9    1  |1 1>+         0.00%    0.00%   11.48%   11.85%    0.04%   25.99%    0.20%    0.00%
 10  1    10    1  |1 1>+         0.00%    0.00%   24.56%    0.32%    0.01%   23.81%    0.13%    0.00%
 11  1    11    1  |1 1>+         0.00%    0.00%    6.64%   30.44%    0.56%    6.92%    0.02%    0.00%
 12  1    12    1  |1 1>+         0.00%    0.00%    0.00%    0.00%    0.00%    0.00%    0.00%   67.63%
 13  1     1    1  |1 0>          0.00%    0.00%    0.00%    0.00%    0.00%    0.00%    0.00%    0.00%
 14  1     2    1  |1 0>          0.00%    0.00%    0.00%    0.00%    0.00%    0.00%    0.00%    0.02%
 15  1     3    1  |1 0>          0.00%    0.00%    0.00%    0.00%    0.00%    0.00%    0.00%    0.00%
 16  1     4    1  |1 0>          0.31%    0.00%    0.00%    0.00%    0.00%    0.00%    0.00%    0.00%
 17  1     5    1  |1 0>         20.45%    0.00%    0.80%    8.63%    0.03%    0.00%    0.00%    0.00%
 18  1     6    1  |1 0>          8.81%    0.22%    1.35%    0.17%    0.82%    0.03%    0.02%    0.15%
 19  1     7    1  |1 0>          5.03%    3.69%    0.77%    0.04%    1.23%    0.67%    0.32%    0.15%
 20  1     8    1  |1 0>          0.29%   29.45%    0.04%    0.00%    0.33%    5.71%    2.70%    0.02%
 21  1     9    1  |1 0>          0.00%    0.00%   20.82%    2.70%   14.21%    1.72%    5.15%    6.71%
 22  1    10    1  |1 0>          0.00%    0.00%   15.25%    0.89%    5.67%    8.47%   19.63%    1.36%
 23  1    11    1  |1 0>          0.00%    0.00%    3.26%    0.12%   22.76%    8.24%   14.07%    7.57%
 24  1    12    1  |1 0>          0.00%    0.00%    0.00%    0.00%    0.00%    0.00%    0.00%    0.00%
 25  1     1    1  |1 1>-         0.00%    0.00%    0.00%    0.00%    0.00%    0.00%    0.00%    0.02%
 26  1     2    1  |1 1>-         0.00%    0.00%    0.00%    0.00%    0.00%    0.00%    0.00%    0.00%
 27  1     3    1  |1 1>-         0.00%    0.00%    0.00%    0.00%    0.00%    0.00%    0.00%    0.00%
 28  1     4    1  |1 1>-         9.67%    0.00%    6.59%    0.51%    0.06%    0.00%    0.00%    0.00%
 29  1     5    1  |1 1>-         1.97%    0.00%    2.11%    0.18%    0.02%    0.00%    0.00%    0.00%
 30  1     6    1  |1 1>-        13.13%   14.77%    0.07%    1.17%    0.00%    3.49%    0.80%    0.00%
 31  1     7    1  |1 1>-        10.85%   16.00%    0.07%    0.94%    0.22%    3.78%    0.80%    0.03%
 32  1     8    1  |1 1>-         0.24%    2.53%    0.00%    0.14%    2.13%    0.44%    0.15%    0.28%
 33  1     9    1  |1 1>-         0.00%    0.00%    2.14%   16.92%    7.43%    4.15%   18.14%    1.90%
 34  1    10    1  |1 1>-         0.00%    0.00%    0.78%   19.29%   19.52%    0.57%    4.08%    7.65%
 35  1    11    1  |1 1>-         0.00%    0.00%    0.85%    3.24%   15.59%    5.92%   24.35%    6.08%
 36  1    12    1  |1 1>-         0.00%    0.00%    0.00%    0.00%    0.00%    0.00%    0.00%    0.02%
 37  1     1    1  |0 0>          0.00%    0.00%    0.03%    0.00%    0.00%    0.00%    0.00%    0.00%
 38  1     2    1  |0 0>          0.00%    0.00%    0.00%    0.00%    0.00%    0.02%    0.01%    0.00%
 39  1     3    1  |0 0>          0.00%    0.00%    0.00%    0.00%    0.03%    0.00%    0.00%    0.00%
 40  1     4    1  |0 0>          0.00%    0.00%    0.00%    0.03%    0.00%    0.00%    0.00%    0.00%
 41  1     5    1  |0 0>          0.00%    0.00%    0.00%    0.00%    0.00%    0.01%    0.02%    0.00%
 42  1     6    1  |0 0>          0.00%    0.00%    0.00%    0.00%    0.00%    0.00%    0.00%    0.00%

   Total
 Nr Sym  State Sym Spin / Nr.     41       42

  1  1     1    1  |1 1>+         0.00%    0.02%
  2  1     2    1  |1 1>+         0.02%    0.00%
  3  1     3    1  |1 1>+         0.00%    0.00%
  4  1     4    1  |1 1>+         0.00%    0.00%
  5  1     5    1  |1 1>+         0.00%    0.00%
  6  1     6    1  |1 1>+         0.14%    0.00%
  7  1     7    1  |1 1>+         0.16%    0.03%
  8  1     8    1  |1 1>+         0.02%    0.29%
  9  1     9    1  |1 1>+         6.57%    1.76%
 10  1    10    1  |1 1>+         1.60%    7.55%
 11  1    11    1  |1 1>+         7.47%    6.32%
 12  1    12    1  |1 1>+         0.00%    0.02%
 13  1     1    1  |1 0>          0.00%    0.00%
 14  1     2    1  |1 0>          0.00%    0.00%
 15  1     3    1  |1 0>          0.00%    0.02%
 16  1     4    1  |1 0>          0.42%    0.00%
 17  1     5    1  |1 0>          0.00%    0.00%
 18  1     6    1  |1 0>          0.00%    0.17%
 19  1     7    1  |1 0>          0.00%    0.14%
 20  1     8    1  |1 0>          0.00%    0.01%
 21  1     9    1  |1 0>          0.00%    7.04%
 22  1    10    1  |1 0>          0.00%    6.60%
 23  1    11    1  |1 0>          0.00%    1.99%
 24  1    12    1  |1 0>         67.63%    0.02%
 25  1     1    1  |1 1>-         0.00%    0.00%
 26  1     2    1  |1 1>-         0.00%    0.00%
 27  1     3    1  |1 1>-         0.02%    0.00%
 28  1     4    1  |1 1>-         0.00%    0.10%
 29  1     5    1  |1 1>-         0.00%    0.32%
 30  1     6    1  |1 1>-         0.17%    0.00%
 31  1     7    1  |1 1>-         0.13%    0.00%
 32  1     8    1  |1 1>-         0.01%    0.00%
 33  1     9    1  |1 1>-         7.29%    0.00%
 34  1    10    1  |1 1>-         6.50%    0.01%
 35  1    11    1  |1 1>-         1.83%    0.00%
 36  1    12    1  |1 1>-         0.02%   67.60%
 37  1     1    1  |0 0>          0.00%    0.00%
 38  1     2    1  |0 0>          0.00%    0.00%
 39  1     3    1  |0 0>          0.00%    0.00%
 40  1     4    1  |0 0>          0.00%    0.00%
 41  1     5    1  |0 0>          0.00%    0.00%
 42  1     6    1  |0 0>          0.00%    0.00%


 No matrix element <i|DMX|i> larger than 5E-7
 No matrix element <i|DMX|1> larger than 5E-7

 No matrix element <i|DMY|i> larger than 5E-7
 No matrix element <i|DMY|1> larger than 5E-7

 No matrix element <i|DMZ|i> larger than 5E-7
 No matrix element <i|DMZ|1> larger than 5E-7


 **********************************************************************************************************************************
 DATASETS  * FILE   NREC   LENGTH (MB)   RECORD NAMES
              1      24      363.76       500      610      700      900      950      970     1000      129      960     1700   
                                          VAR    BASINP    GEOM    SYMINP    ZMAT    AOBASIS   BASIS     P2S    ABASIS    OPER   
                                         1101     1401     1411     1412     1650     1100     1400     1410     1200     1210   
                                          SR      EKINR    POTR     PVPR    MOLCAS      S      EKIN      POT      H0       H01  
                                         1080     1600     1380     1700(1)
                                         AOSYM     SMH     JKOP     OPER   

              2       7     1181.09       700     1000      520     2100     2140     5203     5201   
                                         GEOM     BASIS   MCVARS     RHF     MCSCF    MRCI     MRCI   

 PROGRAMS   *        TOTAL        CI        CI        CI     MULTI   RHF-SCF       INT
 CPU TIMES  *     65291.71  61339.40    585.44   3361.38      3.28      0.11      1.93
 REAL TIME  *     65838.34 SEC
 DISK USED  *         1.22 GB (local),       18.16 GB (total)
 SF USED    *         9.64 GB
 GA USED    *         0.00 MB       (max)       0.00 MB       (current)
 **********************************************************************************************************************************

 CI/USERDEF energy=  -6174.238987704053

              CI              CI           MULTI         RHF-SCF
  -6174.32150038  -6174.19393365  -6173.68574398  -6172.99127293
 **********************************************************************************************************************************
 Molpro calculation terminated with 1 warning(s)
