
 Working directory              : /wrk/irikura/molpro.BH1UrCLp3R/
 Global scratch directory       : /wrk/irikura/molpro.BH1UrCLp3R/
 Wavefunction directory         : /home/irikura/wfu/
 Main file repository           : /wrk/irikura/molpro.BH1UrCLp3R/

 id        : nistki

 Nodes            nprocs
 pn112695.nist.gov   16
 GA implementation: MPI file
 GA implementation (serial work in mppx): MPI file

 Using customized tuning parameters: mindgm=1; mindgv=20; mindgc=4; mindgr=1; noblas=0; minvec=7
 default implementation of scratch files=sf  


 Variables initialized (1040), CPU time= 0.02 sec
 ***,Sn SO-CI
 memory,1500,M;
 
 gprint,orbitals,civector,basis;
 
 symmetry,xyz
 geometry={Sn};
 
                                                                                 !basis=aug-cc-pwCVQZ-PP
 basis={
 ecp,sn,ECP28MDF;
 spdfgh,sn,aug-cc-pwCVQZ-PP;C; spdf,1,even,nprim=1,ratio=3.0;
 }
 
                                                                                 ! spherical anion orbitals (4S)
 {rhf; wf,nelec=23,sym=2,spin=3}
 
 NTRIP=12
 NSING=15
 
                                                                                 ! add 6p to active space
 {multi
     closed,6,3
     occ,7,9
     wf,nelec=22,sym=1,spin=2;state,NTRIP;
     wf,nelec=22,sym=1,spin=0;state,NSING;
     expec2,lxx,lyy,lzz;
 }
 table, energy, ll
 title, Energies and &lt;L**2&gt; values
 
 core,0,0
 
 {ci;wf,sym=1,spin=2;state,NTRIP; save,5201.2}
 hlsdiag = energd4
 {ci;wf,sym=1,spin=0;state,NSING; save,5101.2}
 hlsdiag(NTRIP+1) = energd4
 
 table,hlsdiag
 
 {ci;hlsmat,ecp,5201.2,5101.2;print,vls=0,hls=0}                                 !compute and diagonalize SO matrix
 Commands initialized (846), CPU time= 0.01 sec, 717 directives.
 Default parameters read. Elapsed time= 0.12 sec

 Checking input...
 Passed
1


                                         ***  PROGRAM SYSTEM MOLPRO  ***
                                       Copyright, TTI GmbH Stuttgart, 2015
                                    Version 2023.2 linked Fri Sep 22 03:27:09 2023


 **********************************************************************************************************************************
 LABEL *   Sn SO-CI                                                                                                                                                      
  (32 PROC) 64 bit mpp version                                                           DATE: 16-Sep-24          TIME: 13:10:52  
 **********************************************************************************************************************************

 SHA1:             3c61bfe44d37c8635c785372c339f5cbdd4e4b59
 **********************************************************************************************************************************

 Memory per process:      1500 MW
 Total memory per node:  24000 MW

 GA preallocation disabled
 GA check disabled

 Variable memory set to 1500.0 MW


 ZSYMEL=XYZ

 SETTING BASIS          =    USERDEF


 Recomputing integrals since basis changed


 Using spherical harmonics

 Library entry Sn   ECP ECP28MDF                 selected for group  1
 Library entry SN     S AUG-CC-PWCVQZ-PP     selected for orbital group  1
 Even tempered Sn S diffuse               selected for group 1    nprim= 1    centre=  0.007    ratio= 3.000    dratio= 1.000
 Library entry SN     P AUG-CC-PWCVQZ-PP     selected for orbital group  1
 Even tempered Sn P diffuse               selected for group 1    nprim= 1    centre=  0.005    ratio= 3.000    dratio= 1.000
 Library entry SN     D AUG-CC-PWCVQZ-PP     selected for orbital group  1
 Even tempered Sn D diffuse               selected for group 1    nprim= 1    centre=  0.011    ratio= 3.000    dratio= 1.000
 Library entry SN     F AUG-CC-PWCVQZ-PP     selected for orbital group  1
 Even tempered Sn F diffuse               selected for group 1    nprim= 1    centre=  0.024    ratio= 3.000    dratio= 1.000
 Library entry SN     G AUG-CC-PWCVQZ-PP     selected for orbital group  1
 Library entry SN     H AUG-CC-PWCVQZ-PP     selected for orbital group  1


 PROGRAM * SEWARD (Integral evaluation for generally contracted gaussian basis sets)     Author: Roland Lindh, 1990

 Geometry written to block  1 of record 700

 Orientation using atomic masses  
 Molecule type: Atom
 User-specified symmetry elements: XYZ
 Symmetry elements: XYZ
 Rotational constants:       0.0000000      0.0000000      0.0000000 GHz  (calculated with average atomic masses)

 Point group  Ci  



 ATOMIC COORDINATES

 NR  ATOM    CHARGE       X              Y              Z

   1  SN     22.00    0.000000000    0.000000000    0.000000000


          SN  CORE POTENTIAL

          g POTENTIAL

 POWERS             2
 EXPONENTIALS   1.000000    
 COEFFICIENTS   0.000000    

          s - g POTENTIAL

 POWERS             2              2
 EXPONENTIALS   17.42041       7.631155    
 COEFFICIENTS   279.9887       62.37781    

          p - g POTENTIAL

 POWERS             2              2              2              2
 EXPONENTIALS   16.13102       15.62808       7.325608       6.942519    
 COEFFICIENTS   66.16252       132.1744       16.33942       32.48896    

          d - g POTENTIAL

 POWERS             2              2              2              2
 EXPONENTIALS   15.51498       15.18816       5.456024       5.363105    
 COEFFICIENTS   36.38744       54.50784       8.696823       12.84021    

          f - g POTENTIAL

 POWERS             2              2
 EXPONENTIALS   12.28235       12.27215    
 COEFFICIENTS  -12.57633      -16.59594    


          SN  SPIN-ORBIT POTENTIAL

          p POTENTIAL

 POWERS             2              2              2              2
 EXPONENTIALS   16.13102       15.62808       7.325608       6.942519    
 COEFFICIENTS  -132.3250       132.1744      -32.67883       32.48896    

          d POTENTIAL

 POWERS             2              2              2              2
 EXPONENTIALS   15.51498       15.18816       5.456024       5.363105    
 COEFFICIENTS  -36.38744       36.33856      -8.696823       8.560139    

          f POTENTIAL

 POWERS             2              2
 EXPONENTIALS   12.28235       12.27215    
 COEFFICIENTS   8.384222      -8.297972    


 BASIS DATA

   Nr Sym  Nuc  Type         Exponents   Contraction coefficients

    1.1 Ag    1  1s       11606.900000     0.000029    0.000000    0.000000    0.000000    0.000000    0.000000
    2.1 Ag                 1754.800000     0.000206    0.000000    0.000000    0.000000    0.000000    0.000000
    3.1 Ag                  397.178000     0.000807    0.000000    0.000000    0.000000    0.000000    0.000000
    4.1 Ag                   90.299000     0.002471    0.000000    0.000000    0.000000    0.000000    0.000000
    5.1 Ag                   31.489000    -0.040025    0.000000    0.000000    0.000000    0.000000    0.000000
    6.1 Ag                   19.668500     0.163152    1.000000    0.000000    0.000000    0.000000    0.000000
                              7.067590    -0.556983    0.000000    0.000000    0.000000    0.000000    0.000000
                              4.414900    -0.169932    0.000000    0.000000    0.000000    0.000000    0.000000
                              2.163560     0.651028    0.000000    0.000000    0.000000    0.000000    0.000000
                              1.142800     0.631685    0.000000    0.000000    0.000000    0.000000    0.000000
                              0.579540     0.130579    0.000000    1.000000    0.000000    0.000000    0.000000
                              0.260787     0.001275    0.000000    0.000000    1.000000    0.000000    0.000000
                              0.118895     0.000700    0.000000    0.000000    0.000000    1.000000    0.000000
                              0.053142    -0.000084    0.000000    0.000000    0.000000    0.000000    1.000000
    7.1 Ag    1  1s           7.882900     1.000000
    8.1 Ag    1  1s           3.099900     1.000000
    9.1 Ag    1  1s           1.219000     1.000000
   10.1 Ag    1  1s           0.021800     1.000000
   11.1 Ag    1  1s           0.007267     1.000000
   12.1 Ag    1  3d0        308.502000     0.000053
                             93.684600     0.000441
                             34.292500     0.002578
                             13.717200    -0.012651
                              6.449470     0.026769
                              3.882720     0.159133
                              2.291350     0.286700
                              1.311270     0.323003
                              0.730210     0.247548
                              0.394411     0.118263
                              0.203180     0.028688
                              0.086600     0.001983
   13.1 Ag    1  3d2-       308.502000     0.000053
                             93.684600     0.000441
                             34.292500     0.002578
                             13.717200    -0.012651
                              6.449470     0.026769
                              3.882720     0.159133
                              2.291350     0.286700
                              1.311270     0.323003
                              0.730210     0.247548
                              0.394411     0.118263
                              0.203180     0.028688
                              0.086600     0.001983
   14.1 Ag    1  3d1+       308.502000     0.000053
                             93.684600     0.000441
                             34.292500     0.002578
                             13.717200    -0.012651
                              6.449470     0.026769
                              3.882720     0.159133
                              2.291350     0.286700
                              1.311270     0.323003
                              0.730210     0.247548
                              0.394411     0.118263
                              0.203180     0.028688
                              0.086600     0.001983
   15.1 Ag    1  3d2+       308.502000     0.000053
                             93.684600     0.000441
                             34.292500     0.002578
                             13.717200    -0.012651
                              6.449470     0.026769
                              3.882720     0.159133
                              2.291350     0.286700
                              1.311270     0.323003
                              0.730210     0.247548
                              0.394411     0.118263
                              0.203180     0.028688
                              0.086600     0.001983
   16.1 Ag    1  3d1-       308.502000     0.000053
                             93.684600     0.000441
                             34.292500     0.002578
                             13.717200    -0.012651
                              6.449470     0.026769
                              3.882720     0.159133
                              2.291350     0.286700
                              1.311270     0.323003
                              0.730210     0.247548
                              0.394411     0.118263
                              0.203180     0.028688
                              0.086600     0.001983
   17.1 Ag    1  3d0        308.502000     0.000000
                             93.684600     0.000000
                             34.292500     0.000000
                             13.717200     0.000000
                              6.449470     0.000000
                              3.882720     0.000000
                              2.291350     0.000000
                              1.311270     0.000000
                              0.730210     0.000000
                              0.394411     1.000000
                              0.203180     0.000000
                              0.086600     0.000000
   18.1 Ag    1  3d2-       308.502000     0.000000
                             93.684600     0.000000
                             34.292500     0.000000
                             13.717200     0.000000
                              6.449470     0.000000
                              3.882720     0.000000
                              2.291350     0.000000
                              1.311270     0.000000
                              0.730210     0.000000
                              0.394411     1.000000
                              0.203180     0.000000
                              0.086600     0.000000
   19.1 Ag    1  3d1+       308.502000     0.000000
                             93.684600     0.000000
                             34.292500     0.000000
                             13.717200     0.000000
                              6.449470     0.000000
                              3.882720     0.000000
                              2.291350     0.000000
                              1.311270     0.000000
                              0.730210     0.000000
                              0.394411     1.000000
                              0.203180     0.000000
                              0.086600     0.000000
   20.1 Ag    1  3d2+       308.502000     0.000000
                             93.684600     0.000000
                             34.292500     0.000000
                             13.717200     0.000000
                              6.449470     0.000000
                              3.882720     0.000000
                              2.291350     0.000000
                              1.311270     0.000000
                              0.730210     0.000000
                              0.394411     1.000000
                              0.203180     0.000000
                              0.086600     0.000000
   21.1 Ag    1  3d1-       308.502000     0.000000
                             93.684600     0.000000
                             34.292500     0.000000
                             13.717200     0.000000
                              6.449470     0.000000
                              3.882720     0.000000
                              2.291350     0.000000
                              1.311270     0.000000
                              0.730210     0.000000
                              0.394411     1.000000
                              0.203180     0.000000
                              0.086600     0.000000
   22.1 Ag    1  3d0        308.502000     0.000000
                             93.684600     0.000000
                             34.292500     0.000000
                             13.717200     0.000000
                              6.449470     0.000000
                              3.882720     0.000000
                              2.291350     0.000000
                              1.311270     0.000000
                              0.730210     0.000000
                              0.394411     0.000000
                              0.203180     1.000000
                              0.086600     0.000000
   23.1 Ag    1  3d2-       308.502000     0.000000
                             93.684600     0.000000
                             34.292500     0.000000
                             13.717200     0.000000
                              6.449470     0.000000
                              3.882720     0.000000
                              2.291350     0.000000
                              1.311270     0.000000
                              0.730210     0.000000
                              0.394411     0.000000
                              0.203180     1.000000
                              0.086600     0.000000
   24.1 Ag    1  3d1+       308.502000     0.000000
                             93.684600     0.000000
                             34.292500     0.000000
                             13.717200     0.000000
                              6.449470     0.000000
                              3.882720     0.000000
                              2.291350     0.000000
                              1.311270     0.000000
                              0.730210     0.000000
                              0.394411     0.000000
                              0.203180     1.000000
                              0.086600     0.000000
   25.1 Ag    1  3d2+       308.502000     0.000000
                             93.684600     0.000000
                             34.292500     0.000000
                             13.717200     0.000000
                              6.449470     0.000000
                              3.882720     0.000000
                              2.291350     0.000000
                              1.311270     0.000000
                              0.730210     0.000000
                              0.394411     0.000000
                              0.203180     1.000000
                              0.086600     0.000000
   26.1 Ag    1  3d1-       308.502000     0.000000
                             93.684600     0.000000
                             34.292500     0.000000
                             13.717200     0.000000
                              6.449470     0.000000
                              3.882720     0.000000
                              2.291350     0.000000
                              1.311270     0.000000
                              0.730210     0.000000
                              0.394411     0.000000
                              0.203180     1.000000
                              0.086600     0.000000
   27.1 Ag    1  3d0        308.502000     0.000000
                             93.684600     0.000000
                             34.292500     0.000000
                             13.717200     0.000000
                              6.449470     0.000000
                              3.882720     0.000000
                              2.291350     0.000000
                              1.311270     0.000000
                              0.730210     0.000000
                              0.394411     0.000000
                              0.203180     0.000000
                              0.086600     1.000000
   28.1 Ag    1  3d2-       308.502000     0.000000
                             93.684600     0.000000
                             34.292500     0.000000
                             13.717200     0.000000
                              6.449470     0.000000
                              3.882720     0.000000
                              2.291350     0.000000
                              1.311270     0.000000
                              0.730210     0.000000
                              0.394411     0.000000
                              0.203180     0.000000
                              0.086600     1.000000
   29.1 Ag    1  3d1+       308.502000     0.000000
                             93.684600     0.000000
                             34.292500     0.000000
                             13.717200     0.000000
                              6.449470     0.000000
                              3.882720     0.000000
                              2.291350     0.000000
                              1.311270     0.000000
                              0.730210     0.000000
                              0.394411     0.000000
                              0.203180     0.000000
                              0.086600     1.000000
   30.1 Ag    1  3d2+       308.502000     0.000000
                             93.684600     0.000000
                             34.292500     0.000000
                             13.717200     0.000000
                              6.449470     0.000000
                              3.882720     0.000000
                              2.291350     0.000000
                              1.311270     0.000000
                              0.730210     0.000000
                              0.394411     0.000000
                              0.203180     0.000000
                              0.086600     1.000000
   31.1 Ag    1  3d1-       308.502000     0.000000
                             93.684600     0.000000
                             34.292500     0.000000
                             13.717200     0.000000
                              6.449470     0.000000
                              3.882720     0.000000
                              2.291350     0.000000
                              1.311270     0.000000
                              0.730210     0.000000
                              0.394411     0.000000
                              0.203180     0.000000
                              0.086600     1.000000
   32.1 Ag    1  3d0          4.520000     1.000000
   33.1 Ag    1  3d2-         4.520000     1.000000
   34.1 Ag    1  3d1+         4.520000     1.000000
   35.1 Ag    1  3d2+         4.520000     1.000000
   36.1 Ag    1  3d1-         4.520000     1.000000
   37.1 Ag    1  3d0          2.041300     1.000000
   38.1 Ag    1  3d2-         2.041300     1.000000
   39.1 Ag    1  3d1+         2.041300     1.000000
   40.1 Ag    1  3d2+         2.041300     1.000000
   41.1 Ag    1  3d1-         2.041300     1.000000
   42.1 Ag    1  3d0          0.921800     1.000000
   43.1 Ag    1  3d2-         0.921800     1.000000
   44.1 Ag    1  3d1+         0.921800     1.000000
   45.1 Ag    1  3d2+         0.921800     1.000000
   46.1 Ag    1  3d1-         0.921800     1.000000
   47.1 Ag    1  3d0          0.033600     1.000000
   48.1 Ag    1  3d2-         0.033600     1.000000
   49.1 Ag    1  3d1+         0.033600     1.000000
   50.1 Ag    1  3d2+         0.033600     1.000000
   51.1 Ag    1  3d1-         0.033600     1.000000
   52.1 Ag    1  3d0          0.011200     1.000000
   53.1 Ag    1  3d2-         0.011200     1.000000
   54.1 Ag    1  3d1+         0.011200     1.000000
   55.1 Ag    1  3d2+         0.011200     1.000000
   56.1 Ag    1  3d1-         0.011200     1.000000
   57.1 Ag    1  5g0          0.377400     1.000000
   58.1 Ag    1  5g2-         0.377400     1.000000
   59.1 Ag    1  5g1+         0.377400     1.000000
   60.1 Ag    1  5g4+         0.377400     1.000000
   61.1 Ag    1  5g1-         0.377400     1.000000
   62.1 Ag    1  5g2+         0.377400     1.000000
   63.1 Ag    1  5g4-         0.377400     1.000000
   64.1 Ag    1  5g3+         0.377400     1.000000
   65.1 Ag    1  5g3-         0.377400     1.000000
   66.1 Ag    1  5g0          3.767400     1.000000
   67.1 Ag    1  5g2-         3.767400     1.000000
   68.1 Ag    1  5g1+         3.767400     1.000000
   69.1 Ag    1  5g4+         3.767400     1.000000
   70.1 Ag    1  5g1-         3.767400     1.000000
   71.1 Ag    1  5g2+         3.767400     1.000000
   72.1 Ag    1  5g4-         3.767400     1.000000
   73.1 Ag    1  5g3+         3.767400     1.000000
   74.1 Ag    1  5g3-         3.767400     1.000000
   75.1 Ag    1  5g0          1.110500     1.000000
   76.1 Ag    1  5g2-         1.110500     1.000000
   77.1 Ag    1  5g1+         1.110500     1.000000
   78.1 Ag    1  5g4+         1.110500     1.000000
   79.1 Ag    1  5g1-         1.110500     1.000000
   80.1 Ag    1  5g2+         1.110500     1.000000
   81.1 Ag    1  5g4-         1.110500     1.000000
   82.1 Ag    1  5g3+         1.110500     1.000000
   83.1 Ag    1  5g3-         1.110500     1.000000
   84.1 Ag    1  5g0          0.172000     1.000000
   85.1 Ag    1  5g2-         0.172000     1.000000
   86.1 Ag    1  5g1+         0.172000     1.000000
   87.1 Ag    1  5g4+         0.172000     1.000000
   88.1 Ag    1  5g1-         0.172000     1.000000
   89.1 Ag    1  5g2+         0.172000     1.000000
   90.1 Ag    1  5g4-         0.172000     1.000000
   91.1 Ag    1  5g3+         0.172000     1.000000
   92.1 Ag    1  5g3-         0.172000     1.000000
    1.2 Au    1  2px        195.495000     0.000258
                             18.256300     0.044341
                             11.409400    -0.109142
                              6.905670    -0.138606
                              2.982060     0.343743
                              1.608430     0.518271
                              0.831767     0.278706
                              0.393731     0.040818
                              0.181801     0.000631
                              0.081850     0.000748
                              0.035993    -0.000086
    2.2 Au    1  2py        195.495000     0.000258
                             18.256300     0.044341
                             11.409400    -0.109142
                              6.905670    -0.138606
                              2.982060     0.343743
                              1.608430     0.518271
                              0.831767     0.278706
                              0.393731     0.040818
                              0.181801     0.000631
                              0.081850     0.000748
                              0.035993    -0.000086
    3.2 Au    1  2pz        195.495000     0.000258
                             18.256300     0.044341
                             11.409400    -0.109142
                              6.905670    -0.138606
                              2.982060     0.343743
                              1.608430     0.518271
                              0.831767     0.278706
                              0.393731     0.040818
                              0.181801     0.000631
                              0.081850     0.000748
                              0.035993    -0.000086
    4.2 Au    1  2px        195.495000     0.000000
                             18.256300     0.000000
                             11.409400     0.000000
                              6.905670     1.000000
                              2.982060     0.000000
                              1.608430     0.000000
                              0.831767     0.000000
                              0.393731     0.000000
                              0.181801     0.000000
                              0.081850     0.000000
                              0.035993     0.000000
    5.2 Au    1  2py        195.495000     0.000000
                             18.256300     0.000000
                             11.409400     0.000000
                              6.905670     1.000000
                              2.982060     0.000000
                              1.608430     0.000000
                              0.831767     0.000000
                              0.393731     0.000000
                              0.181801     0.000000
                              0.081850     0.000000
                              0.035993     0.000000
    6.2 Au    1  2pz        195.495000     0.000000
                             18.256300     0.000000
                             11.409400     0.000000
                              6.905670     1.000000
                              2.982060     0.000000
                              1.608430     0.000000
                              0.831767     0.000000
                              0.393731     0.000000
                              0.181801     0.000000
                              0.081850     0.000000
                              0.035993     0.000000
    7.2 Au    1  2px        195.495000     0.000000
                             18.256300     0.000000
                             11.409400     0.000000
                              6.905670     0.000000
                              2.982060     0.000000
                              1.608430     0.000000
                              0.831767     0.000000
                              0.393731     1.000000
                              0.181801     0.000000
                              0.081850     0.000000
                              0.035993     0.000000
    8.2 Au    1  2py        195.495000     0.000000
                             18.256300     0.000000
                             11.409400     0.000000
                              6.905670     0.000000
                              2.982060     0.000000
                              1.608430     0.000000
                              0.831767     0.000000
                              0.393731     1.000000
                              0.181801     0.000000
                              0.081850     0.000000
                              0.035993     0.000000
    9.2 Au    1  2pz        195.495000     0.000000
                             18.256300     0.000000
                             11.409400     0.000000
                              6.905670     0.000000
                              2.982060     0.000000
                              1.608430     0.000000
                              0.831767     0.000000
                              0.393731     1.000000
                              0.181801     0.000000
                              0.081850     0.000000
                              0.035993     0.000000
   10.2 Au    1  2px        195.495000     0.000000
                             18.256300     0.000000
                             11.409400     0.000000
                              6.905670     0.000000
                              2.982060     0.000000
                              1.608430     0.000000
                              0.831767     0.000000
                              0.393731     0.000000
                              0.181801     1.000000
                              0.081850     0.000000
                              0.035993     0.000000
   11.2 Au    1  2py        195.495000     0.000000
                             18.256300     0.000000
                             11.409400     0.000000
                              6.905670     0.000000
                              2.982060     0.000000
                              1.608430     0.000000
                              0.831767     0.000000
                              0.393731     0.000000
                              0.181801     1.000000
                              0.081850     0.000000
                              0.035993     0.000000
   12.2 Au    1  2pz        195.495000     0.000000
                             18.256300     0.000000
                             11.409400     0.000000
                              6.905670     0.000000
                              2.982060     0.000000
                              1.608430     0.000000
                              0.831767     0.000000
                              0.393731     0.000000
                              0.181801     1.000000
                              0.081850     0.000000
                              0.035993     0.000000
   13.2 Au    1  2px        195.495000     0.000000
                             18.256300     0.000000
                             11.409400     0.000000
                              6.905670     0.000000
                              2.982060     0.000000
                              1.608430     0.000000
                              0.831767     0.000000
                              0.393731     0.000000
                              0.181801     0.000000
                              0.081850     1.000000
                              0.035993     0.000000
   14.2 Au    1  2py        195.495000     0.000000
                             18.256300     0.000000
                             11.409400     0.000000
                              6.905670     0.000000
                              2.982060     0.000000
                              1.608430     0.000000
                              0.831767     0.000000
                              0.393731     0.000000
                              0.181801     0.000000
                              0.081850     1.000000
                              0.035993     0.000000
   15.2 Au    1  2pz        195.495000     0.000000
                             18.256300     0.000000
                             11.409400     0.000000
                              6.905670     0.000000
                              2.982060     0.000000
                              1.608430     0.000000
                              0.831767     0.000000
                              0.393731     0.000000
                              0.181801     0.000000
                              0.081850     1.000000
                              0.035993     0.000000
   16.2 Au    1  2px        195.495000     0.000000
                             18.256300     0.000000
                             11.409400     0.000000
                              6.905670     0.000000
                              2.982060     0.000000
                              1.608430     0.000000
                              0.831767     0.000000
                              0.393731     0.000000
                              0.181801     0.000000
                              0.081850     0.000000
                              0.035993     1.000000
   17.2 Au    1  2py        195.495000     0.000000
                             18.256300     0.000000
                             11.409400     0.000000
                              6.905670     0.000000
                              2.982060     0.000000
                              1.608430     0.000000
                              0.831767     0.000000
                              0.393731     0.000000
                              0.181801     0.000000
                              0.081850     0.000000
                              0.035993     1.000000
   18.2 Au    1  2pz        195.495000     0.000000
                             18.256300     0.000000
                             11.409400     0.000000
                              6.905670     0.000000
                              2.982060     0.000000
                              1.608430     0.000000
                              0.831767     0.000000
                              0.393731     0.000000
                              0.181801     0.000000
                              0.081850     0.000000
                              0.035993     1.000000
   19.2 Au    1  2px          3.675500     1.000000
   20.2 Au    1  2py          3.675500     1.000000
   21.2 Au    1  2pz          3.675500     1.000000
   22.2 Au    1  2px          1.835400     1.000000
   23.2 Au    1  2py          1.835400     1.000000
   24.2 Au    1  2pz          1.835400     1.000000
   25.2 Au    1  2px          0.916600     1.000000
   26.2 Au    1  2py          0.916600     1.000000
   27.2 Au    1  2pz          0.916600     1.000000
   28.2 Au    1  2px          0.014500     1.000000
   29.2 Au    1  2py          0.014500     1.000000
   30.2 Au    1  2pz          0.014500     1.000000
   31.2 Au    1  2px          0.004833     1.000000
   32.2 Au    1  2py          0.004833     1.000000
   33.2 Au    1  2pz          0.004833     1.000000
   34.2 Au    1  4f1+         0.431500     1.000000
   35.2 Au    1  4f1-         0.431500     1.000000
   36.2 Au    1  4f0          0.431500     1.000000
   37.2 Au    1  4f3+         0.431500     1.000000
   38.2 Au    1  4f2-         0.431500     1.000000
   39.2 Au    1  4f3-         0.431500     1.000000
   40.2 Au    1  4f2+         0.431500     1.000000
   41.2 Au    1  4f1+         0.177200     1.000000
   42.2 Au    1  4f1-         0.177200     1.000000
   43.2 Au    1  4f0          0.177200     1.000000
   44.2 Au    1  4f3+         0.177200     1.000000
   45.2 Au    1  4f2-         0.177200     1.000000
   46.2 Au    1  4f3-         0.177200     1.000000
   47.2 Au    1  4f2+         0.177200     1.000000
   48.2 Au    1  4f1+         8.749200     1.000000
   49.2 Au    1  4f1-         8.749200     1.000000
   50.2 Au    1  4f0          8.749200     1.000000
   51.2 Au    1  4f3+         8.749200     1.000000
   52.2 Au    1  4f2-         8.749200     1.000000
   53.2 Au    1  4f3-         8.749200     1.000000
   54.2 Au    1  4f2+         8.749200     1.000000
   55.2 Au    1  4f1+         3.094300     1.000000
   56.2 Au    1  4f1-         3.094300     1.000000
   57.2 Au    1  4f0          3.094300     1.000000
   58.2 Au    1  4f3+         3.094300     1.000000
   59.2 Au    1  4f2-         3.094300     1.000000
   60.2 Au    1  4f3-         3.094300     1.000000
   61.2 Au    1  4f2+         3.094300     1.000000
   62.2 Au    1  4f1+         1.094300     1.000000
   63.2 Au    1  4f1-         1.094300     1.000000
   64.2 Au    1  4f0          1.094300     1.000000
   65.2 Au    1  4f3+         1.094300     1.000000
   66.2 Au    1  4f2-         1.094300     1.000000
   67.2 Au    1  4f3-         1.094300     1.000000
   68.2 Au    1  4f2+         1.094300     1.000000
   69.2 Au    1  4f1+         0.073000     1.000000
   70.2 Au    1  4f1-         0.073000     1.000000
   71.2 Au    1  4f0          0.073000     1.000000
   72.2 Au    1  4f3+         0.073000     1.000000
   73.2 Au    1  4f2-         0.073000     1.000000
   74.2 Au    1  4f3-         0.073000     1.000000
   75.2 Au    1  4f2+         0.073000     1.000000
   76.2 Au    1  4f1+         0.024333     1.000000
   77.2 Au    1  4f1-         0.024333     1.000000
   78.2 Au    1  4f0          0.024333     1.000000
   79.2 Au    1  4f3+         0.024333     1.000000
   80.2 Au    1  4f2-         0.024333     1.000000
   81.2 Au    1  4f3-         0.024333     1.000000
   82.2 Au    1  4f2+         0.024333     1.000000
   83.2 Au    1  6h1+         1.160400     1.000000
   84.2 Au    1  6h1-         1.160400     1.000000
   85.2 Au    1  6h2+         1.160400     1.000000
   86.2 Au    1  6h3+         1.160400     1.000000
   87.2 Au    1  6h4-         1.160400     1.000000
   88.2 Au    1  6h3-         1.160400     1.000000
   89.2 Au    1  6h4+         1.160400     1.000000
   90.2 Au    1  6h5-         1.160400     1.000000
   91.2 Au    1  6h0          1.160400     1.000000
   92.2 Au    1  6h5+         1.160400     1.000000
   93.2 Au    1  6h2-         1.160400     1.000000

 NUCLEAR CHARGE:                   22
 NUMBER OF PRIMITIVE AOS:         320
 NUMBER OF SYMMETRY AOS:          248
 NUMBER OF CONTRACTIONS:          185   (   92Ag  +   93Au  )
 NUMBER OF INNER CORE ORBITALS:     0   (    0Ag  +    0Au  )
 NUMBER OF OUTER CORE ORBITALS:     9   (    6Ag  +    3Au  )
 NUMBER OF VALENCE ORBITALS:        4   (    1Ag  +    3Au  )


 LX: Ag           LY: Ag           LZ: Ag 


 NUCLEAR REPULSION ENERGY    0.00000000

 EXTRA SYMMETRY OF AOS IN SYMMETRY 1:   1 1 1 1 1 1 1 1 1 1   1 2 3 4 5 6 2 3 4 5   6 2 3 4 5 6 2 3 4 5   6 2 3 4 5 6 2 3 4 5
                                        6 2 3 4 5 6 2 3 4 5   6 2 3 4 5 6 7 8 910  1112131415 7 8 91011  12131415 7 8 9101112
                                       131415 7 8 910111213  1415
 EXTRA SYMMETRY OF AOS IN SYMMETRY 2:   1 2 3 1 2 3 1 2 3 1   2 3 1 2 3 1 2 3 1 2   3 1 2 3 1 2 3 1 2 3   1 2 3 4 5 6 7 8 910
                                        4 5 6 7 8 910 4 5 6   7 8 910 4 5 6 7 8 9  10 4 5 6 7 8 910 4 5   6 7 8 910 4 5 6 7 8
                                        9101112131415161718  192021


 Eigenvalues of metric

         1 0.520E-04 0.520E-04 0.520E-04 0.520E-04 0.520E-04 0.123E-03 0.128E-02 0.528E-02
         2 0.171E-04 0.171E-04 0.171E-04 0.301E-02 0.301E-02 0.301E-02 0.976E-02 0.976E-02


 Contracted 2-electron integrals neglected if value below      1.0D-12
 AO integral compression algorithm  1   Integral accuracy      1.0D-12

     155.189 MB (compressed) written to integral file ( 14.5%)

     Node minimum: 5.505 MB, node maximum: 16.515 MB


 NUMBER OF SORTED TWO-ELECTRON INTEGRALS:    4674546.     BUFFER LENGTH:  32768
 NUMBER OF SEGMENTS:   1  SEGMENT LENGTH:    4674546      RECORD LENGTH: 524288

 Memory used in sort:       5.23 MW

 SORT1 READ   134353782. AND WROTE      861811. INTEGRALS IN      3 RECORDS. CPU TIME:     0.70 SEC, REAL TIME:     0.72 SEC
 SORT2 READ    13879585. AND WROTE    74805201. INTEGRALS IN    416 RECORDS. CPU TIME:     0.13 SEC, REAL TIME:     0.14 SEC

 Node minimum:     4669686.  Node maximum:     4689006. integrals

 OPERATOR DM      FOR CENTER  0  COORDINATES:    0.000000    0.000000    0.000000


 **********************************************************************************************************************************
 DATASETS  * FILE   NREC   LENGTH (MB)   RECORD NAMES
              1      19       29.52       500      610      700      900      950      970     1000      129      960     1100   
                                          VAR    BASINP    GEOM    SYMINP    ZMAT    AOBASIS   BASIS     P2S    ABASIS      S 
                                         1400     1410     1420     1200     1210     1080     1700     1600     1650   
                                           T        V       ECP      H0       H01     AOSYM    OPER      SMH    MOLCAS    

 PROGRAMS   *        TOTAL       INT
 CPU TIMES  *         2.75      2.54
 REAL TIME  *         3.73 SEC
 DISK USED  *        29.89 MB (local),      771.79 MB (total)
 GA USED    *         0.00 MB       (max)       0.00 MB       (current)
 **********************************************************************************************************************************


 Program * Restricted Hartree-Fock


   Atom=SN basis=cc-pVTZ-PP        lmin=0  lmax=2

 Orbital guess generated from atomic densities.

 Initial alpha occupancy:   7   6
 Initial beta  occupancy:   7   3

 NELEC=   23   SYM=2   MS2= 3   THRE=1.0D-08   THRD=3.2D-06   THRG=3.2D-06  HFMA2=F  DIIS_START=2   DIIS_MAX=10   DIIS_INCORE=F

 Level shifts:    0.00 (CLOSED)    0.00 (OPEN)    0.30 (GAP_MIN)

 ITER           ETOT              DE          GRAD        DDIFF     DIIS  NEXP   TIME(IT)  TIME(TOT)  DIAG
   1     -213.37056036    -213.37056036     0.00D+00     0.68D-01     0     0       0.03      0.07    start
   2     -213.37337414      -0.00281378     0.93D-03     0.19D-02     1     0       0.03      0.10    diag2
   3     -213.37367711      -0.00030297     0.50D-03     0.49D-03     2     0       0.02      0.12    diag2
   4     -213.37376779      -0.00009068     0.16D-03     0.35D-03     3     0       0.04      0.16    diag2
   5     -213.37377882      -0.00001103     0.43D-04     0.10D-03     4     0       0.03      0.19    diag2
   6     -213.37378050      -0.00000168     0.11D-04     0.44D-04     5     0       0.03      0.22    diag2
   7     -213.37378093      -0.00000043     0.39D-05     0.24D-04     6     0       0.03      0.25    diag2
   8     -213.37378105      -0.00000013     0.16D-05     0.93D-05     7     0       0.03      0.28    fixocc
   9     -213.37378108      -0.00000003     0.74D-06     0.51D-05     8     0       0.03      0.31    diag2
  10     -213.37378108      -0.00000000     0.18D-06     0.21D-05     9     0       0.03      0.34    diag2/orth
  11     -213.37378108      -0.00000000     0.26D-07     0.16D-06     0     0       0.03      0.37    diag

 Final alpha occupancy:   7   6
 Final beta  occupancy:   7   3

 !RHF STATE 1.2 Energy               -213.373781083449
  RHF One-electron energy            -381.083512899685
  RHF Two-electron energy             167.709731816236
  RHF Kinetic energy                   82.648102955983
  RHF Nuclear energy                    0.000000000000
  RHF Virial quotient                  -2.581714200955

 !RHF STATE 1.2 Dipole moment           0.00000000     0.00000000     0.00000000
 Dipole moment /Debye                   0.00000000     0.00000000     0.00000000

 ELECTRON ORBITALS
 =================

  Orbital  Occupation    Energy    Cen Mu Typ  Coefficients
    1.1     2.00000    -5.62715     1  1  s    0.99985
    2.1     2.00000    -1.07699     1  1  d2-  0.31766    1  1  d1+  0.70189    1  1  d1-  0.60393
    3.1     2.00000    -1.07699     1  1  d1+  0.28182    1  1  d2+  0.74959    1  1  d1- -0.59651
    4.1     2.00000    -1.07699     1  1  d0   0.99907
    5.1     2.00000    -1.07699     1  1  d2-  0.88871    1  1  d2+ -0.30653    1  1  d1- -0.33850
    6.1     2.00000    -1.07699     1  1  d2- -0.32668    1  1  d1+  0.65294    1  1  d2+ -0.55024    1  1  d1- -0.40374
    7.1     2.00000    -0.29350     1  1  s   -0.34486    1  4  s    0.43583    1  5  s    0.55686    1  6  s    0.25452
    1.2     2.00000    -3.81345     1  1  py   0.71964    1  1  pz  -0.69461
    2.2     2.00000    -3.81345     1  1  px   1.00000
    3.2     2.00000    -3.81345     1  1  py   0.69473    1  1  pz   0.71939
    4.2     1.00000    -0.05737     1  4  py   0.34595    1  5  py   0.40228    1  6  py   0.27420
    5.2     1.00000    -0.05737     1  4  px   0.34624    1  5  px   0.40262    1  6  px   0.27443
    6.2     1.00000    -0.05737     1  4  pz   0.34595    1  5  pz   0.40228    1  6  pz   0.27420


 HOMO      6.2    -0.057373 =      -1.5612eV
 LUMO      7.2     0.068821 =       1.8727eV
 LUMO-HOMO         0.126194 =       3.4339eV

 Orbitals saved in record  2100.2


 **********************************************************************************************************************************
 DATASETS  * FILE   NREC   LENGTH (MB)   RECORD NAMES
              1      19       29.52       500      610      700      900      950      970     1000      129      960     1100   
                                          VAR    BASINP    GEOM    SYMINP    ZMAT    AOBASIS   BASIS     P2S    ABASIS      S 
                                         1400     1410     1420     1200     1210     1080     1700     1600     1650   
                                           T        V       ECP      H0       H01     AOSYM    OPER      SMH    MOLCAS    

              2       4        0.93       700     1000      520     2100   
                                         GEOM     BASIS   MCVARS     RHF  

 PROGRAMS   *        TOTAL   RHF-SCF       INT
 CPU TIMES  *         3.12      0.37      2.54
 REAL TIME  *         5.66 SEC
 DISK USED  *        32.93 MB (local),      820.39 MB (total)
 GA USED    *         0.00 MB       (max)       0.00 MB       (current)
 **********************************************************************************************************************************
 SETTING NTRIP          =        12.00000000                                  
 SETTING NSING          =        15.00000000                                  

 PROGRAM * MULTI (Direct Multiconfiguration SCF)       Authors: P.J. Knowles, H.-J. Werner (1984)
                                                                D.A. Kreplin, P.J. Knowles, H.-J. Werner (2019)

 Number of closed-shell orbitals:   9 (    6    3)
 Number of active  orbitals:        7 (    1    6)
 Number of external orbitals:     169 (   85   84)

 State symmetry 1

 Number of active electrons:   4    Spin symmetry=Triplet   Space symmetry=1
 Number of states:            12
 Number of CSFs:             120   (135 determinants, 245 intermediate states)

 State symmetry 2

 Number of active electrons:   4    Spin symmetry=Singlet   Space symmetry=1
 Number of states:            15
 Number of CSFs:             126   (261 determinants, 441 intermediate states)

 Molecular orbitals read from record     2100.2  Type=RHF/CANONICAL  
 *** IN SYMMETRY 1 ORBITAL  2 SYMMETRY CONTAMINATION OF 0.619D+00 HAS BEEN REMOVED
 *** IN SYMMETRY 1 ORBITAL  3 SYMMETRY CONTAMINATION OF 0.555D+00 HAS BEEN REMOVED
 *** IN SYMMETRY 1 ORBITAL  4 SYMMETRY CONTAMINATION OF 0.320D-01 HAS BEEN REMOVED
 *** IN SYMMETRY 1 ORBITAL  5 SYMMETRY CONTAMINATION OF 0.432D+00 HAS BEEN REMOVED
 *** IN SYMMETRY 1 ORBITAL  6 SYMMETRY CONTAMINATION OF 0.792D+00 HAS BEEN REMOVED

 EXTRA SYMMETRY OF MOS IN SYMMETRY 1:   1 4 5 2 3 6 1 1 2 3   5 6 4 1 2 3 6 4 5 1   4 6 5 3 2 5 3 4 6 2   7 9111310 8121514 1
                                        5 3 6 4 2 812131011   91514 7 1 2 5 3 6 4  1310 812 7 9111415 1   2 3 6 5 4 812 7 911
                                       14151310 1 2 3 6 4 5   1 1
 *** IN SYMMETRY 2 ORBITAL  1 SYMMETRY CONTAMINATION OF 0.496D+00 HAS BEEN REMOVED
 *** IN SYMMETRY 2 ORBITAL  2 SYMMETRY CONTAMINATION OF 0.264D-01 HAS BEEN REMOVED
 *** IN SYMMETRY 2 ORBITAL  3 SYMMETRY CONTAMINATION OF 0.498D+00 HAS BEEN REMOVED
 *** IN SYMMETRY 2 ORBITAL  4 SYMMETRY CONTAMINATION OF 0.394D-01 HAS BEEN REMOVED
 *** IN SYMMETRY 2 ORBITAL  6 SYMMETRY CONTAMINATION OF 0.394D-01 HAS BEEN REMOVED
 *** IN SYMMETRY 2 ORBITAL  7 SYMMETRY CONTAMINATION OF 0.796D-03 HAS BEEN REMOVED
 *** IN SYMMETRY 2 ORBITAL  9 SYMMETRY CONTAMINATION OF 0.796D-03 HAS BEEN REMOVED
 EXTRA SYMMETRY OF MOS IN SYMMETRY 2:   2 1 3 2 1 3 2 1 3 2   1 3 6 810 9 7 4 5 3   1 2 810 6 9 7 5 4 3   1 2 810 6 9 7 5 4 3
                                        1 210 8 6 5 4 9 7 9   7 810 4 5 6 3 1 219  14162113121115172018   6 4 5 810 9 7 3 1 2
                                        9 7 5 4 610 8 2 3 1   2 3 1

 Wavefunction dump at record             2140.2

 Convergence thresholds  0.10E-04 (gradient)  0.10E-05 (energy)

 Weight factors for state symmetry  1:    0.03704   0.03704   0.03704   0.03704   0.03704   0.03704   0.03704   0.03704
                                          0.03704   0.03704   0.03704   0.03704
 Weight factors for state symmetry  2:    0.03704   0.03704   0.03704   0.03704   0.03704   0.03704   0.03704   0.03704
                                          0.03704   0.03704   0.03704   0.03704   0.03704   0.03704   0.03704
 
 Number of orbital rotations:  1375  ( 24 closed/active, 762 closed/virtual, 0 active/active, 589 active/virtual )
 Total number of variables:    6910
 
 Second-order MCSCF: L-BFGS accelerated
 
 ITER  MIC  NCI  NEG     ENERGY(VAR)    ENERGY(PROJ) ENERGY CHANGE       GRAD(0)  GRAD(ORB)   GRAD(CI)      STEP      TIME
   1   10   18    3   -213.15926891    -213.21559061   -0.05632171    0.17554441 0.00015651 0.00000000  0.15E+01      1.32
   2    6   10    0   -213.21509115    -213.21535914   -0.00026799    0.01198688 0.00000119 0.00000000  0.11E+00      2.51
   3    7   14    0   -213.21535920    -213.21535920   -0.00000000    0.00002939 0.00000001 0.00000000  0.14E-03      3.69
   4    2    4    0   -213.21535920    -213.21535920    0.00000000    0.00000001 0.00000001 0.00000000  0.32E-07      4.33

 CONVERGENCE REACHED!  Final gradient:    0.00000002 ( 0.21E-07)
                       Final energy:   -213.21535920
 
 Results for state 1.1 Triplet
 =============================
 !MCSCF STATE 1.1 Triplet Energy              -213.340538137322
 Nuclear energy                                  0.00000000
 Kinetic energy                                 82.85284559
 One electron energy                          -376.87585315
 Two electron energy                           163.53531501
 Virial ratio                                    3.57493314
 
 !MCSCF STATE 1.1 Triplet Dipole moment          0.00000000     0.00000000     0.00000000
 Dipole moment /Debye                            0.00000000     0.00000000     0.00000000
 
 Results for state 2.1 Triplet
 =============================
 !MCSCF STATE 2.1 Triplet Energy              -213.340538137120
 Nuclear energy                                  0.00000000
 Kinetic energy                                 82.85284560
 One electron energy                          -376.87585316
 Two electron energy                           163.53531503
 Virial ratio                                    3.57493314
 
 !MCSCF STATE 2.1 Triplet Dipole moment          0.00000000     0.00000000     0.00000000
 Dipole moment /Debye                            0.00000000     0.00000000     0.00000000
 
 Results for state 3.1 Triplet
 =============================
 !MCSCF STATE 3.1 Triplet Energy              -213.340538136637
 Nuclear energy                                  0.00000000
 Kinetic energy                                 82.85284561
 One electron energy                          -376.87585319
 Two electron energy                           163.53531506
 Virial ratio                                    3.57493314
 
 !MCSCF STATE 3.1 Triplet Dipole moment          0.00000000     0.00000000     0.00000000
 Dipole moment /Debye                            0.00000000     0.00000000     0.00000000
 
 Results for state 4.1 Triplet
 =============================
 !MCSCF STATE 4.1 Triplet Energy              -213.170850174601
 Nuclear energy                                  0.00000000
 Kinetic energy                                 82.31365355
 One electron energy                          -371.65055652
 Two electron energy                           158.47970634
 Virial ratio                                    3.58973865
 
 !MCSCF STATE 4.1 Triplet Dipole moment          0.00000000     0.00000000     0.00000000
 Dipole moment /Debye                            0.00000000     0.00000000     0.00000000
 
 Results for state 5.1 Triplet
 =============================
 !MCSCF STATE 5.1 Triplet Energy              -213.170850174599
 Nuclear energy                                  0.00000000
 Kinetic energy                                 82.31365355
 One electron energy                          -371.65055652
 Two electron energy                           158.47970634
 Virial ratio                                    3.58973865
 
 !MCSCF STATE 5.1 Triplet Dipole moment          0.00000000     0.00000000     0.00000000
 Dipole moment /Debye                            0.00000000     0.00000000     0.00000000
 
 Results for state 6.1 Triplet
 =============================
 !MCSCF STATE 6.1 Triplet Energy              -213.170850174580
 Nuclear energy                                  0.00000000
 Kinetic energy                                 82.31365354
 One electron energy                          -371.65055651
 Two electron energy                           158.47970634
 Virial ratio                                    3.58973865
 
 !MCSCF STATE 6.1 Triplet Dipole moment          0.00000000     0.00000000     0.00000000
 Dipole moment /Debye                            0.00000000     0.00000000     0.00000000
 
 Results for state 7.1 Triplet
 =============================
 !MCSCF STATE 7.1 Triplet Energy              -213.170850174568
 Nuclear energy                                  0.00000000
 Kinetic energy                                 82.31365354
 One electron energy                          -371.65055651
 Two electron energy                           158.47970634
 Virial ratio                                    3.58973865
 
 !MCSCF STATE 7.1 Triplet Dipole moment          0.00000000     0.00000000     0.00000000
 Dipole moment /Debye                            0.00000000     0.00000000     0.00000000
 
 Results for state 8.1 Triplet
 =============================
 !MCSCF STATE 8.1 Triplet Energy              -213.170850174565
 Nuclear energy                                  0.00000000
 Kinetic energy                                 82.31365354
 One electron energy                          -371.65055651
 Two electron energy                           158.47970634
 Virial ratio                                    3.58973865
 
 !MCSCF STATE 8.1 Triplet Dipole moment          0.00000000     0.00000000     0.00000000
 Dipole moment /Debye                            0.00000000     0.00000000     0.00000000
 
 Results for state 9.1 Triplet
 =============================
 !MCSCF STATE 9.1 Triplet Energy              -213.167650320179
 Nuclear energy                                  0.00000000
 Kinetic energy                                 82.37249190
 One electron energy                          -371.96255411
 Two electron energy                           158.79490379
 Virial ratio                                    3.58784997
 
 !MCSCF STATE 9.1 Triplet Dipole moment          0.00000000     0.00000000     0.00000000
 Dipole moment /Debye                            0.00000000     0.00000000     0.00000000
 
 Results for state 10.1 Triplet
 ==============================
 !MCSCF STATE 10.1 Triplet Energy             -213.167650320123
 Nuclear energy                                  0.00000000
 Kinetic energy                                 82.37249190
 One electron energy                          -371.96255411
 Two electron energy                           158.79490379
 Virial ratio                                    3.58784997
 
 !MCSCF STATE 10.1 Triplet Dipole moment         0.00000000     0.00000000     0.00000000
 Dipole moment /Debye                            0.00000000     0.00000000     0.00000000
 
 Results for state 11.1 Triplet
 ==============================
 !MCSCF STATE 11.1 Triplet Energy             -213.167650320078
 Nuclear energy                                  0.00000000
 Kinetic energy                                 82.37249190
 One electron energy                          -371.96255411
 Two electron energy                           158.79490379
 Virial ratio                                    3.58784997
 
 !MCSCF STATE 11.1 Triplet Dipole moment         0.00000000     0.00000000     0.00000000
 Dipole moment /Debye                            0.00000000     0.00000000     0.00000000
 
 Results for state 12.1 Triplet
 ==============================
 !MCSCF STATE 12.1 Triplet Energy             -213.165668316072
 Nuclear energy                                  0.00000000
 Kinetic energy                                 82.31355484
 One electron energy                          -371.64906448
 Two electron energy                           158.48339617
 Virial ratio                                    3.58967880
 
 !MCSCF STATE 12.1 Triplet Dipole moment         0.00000000     0.00000000     0.00000000
 Dipole moment /Debye                            0.00000000     0.00000000     0.00000000
 
 Results for state 1.1 Singlet
 =============================
 !MCSCF STATE 1.1 Singlet Energy              -213.304513281379
 Nuclear energy                                  0.00000000
 Kinetic energy                                 82.81739605
 One electron energy                          -376.66038948
 Two electron energy                           163.35587620
 Virial ratio                                    3.57560034
 
 !MCSCF STATE 1.1 Singlet Dipole moment          0.00000000     0.00000000     0.00000000
 Dipole moment /Debye                            0.00000000     0.00000000     0.00000000
 
 Results for state 2.1 Singlet
 =============================
 !MCSCF STATE 2.1 Singlet Energy              -213.304513281250
 Nuclear energy                                  0.00000000
 Kinetic energy                                 82.81739605
 One electron energy                          -376.66038948
 Two electron energy                           163.35587620
 Virial ratio                                    3.57560034
 
 !MCSCF STATE 2.1 Singlet Dipole moment          0.00000000     0.00000000     0.00000000
 Dipole moment /Debye                            0.00000000     0.00000000     0.00000000
 
 Results for state 3.1 Singlet
 =============================
 !MCSCF STATE 3.1 Singlet Energy              -213.304513280998
 Nuclear energy                                  0.00000000
 Kinetic energy                                 82.81739606
 One electron energy                          -376.66038950
 Two electron energy                           163.35587622
 Virial ratio                                    3.57560034
 
 !MCSCF STATE 3.1 Singlet Dipole moment          0.00000000     0.00000000     0.00000000
 Dipole moment /Debye                            0.00000000     0.00000000     0.00000000
 
 Results for state 4.1 Singlet
 =============================
 !MCSCF STATE 4.1 Singlet Energy              -213.304513280426
 Nuclear energy                                  0.00000000
 Kinetic energy                                 82.81739606
 One electron energy                          -376.66038953
 Two electron energy                           163.35587625
 Virial ratio                                    3.57560034
 
 !MCSCF STATE 4.1 Singlet Dipole moment          0.00000000     0.00000000     0.00000000
 Dipole moment /Debye                            0.00000000     0.00000000     0.00000000
 
 Results for state 5.1 Singlet
 =============================
 !MCSCF STATE 5.1 Singlet Energy              -213.304513280405
 Nuclear energy                                  0.00000000
 Kinetic energy                                 82.81739606
 One electron energy                          -376.66038953
 Two electron energy                           163.35587625
 Virial ratio                                    3.57560034
 
 !MCSCF STATE 5.1 Singlet Dipole moment          0.00000000     0.00000000     0.00000000
 Dipole moment /Debye                            0.00000000     0.00000000     0.00000000
 
 Results for state 6.1 Singlet
 =============================
 !MCSCF STATE 6.1 Singlet Energy              -213.274511010202
 Nuclear energy                                  0.00000000
 Kinetic energy                                 82.76857583
 One electron energy                          -376.28244882
 Two electron energy                           163.00793781
 Virial ratio                                    3.57675705
 
 !MCSCF STATE 6.1 Singlet Dipole moment          0.00000000     0.00000000     0.00000000
 Dipole moment /Debye                            0.00000000     0.00000000     0.00000000
 
 Results for state 7.1 Singlet
 =============================
 !MCSCF STATE 7.1 Singlet Energy              -213.174307517131
 Nuclear energy                                  0.00000000
 Kinetic energy                                 82.31371610
 One electron energy                          -371.65150631
 Two electron energy                           158.47719879
 Virial ratio                                    3.58977869
 
 !MCSCF STATE 7.1 Singlet Dipole moment          0.00000000     0.00000000     0.00000000
 Dipole moment /Debye                            0.00000000     0.00000000     0.00000000
 
 Results for state 8.1 Singlet
 =============================
 !MCSCF STATE 8.1 Singlet Energy              -213.174307517118
 Nuclear energy                                  0.00000000
 Kinetic energy                                 82.31371611
 One electron energy                          -371.65150631
 Two electron energy                           158.47719879
 Virial ratio                                    3.58977869
 
 !MCSCF STATE 8.1 Singlet Dipole moment          0.00000000     0.00000000     0.00000000
 Dipole moment /Debye                            0.00000000     0.00000000     0.00000000
 
 Results for state 9.1 Singlet
 =============================
 !MCSCF STATE 9.1 Singlet Energy              -213.174307517095
 Nuclear energy                                  0.00000000
 Kinetic energy                                 82.31371611
 One electron energy                          -371.65150632
 Two electron energy                           158.47719880
 Virial ratio                                    3.58977869
 
 !MCSCF STATE 9.1 Singlet Dipole moment          0.00000000     0.00000000     0.00000000
 Dipole moment /Debye                            0.00000000     0.00000000     0.00000000
 
 Results for state 10.1 Singlet
 ==============================
 !MCSCF STATE 10.1 Singlet Energy             -213.160042016272
 Nuclear energy                                  0.00000000
 Kinetic energy                                 82.40962638
 One electron energy                          -372.18487463
 Two electron energy                           159.02483261
 Virial ratio                                    3.58659154
 
 !MCSCF STATE 10.1 Singlet Dipole moment         0.00000000     0.00000000     0.00000000
 Dipole moment /Debye                            0.00000000     0.00000000     0.00000000
 
 Results for state 11.1 Singlet
 ==============================
 !MCSCF STATE 11.1 Singlet Energy             -213.160042016260
 Nuclear energy                                  0.00000000
 Kinetic energy                                 82.40962638
 One electron energy                          -372.18487463
 Two electron energy                           159.02483261
 Virial ratio                                    3.58659154
 
 !MCSCF STATE 11.1 Singlet Dipole moment         0.00000000     0.00000000     0.00000000
 Dipole moment /Debye                            0.00000000     0.00000000     0.00000000
 
 Results for state 12.1 Singlet
 ==============================
 !MCSCF STATE 12.1 Singlet Energy             -213.160042016125
 Nuclear energy                                  0.00000000
 Kinetic energy                                 82.40962638
 One electron energy                          -372.18487463
 Two electron energy                           159.02483261
 Virial ratio                                    3.58659154
 
 !MCSCF STATE 12.1 Singlet Dipole moment         0.00000000     0.00000000     0.00000000
 Dipole moment /Debye                            0.00000000     0.00000000     0.00000000
 
 Results for state 13.1 Singlet
 ==============================
 !MCSCF STATE 13.1 Singlet Energy             -213.160042016026
 Nuclear energy                                  0.00000000
 Kinetic energy                                 82.40962638
 One electron energy                          -372.18487463
 Two electron energy                           159.02483261
 Virial ratio                                    3.58659154
 
 !MCSCF STATE 13.1 Singlet Dipole moment         0.00000000     0.00000000     0.00000000
 Dipole moment /Debye                            0.00000000     0.00000000     0.00000000
 
 Results for state 14.1 Singlet
 ==============================
 !MCSCF STATE 14.1 Singlet Energy             -213.160042016000
 Nuclear energy                                  0.00000000
 Kinetic energy                                 82.40962638
 One electron energy                          -372.18487463
 Two electron energy                           159.02483261
 Virial ratio                                    3.58659154
 
 !MCSCF STATE 14.1 Singlet Dipole moment         0.00000000     0.00000000     0.00000000
 Dipole moment /Debye                            0.00000000     0.00000000     0.00000000
 
 Results for state 15.1 Singlet
 ==============================
 !MCSCF STATE 15.1 Singlet Energy             -213.150003720960
 Nuclear energy                                  0.00000000
 Kinetic energy                                 82.45245443
 One electron energy                          -372.43842856
 Two electron energy                           159.28842484
 Virial ratio                                    3.58512624
 
 !MCSCF STATE 15.1 Singlet Dipole moment         0.00000000     0.00000000     0.00000000
 Dipole moment /Debye                            0.00000000     0.00000000     0.00000000
 
 State-averaged charge density matrix saved on record 2140.2 (density set 1)
 
 No non-zero expectation values
 
 Expectation values for two-electron operators:
 
 ? Warning
 ? Transition properties are only calculated between states of the same symmetry
 ? The problem occurs in mu_properties_expec2

 !MCSCF expec      <1.1 Triplet|LXLX|1.1 Triplet>     1.000000000000
 !MCSCF expec      <2.1 Triplet|LXLX|2.1 Triplet>     1.000000000000
 !MCSCF expec      <3.1 Triplet|LXLX|3.1 Triplet>     0.000000000001
 !MCSCF expec      <4.1 Triplet|LXLX|4.1 Triplet>     3.853591339434
 !MCSCF expec      <5.1 Triplet|LXLX|5.1 Triplet>     3.999999999963
 !MCSCF expec      <6.1 Triplet|LXLX|6.1 Triplet>     0.999999999936
 !MCSCF expec      <7.1 Triplet|LXLX|7.1 Triplet>     0.999999994149
 !MCSCF expec      <8.1 Triplet|LXLX|8.1 Triplet>     0.146388186748
 !MCSCF expec      <9.1 Triplet|LXLX|9.1 Triplet>     0.000000000011
 !MCSCF expec    <10.1 Triplet|LXLX|10.1 Triplet>     0.999999999994
 !MCSCF expec    <11.1 Triplet|LXLX|11.1 Triplet>     0.999999999994
 !MCSCF expec    <12.1 Triplet|LXLX|12.1 Triplet>     0.000000000008
 !MCSCF expec      <1.1 Singlet|LXLX|1.1 Singlet>     0.090870697061
 !MCSCF expec      <2.1 Singlet|LXLX|2.1 Singlet>     0.999999999887
 !MCSCF expec      <3.1 Singlet|LXLX|3.1 Singlet>     0.999999999999
 !MCSCF expec      <4.1 Singlet|LXLX|4.1 Singlet>     3.999999999996
 !MCSCF expec      <5.1 Singlet|LXLX|5.1 Singlet>     3.909129451581
 !MCSCF expec      <6.1 Singlet|LXLX|6.1 Singlet>     0.000000000001
 !MCSCF expec      <7.1 Singlet|LXLX|7.1 Singlet>     0.999999999993
 !MCSCF expec      <8.1 Singlet|LXLX|8.1 Singlet>     0.999999999988
 !MCSCF expec      <9.1 Singlet|LXLX|9.1 Singlet>     0.000000000012
 !MCSCF expec    <10.1 Singlet|LXLX|10.1 Singlet>     3.813657074028
 !MCSCF expec    <11.1 Singlet|LXLX|11.1 Singlet>     3.999999999968
 !MCSCF expec    <12.1 Singlet|LXLX|12.1 Singlet>     1.000000008956
 !MCSCF expec    <13.1 Singlet|LXLX|13.1 Singlet>     0.999999998503
 !MCSCF expec    <14.1 Singlet|LXLX|14.1 Singlet>     0.186327742386
 !MCSCF expec    <15.1 Singlet|LXLX|15.1 Singlet>     0.000000000007
 
 !MCSCF expec      <1.1 Triplet|LYLY|1.1 Triplet>     0.000000000029
 !MCSCF expec      <2.1 Triplet|LYLY|2.1 Triplet>     0.999999999925
 !MCSCF expec      <3.1 Triplet|LYLY|3.1 Triplet>     1.000000000000
 !MCSCF expec      <4.1 Triplet|LYLY|4.1 Triplet>     0.422705027659
 !MCSCF expec      <5.1 Triplet|LYLY|5.1 Triplet>     0.999999999994
 !MCSCF expec      <6.1 Triplet|LYLY|6.1 Triplet>     1.000000149633
 !MCSCF expec      <7.1 Triplet|LYLY|7.1 Triplet>     3.999999943677
 !MCSCF expec      <8.1 Triplet|LYLY|8.1 Triplet>     3.577261430600
 !MCSCF expec      <9.1 Triplet|LYLY|9.1 Triplet>     0.999999999994
 !MCSCF expec    <10.1 Triplet|LYLY|10.1 Triplet>     0.999999996445
 !MCSCF expec    <11.1 Triplet|LYLY|11.1 Triplet>     0.000000001721
 !MCSCF expec    <12.1 Triplet|LYLY|12.1 Triplet>     0.000000000008
 !MCSCF expec      <1.1 Singlet|LYLY|1.1 Singlet>     3.470722552186
 !MCSCF expec      <2.1 Singlet|LYLY|2.1 Singlet>     3.999999999901
 !MCSCF expec      <3.1 Singlet|LYLY|3.1 Singlet>     1.000000000200
 !MCSCF expec      <4.1 Singlet|LYLY|4.1 Singlet>     0.999999999999
 !MCSCF expec      <5.1 Singlet|LYLY|5.1 Singlet>     0.529277785820
 !MCSCF expec      <6.1 Singlet|LYLY|6.1 Singlet>     0.000000000001
 !MCSCF expec      <7.1 Singlet|LYLY|7.1 Singlet>     0.000000013687
 !MCSCF expec      <8.1 Singlet|LYLY|8.1 Singlet>     0.999999996077
 !MCSCF expec      <9.1 Singlet|LYLY|9.1 Singlet>     0.999999999994
 !MCSCF expec    <10.1 Singlet|LYLY|10.1 Singlet>     0.363112565672
 !MCSCF expec    <11.1 Singlet|LYLY|11.1 Singlet>     0.999999999995
 !MCSCF expec    <12.1 Singlet|LYLY|12.1 Singlet>     0.999999997077
 !MCSCF expec    <13.1 Singlet|LYLY|13.1 Singlet>     3.999999996515
 !MCSCF expec    <14.1 Singlet|LYLY|14.1 Singlet>     3.636866748035
 !MCSCF expec    <15.1 Singlet|LYLY|15.1 Singlet>     0.000000000007
 
 !MCSCF expec      <1.1 Triplet|LZLZ|1.1 Triplet>     0.999999999971
 !MCSCF expec      <2.1 Triplet|LZLZ|2.1 Triplet>     0.000000000076
 !MCSCF expec      <3.1 Triplet|LZLZ|3.1 Triplet>     1.000000000000
 !MCSCF expec      <4.1 Triplet|LZLZ|4.1 Triplet>     1.723703632858
 !MCSCF expec      <5.1 Triplet|LZLZ|5.1 Triplet>     0.999999999994
 !MCSCF expec      <6.1 Triplet|LZLZ|6.1 Triplet>     3.999999850382
 !MCSCF expec      <7.1 Triplet|LZLZ|7.1 Triplet>     1.000000062125
 !MCSCF expec      <8.1 Triplet|LZLZ|8.1 Triplet>     2.276350382603
 !MCSCF expec      <9.1 Triplet|LZLZ|9.1 Triplet>     0.999999999994
 !MCSCF expec    <10.1 Triplet|LZLZ|10.1 Triplet>     0.000000003560
 !MCSCF expec    <11.1 Triplet|LZLZ|11.1 Triplet>     0.999999998285
 !MCSCF expec    <12.1 Triplet|LZLZ|12.1 Triplet>     0.000000000008
 !MCSCF expec      <1.1 Singlet|LZLZ|1.1 Singlet>     2.438406750747
 !MCSCF expec      <2.1 Singlet|LZLZ|2.1 Singlet>     1.000000000207
 !MCSCF expec      <3.1 Singlet|LZLZ|3.1 Singlet>     3.999999999796
 !MCSCF expec      <4.1 Singlet|LZLZ|4.1 Singlet>     0.999999999999
 !MCSCF expec      <5.1 Singlet|LZLZ|5.1 Singlet>     1.561592762593
 !MCSCF expec      <6.1 Singlet|LZLZ|6.1 Singlet>     0.000000000001
 !MCSCF expec      <7.1 Singlet|LZLZ|7.1 Singlet>     0.999999986319
 !MCSCF expec      <8.1 Singlet|LZLZ|8.1 Singlet>     0.000000003934
 !MCSCF expec      <9.1 Singlet|LZLZ|9.1 Singlet>     0.999999999994
 !MCSCF expec    <10.1 Singlet|LZLZ|10.1 Singlet>     1.823230360258
 !MCSCF expec    <11.1 Singlet|LZLZ|11.1 Singlet>     0.999999999995
 !MCSCF expec    <12.1 Singlet|LZLZ|12.1 Singlet>     3.999999993924
 !MCSCF expec    <13.1 Singlet|LZLZ|13.1 Singlet>     1.000000004939
 !MCSCF expec    <14.1 Singlet|LZLZ|14.1 Singlet>     2.176805509536
 !MCSCF expec    <15.1 Singlet|LZLZ|15.1 Singlet>     0.000000000007
 
 !MCSCF expec      <1.1 Triplet|L**2|1.1 Triplet>     2.000000000000
 !MCSCF expec      <2.1 Triplet|L**2|2.1 Triplet>     2.000000000000
 !MCSCF expec      <3.1 Triplet|L**2|3.1 Triplet>     2.000000000000
 !MCSCF expec      <4.1 Triplet|L**2|4.1 Triplet>     5.999999999951
 !MCSCF expec      <5.1 Triplet|L**2|5.1 Triplet>     5.999999999951
 !MCSCF expec      <6.1 Triplet|L**2|6.1 Triplet>     5.999999999951
 !MCSCF expec      <7.1 Triplet|L**2|7.1 Triplet>     5.999999999951
 !MCSCF expec      <8.1 Triplet|L**2|8.1 Triplet>     5.999999999951
 !MCSCF expec      <9.1 Triplet|L**2|9.1 Triplet>     2.000000000000
 !MCSCF expec    <10.1 Triplet|L**2|10.1 Triplet>     2.000000000000
 !MCSCF expec    <11.1 Triplet|L**2|11.1 Triplet>     2.000000000000
 !MCSCF expec    <12.1 Triplet|L**2|12.1 Triplet>     0.000000000024
 !MCSCF expec      <1.1 Singlet|L**2|1.1 Singlet>     5.999999999994
 !MCSCF expec      <2.1 Singlet|L**2|2.1 Singlet>     5.999999999994
 !MCSCF expec      <3.1 Singlet|L**2|3.1 Singlet>     5.999999999994
 !MCSCF expec      <4.1 Singlet|L**2|4.1 Singlet>     5.999999999994
 !MCSCF expec      <5.1 Singlet|L**2|5.1 Singlet>     5.999999999994
 !MCSCF expec      <6.1 Singlet|L**2|6.1 Singlet>     0.000000000004
 !MCSCF expec      <7.1 Singlet|L**2|7.1 Singlet>     2.000000000000
 !MCSCF expec      <8.1 Singlet|L**2|8.1 Singlet>     2.000000000000
 !MCSCF expec      <9.1 Singlet|L**2|9.1 Singlet>     2.000000000000
 !MCSCF expec    <10.1 Singlet|L**2|10.1 Singlet>     5.999999999957
 !MCSCF expec    <11.1 Singlet|L**2|11.1 Singlet>     5.999999999957
 !MCSCF expec    <12.1 Singlet|L**2|12.1 Singlet>     5.999999999957
 !MCSCF expec    <13.1 Singlet|L**2|13.1 Singlet>     5.999999999957
 !MCSCF expec    <14.1 Singlet|L**2|14.1 Singlet>     5.999999999957
 !MCSCF expec    <15.1 Singlet|L**2|15.1 Singlet>     0.000000000020
 
 EXTRA SYMMETRY OF MOS IN SYMMETRY 1:   1 2 4 6 3 5 1 1 2 4   6 3 5 1 2 4 6 3 5 1   2 4 6 5 3 2 4 6 5 3   7 911 81214151310 1
                                        2 4 6 5 3 7 911 812  14151310 1 2 4 6 5 3   7 911 81214151310 1   2 4 6 3 5 7 911 812
                                       14151310 1 4 6 3 5 2   1 1
 EXTRA SYMMETRY OF MOS IN SYMMETRY 2:   3 1 2 2 1 3 2 1 3 3   1 2 6 4 5 810 9 7 3   1 2 6 4 5 810 9 7 3   1 2 6 4 5 810 7 9 6
                                        4 5 810 9 7 3 1 2 6   4 5 810 9 7 3 1 211  19122113141615171820   6 4 510 8 9 7 3 1 2
                                        6 4 5 810 7 9 3 1 2   3 1 2
 
  NATURAL ORBITALS (STATE AVERAGED)
  =================================

  Orbital  Occupation    Energy    Cen Mu Typ  Coefficients
    1.1     2.00000    -5.97897     1  1  s    0.99996
    2.1     2.00000    -1.42835     1  1  d0   1.00090
    3.1     2.00000    -1.42835     1  1  d1+  1.00090
    4.1     2.00000    -1.42835     1  1  d1- -1.00090
    5.1     2.00000    -1.42835     1  1  d2-  1.00090
    6.1     2.00000    -1.42835     1  1  d2+  1.00090
    7.1     1.95374    -0.59796     1  1  s   -0.37098    1  4  s    0.51613    1  5  s    0.65859
    1.2     2.00000    -4.16464     1  1  pz   0.99992
    2.2     2.00000    -4.16464     1  1  px   0.99992
    3.2     2.00000    -4.16464     1  1  py   0.99992
    4.2     0.45972    -0.12396     1  1  py  -0.27807    1  4  py   0.49393    1  5  py   0.44861
    5.2     0.45972    -0.12396     1  1  px  -0.27807    1  4  px   0.49393    1  5  px   0.44861
    6.2     0.45972    -0.12396     1  1  pz  -0.27807    1  4  pz   0.49393    1  5  pz   0.44861
    7.2     0.22237     0.01269     1 10  py   0.86940    1 11  py   0.27152
    8.2     0.22237     0.01269     1 10  px   0.86940    1 11  px   0.27152
    9.2     0.22237     0.01269     1 10  pz   0.86940    1 11  pz   0.27152
 
 Natural orbital dump (state averaged) at molpro section 2140.2 (Orbital set 2)
 
 Transform the CI vectors
 
 CI Coefficients of symmetry 1 (Triplet)
 =======================================

 State:              1               2               3               4               5               6               7
 2 0aa000       0.98313779     -0.00000525      0.00000001      0.00000000     -0.00000000      0.00000000      0.00000024
 2 a0a000      -0.00000001     -0.00000002      0.98313779     -0.00000000      0.00000026     -0.00000000     -0.00000000
 2 aa0000       0.00000525      0.98313776      0.00000002     -0.00000000     -0.00000000      0.00000002     -0.00000000
 2 0a00a0       0.00000000      0.00000000      0.00000000     -0.15424773     -0.00000031     -0.00005522      0.00006864
 2 a00a00      -0.00000000      0.00000000     -0.00000000      0.76245250      0.00000153      0.00005095     -0.00003379
 2 a0000a      -0.00000000     -0.00000000      0.09416117     -0.00000140      0.69822604     -0.00000000      0.00000000
 2 00aa00       0.00000000      0.00000000     -0.09416154     -0.00000140      0.69822604      0.00000000      0.00000000
 2 a000a0       0.00000050      0.09416151      0.00000000     -0.00003206     -0.00000000      0.69822603     -0.00014935
 2 00a0a0      -0.09416151      0.00000050     -0.00000000      0.00001085      0.00000000      0.00014935      0.69822603
 2 0a000a       0.09416117     -0.00000050      0.00000000      0.00001085      0.00000000      0.00014935      0.69822602
 2 0a0a00      -0.00000050     -0.09416154     -0.00000000     -0.00003206     -0.00000000      0.69822601     -0.00014935
 2 00a00a       0.00000000     -0.00000000      0.00000000     -0.60820476     -0.00000122      0.00000427     -0.00003485
 0 2aa000      -0.12067801      0.00000064     -0.00000000     -0.00000000      0.00000000     -0.00000000     -0.00000003
 0 a2a000       0.00000000      0.00000000     -0.12067800      0.00000000     -0.00000003      0.00000000     -0.00000000
 0 aa2000      -0.00000064     -0.12067799     -0.00000000      0.00000000      0.00000000     -0.00000000      0.00000000
 0 2a00a0      -0.00000000     -0.00000000      0.00000000      0.01683268      0.00000003      0.00000618     -0.00000771
 0 0a20a0      -0.00000000     -0.00000000      0.00000000      0.01781094      0.00000004      0.00000622     -0.00000771
 0 a20a00       0.00000000     -0.00000000     -0.00000000     -0.08578437     -0.00000017     -0.00000570      0.00000376
 0 a02a00       0.00000000     -0.00000000      0.00000000     -0.08546037     -0.00000017     -0.00000574      0.00000383
 0 a2000a       0.00000000      0.00000000     -0.00982319      0.00000016     -0.07865900      0.00000000     -0.00000000
 0 20a0a0       0.00982323     -0.00000005      0.00000000     -0.00000122     -0.00000000     -0.00001683     -0.07865900
 0 02aa00      -0.00000000     -0.00000000      0.00982323      0.00000016     -0.07865900     -0.00000000     -0.00000000
 0 2a000a      -0.00982319      0.00000005     -0.00000000     -0.00000122     -0.00000000     -0.00001683     -0.07865900
 0 a020a0      -0.00000005     -0.00982323     -0.00000000      0.00000361      0.00000000     -0.07865899      0.00001682
 0 0a2a00       0.00000005      0.00982323      0.00000000      0.00000361      0.00000000     -0.07865899      0.00001682
 0 a200a0      -0.00000010     -0.01931947     -0.00000000      0.00000359      0.00000000     -0.07816066      0.00001672
[...]
 13  1     1    1  |1 0>          0.00%    0.00%    0.01%    0.00%    0.00%    0.00%    0.00%    0.00%
 14  1     2    1  |1 0>          0.00%    0.00%    0.00%    0.00%    0.00%    0.00%    0.00%    0.00%
 15  1     3    1  |1 0>          0.00%    0.00%    0.00%    0.00%    0.00%    0.00%    0.00%    0.00%
 16  1     4    1  |1 0>         42.87%    0.21%    0.00%    0.00%    0.00%    0.00%    0.00%    0.00%
 17  1     5    1  |1 0>          0.00%    0.00%    0.00%    0.00%    0.00%    2.84%    0.00%    0.00%
 18  1     6    1  |1 0>          0.00%    0.00%    0.00%    5.43%    0.00%    0.00%    0.00%    0.54%
 19  1     7    1  |1 0>          0.00%    0.00%    0.00%    0.00%    0.00%    4.40%    0.00%    0.00%
 20  1     8    1  |1 0>          0.00%    0.00%    0.00%    0.00%    5.43%    0.00%    3.95%    0.00%
 21  1     9    1  |1 0>          0.05%   10.75%   28.89%    0.00%    0.00%    0.00%    0.00%    0.00%
 22  1    10    1  |1 0>          0.00%    0.00%    0.00%   15.68%    0.00%    0.00%    0.00%    0.00%
 23  1    11    1  |1 0>          0.00%    0.00%    0.00%    0.00%   15.68%    0.00%    0.00%    0.00%
 24  1    12    1  |1 0>          0.00%    0.00%    0.00%    0.00%    0.00%    2.91%    0.00%    0.00%
 25  1     1    1  |1 1>-         0.00%    0.00%    0.00%    0.00%    0.00%    0.00%    0.00%    0.00%
 26  1     2    1  |1 1>-         0.00%    0.00%    0.00%    0.00%    0.00%    0.00%    0.00%    0.00%
 27  1     3    1  |1 1>-         0.00%    0.00%    0.01%    0.00%    0.00%    0.00%    0.00%    0.00%
 28  1     4    1  |1 1>-         0.00%    0.00%    0.00%    0.00%    5.43%    0.00%   53.30%    0.00%
 29  1     5    1  |1 1>-         0.00%    0.00%    0.00%    7.07%    0.00%    0.00%    0.00%   36.28%
 30  1     6    1  |1 1>-         0.00%    0.00%    0.00%    0.00%    0.00%    5.43%    0.00%    0.00%
 31  1     7    1  |1 1>-         0.00%    0.00%    0.00%    0.17%    0.00%    0.00%    0.00%   16.23%
 32  1     8    1  |1 1>-         8.25%   34.84%    0.00%    0.00%    0.00%    0.00%    0.00%    0.00%
 33  1     9    1  |1 1>-         0.00%    0.00%    0.00%    0.00%   15.68%    0.00%    0.00%    0.00%
 34  1    10    1  |1 1>-         0.00%    0.00%    0.00%    0.00%    0.00%   15.68%    0.00%    0.00%
 35  1    11    1  |1 1>-         8.73%    2.07%   28.89%    0.00%    0.00%    0.00%    0.00%    0.00%
 36  1    12    1  |1 1>-         0.00%    0.00%    0.00%    2.91%    0.00%    0.00%    0.00%    0.00%
 37  1     1    1  |0 0>          0.00%    0.00%    0.00%    0.00%    0.00%    0.00%    0.00%    0.00%
 38  1     2    1  |0 0>          0.00%    0.00%    0.00%    0.00%    0.00%    0.00%    0.00%    0.00%
 39  1     3    1  |0 0>          0.00%    0.00%    0.00%    0.00%    0.00%    0.00%    0.00%    0.00%
 40  1     4    1  |0 0>          0.00%    0.01%    0.00%    0.00%    0.00%    0.00%    0.00%    0.00%
 41  1     5    1  |0 0>          0.01%    0.00%    0.00%    0.00%    0.00%    0.00%    0.00%    0.00%
 42  1     6    1  |0 0>          0.00%    0.00%    0.02%    0.00%    0.00%    0.00%    0.00%    0.00%
 43  1     7    1  |0 0>          0.00%    0.00%    0.00%    0.00%   47.62%    0.00%    0.00%    0.00%
 44  1     8    1  |0 0>          0.00%    0.00%    0.00%   47.62%    0.00%    0.00%    0.00%    0.00%
 45  1     9    1  |0 0>          0.00%    0.00%    0.00%    0.00%    0.00%   47.62%    0.00%    0.00%
 46  1    10    1  |0 0>          0.00%    0.00%    0.00%    0.00%    0.00%    0.00%    0.00%    0.00%
 47  1    11    1  |0 0>          0.00%    0.00%    0.00%    0.00%    0.00%    0.00%    0.00%    0.00%
 48  1    12    1  |0 0>          0.00%    0.00%    0.00%    0.00%    0.00%    0.00%    0.00%    0.00%
 49  1    13    1  |0 0>          2.00%   17.15%    0.00%    0.00%    0.00%    0.00%    0.00%    0.00%
 50  1    14    1  |0 0>         17.15%    2.00%    0.00%    0.00%    0.00%    0.00%    0.00%    0.00%
 51  1    15    1  |0 0>          0.00%    0.00%   13.29%    0.00%    0.00%    0.00%    0.00%    0.00%

   Total
 Nr Sym  State Sym Spin / Nr.     33       34       35       36       37       38       39       40

  1  1     1    1  |1 1>+         0.00%    0.00%    0.00%    0.00%    0.00%    0.00%    0.00%    0.00%
  2  1     2    1  |1 1>+         0.00%    0.00%    0.00%    0.00%    0.00%    0.00%    0.00%    0.00%
  3  1     3    1  |1 1>+         0.00%    0.00%    0.00%    0.00%    0.00%    0.00%    0.00%    0.00%
  4  1     4    1  |1 1>+         0.00%    0.00%    6.38%    0.00%    0.00%    0.00%    4.94%    0.00%
  5  1     5    1  |1 1>+         0.00%    0.00%    0.00%    0.89%    0.00%   17.18%    0.00%    0.00%
  6  1     6    1  |1 1>+        33.33%    0.00%    0.00%    0.00%    0.00%    0.00%    0.00%   12.01%
  7  1     7    1  |1 1>+         0.00%    0.00%    0.00%   49.69%    0.00%    2.58%    0.00%    0.00%
  8  1     8    1  |1 1>+         0.00%    0.23%    0.00%    0.00%   53.10%    0.00%    0.00%    0.00%
  9  1     9    1  |1 1>+         0.00%    0.00%    0.00%    0.00%    0.00%    0.00%   31.50%    0.00%
 10  1    10    1  |1 1>+         0.00%    0.00%    0.00%    0.00%    0.00%    0.00%    0.00%   16.47%
 11  1    11    1  |1 1>+         0.00%    0.00%    0.00%    0.00%    0.00%    0.00%    0.00%    0.00%
 12  1    12    1  |1 1>+         0.00%    0.00%    0.00%    0.00%    0.00%    0.00%    0.00%    0.00%
 13  1     1    1  |1 0>          0.00%    0.00%    0.00%    0.00%    0.00%    0.00%    0.00%    0.00%
 14  1     2    1  |1 0>          0.00%    0.00%    0.00%    0.00%    0.00%    0.00%    0.00%    0.00%
 15  1     3    1  |1 0>          0.00%    0.00%    0.00%    0.00%    0.00%    0.00%    0.00%    0.00%
 16  1     4    1  |1 0>         33.34%    0.00%    0.00%    0.00%    0.00%    0.00%    0.00%    0.46%
 17  1     5    1  |1 0>          0.00%   43.78%    0.00%    0.00%    0.02%    0.00%    0.00%    0.00%
 18  1     6    1  |1 0>          0.00%    0.00%   52.80%    0.00%    0.00%    0.00%    4.94%    0.00%
 19  1     7    1  |1 0>          0.00%    4.49%    0.00%    0.00%   45.04%    0.00%    0.00%    0.00%
 20  1     8    1  |1 0>          0.00%    0.00%    0.00%   49.39%    0.00%    4.94%    0.00%    0.00%
 21  1     9    1  |1 0>          0.00%    0.00%    0.00%    0.00%    0.00%    0.00%    0.00%   41.03%
 22  1    10    1  |1 0>          0.00%    0.00%    0.00%    0.00%    0.00%    0.00%   31.50%    0.00%
 23  1    11    1  |1 0>          0.00%    0.00%    0.00%    0.00%    0.00%   31.50%    0.00%    0.00%
 24  1    12    1  |1 0>          0.00%    0.00%    0.00%    0.00%    0.00%    0.00%    0.00%    0.00%
 25  1     1    1  |1 1>-         0.00%    0.00%    0.00%    0.00%    0.00%    0.00%    0.00%    0.00%
 26  1     2    1  |1 1>-         0.00%    0.00%    0.00%    0.00%    0.00%    0.00%    0.00%    0.00%
 27  1     3    1  |1 1>-         0.00%    0.00%    0.00%    0.00%    0.00%    0.00%    0.00%    0.00%
 28  1     4    1  |1 1>-         0.00%    0.00%    0.00%    0.03%    0.00%    4.94%    0.00%    0.00%
 29  1     5    1  |1 1>-         0.00%    0.00%   23.10%    0.00%    0.00%    0.00%    0.46%    0.00%
 30  1     6    1  |1 1>-         0.00%   51.49%    0.00%    0.00%    1.84%    0.00%    0.00%    0.00%
 31  1     7    1  |1 1>-         0.00%    0.00%   17.72%    0.00%    0.00%    0.00%   19.30%    0.00%
 32  1     8    1  |1 1>-        33.33%    0.00%    0.00%    0.00%    0.00%    0.00%    0.00%   17.17%
 33  1     9    1  |1 1>-         0.00%    0.00%    0.00%    0.00%    0.00%   31.50%    0.00%    0.00%
 34  1    10    1  |1 1>-         0.00%    0.00%    0.00%    0.00%    0.00%    0.00%    0.00%    0.00%
 35  1    11    1  |1 1>-         0.00%    0.00%    0.00%    0.00%    0.00%    0.00%    0.00%    5.50%
 36  1    12    1  |1 1>-         0.00%    0.00%    0.00%    0.00%    0.00%    0.00%    0.00%    0.00%
 37  1     1    1  |0 0>          0.00%    0.00%    0.00%    0.00%    0.00%    0.02%    0.00%    0.00%
 38  1     2    1  |0 0>          0.00%    0.00%    0.00%    0.00%    0.00%    0.00%    0.02%    0.00%
 39  1     3    1  |0 0>          0.00%    0.00%    0.00%    0.00%    0.00%    0.00%    0.00%    0.00%
 40  1     4    1  |0 0>          0.00%    0.00%    0.00%    0.00%    0.00%    0.00%    0.00%    0.02%
 41  1     5    1  |0 0>          0.00%    0.00%    0.00%    0.00%    0.00%    0.00%    0.00%    0.00%
 42  1     6    1  |0 0>          0.00%    0.00%    0.00%    0.00%    0.00%    0.00%    0.00%    0.00%
 43  1     7    1  |0 0>          0.00%    0.00%    0.00%    0.00%    0.00%    0.00%    0.00%    0.00%
 44  1     8    1  |0 0>          0.00%    0.00%    0.00%    0.00%    0.00%    0.00%    0.00%    0.00%
 45  1     9    1  |0 0>          0.00%    0.00%    0.00%    0.00%    0.00%    0.00%    0.00%    0.00%
 46  1    10    1  |0 0>          0.00%    0.00%    0.00%    0.00%    0.00%    7.33%    0.00%    0.00%
 47  1    11    1  |0 0>          0.00%    0.00%    0.00%    0.00%    0.00%    0.00%    7.33%    0.00%
 48  1    12    1  |0 0>          0.00%    0.00%    0.00%    0.00%    0.00%    0.00%    0.00%    0.00%
 49  1    13    1  |0 0>          0.00%    0.00%    0.00%    0.00%    0.00%    0.00%    0.00%    6.15%
 50  1    14    1  |0 0>          0.00%    0.00%    0.00%    0.00%    0.00%    0.00%    0.00%    1.17%
 51  1    15    1  |0 0>          0.00%    0.00%    0.00%    0.00%    0.00%    0.00%    0.00%    0.00%

   Total
 Nr Sym  State Sym Spin / Nr.     41       42       43       44       45       46       47       48

  1  1     1    1  |1 1>+         0.00%    0.00%    0.01%    0.00%    0.00%    0.00%    0.01%    0.00%
  2  1     2    1  |1 1>+         0.00%    0.00%    0.00%    0.00%    0.00%    0.00%    0.00%    0.00%
  3  1     3    1  |1 1>+         0.00%    0.00%    0.00%    0.00%    0.01%    0.00%    0.00%    0.01%
  4  1     4    1  |1 1>+         0.00%    0.00%    0.03%    0.00%    0.00%    0.00%    0.95%    0.00%
  5  1     5    1  |1 1>+         0.00%    0.00%    0.00%    0.01%    0.00%    3.29%    0.00%    0.00%
  6  1     6    1  |1 1>+         0.00%    7.75%    0.00%    0.00%    0.00%    0.00%    0.00%    0.00%
  7  1     7    1  |1 1>+         0.00%    0.00%    0.00%    0.04%    0.00%    0.50%    0.00%    0.00%
  8  1     8    1  |1 1>+         4.94%    0.00%    0.00%    0.00%    0.03%    0.00%    0.00%    0.95%
  9  1     9    1  |1 1>+         0.00%    0.00%   10.92%    0.00%    0.00%    0.00%   10.40%    0.00%
 10  1    10    1  |1 1>+         0.00%   25.53%    0.00%    0.00%    0.00%    0.00%    0.00%    0.00%
 11  1    11    1  |1 1>+        31.50%    0.00%    0.00%    0.00%   10.92%    0.00%    0.00%   10.40%
 12  1    12    1  |1 1>+         0.00%    0.00%    0.00%   74.59%    0.00%    0.00%    0.00%    0.00%
 13  1     1    1  |1 0>          0.00%    0.00%    0.00%    0.00%    0.00%    0.00%    0.00%    0.00%
 14  1     2    1  |1 0>          0.00%    0.00%    0.01%    0.00%    0.00%    0.00%    0.01%    0.00%
 15  1     3    1  |1 0>          0.00%    0.00%    0.00%    0.01%    0.00%    0.01%    0.00%    0.00%
 16  1     4    1  |1 0>          0.00%   19.30%    0.00%    0.00%    0.00%    0.00%    0.00%    0.00%
 17  1     5    1  |1 0>         12.00%    0.00%    0.00%    0.00%    0.02%    0.00%    0.00%    2.30%
 18  1     6    1  |1 0>          0.00%    0.00%    0.03%    0.00%    0.00%    0.00%    0.95%    0.00%
 19  1     7    1  |1 0>          7.76%    0.00%    0.00%    0.00%    0.03%    0.00%    0.00%    1.49%
 20  1     8    1  |1 0>          0.00%    0.00%    0.00%    0.03%    0.00%    0.95%    0.00%    0.00%
 21  1     9    1  |1 0>          0.00%    0.98%    0.00%    0.00%    0.00%    0.00%    0.00%    0.00%
 22  1    10    1  |1 0>          0.00%    0.00%   10.92%    0.00%    0.00%    0.00%   10.40%    0.00%
 23  1    11    1  |1 0>          0.00%    0.00%    0.00%   10.92%    0.00%   10.40%    0.00%    0.00%
 24  1    12    1  |1 0>          0.00%    0.00%    0.00%    0.00%   74.59%    0.00%    0.00%    0.00%
 25  1     1    1  |1 1>-         0.00%    0.00%    0.00%    0.01%    0.00%    0.01%    0.00%    0.00%
 26  1     2    1  |1 1>-         0.00%    0.00%    0.00%    0.00%    0.01%    0.00%    0.00%    0.01%
 27  1     3    1  |1 1>-         0.00%    0.00%    0.00%    0.00%    0.00%    0.00%    0.00%    0.00%
 28  1     4    1  |1 1>-         0.00%    0.00%    0.00%    0.03%    0.00%    0.95%    0.00%    0.00%
 29  1     5    1  |1 1>-         0.00%    0.00%    0.04%    0.00%    0.00%    0.00%    0.09%    0.00%
 30  1     6    1  |1 1>-         4.94%    0.00%    0.00%    0.00%    0.03%    0.00%    0.00%    0.95%
 31  1     7    1  |1 1>-         0.00%    0.00%    0.00%    0.00%    0.00%    0.00%    3.70%    0.00%
 32  1     8    1  |1 1>-         0.00%    2.59%    0.00%    0.00%    0.00%    0.00%    0.00%    0.00%
 33  1     9    1  |1 1>-         0.00%    0.00%    0.00%   10.92%    0.00%   10.40%    0.00%    0.00%
 34  1    10    1  |1 1>-        31.50%    0.00%    0.00%    0.00%   10.92%    0.00%    0.00%   10.40%
 35  1    11    1  |1 1>-         0.00%   36.50%    0.00%    0.00%    0.00%    0.00%    0.00%    0.00%
 36  1    12    1  |1 1>-         0.00%    0.00%   74.59%    0.00%    0.00%    0.00%    0.00%    0.00%
 37  1     1    1  |0 0>          0.00%    0.00%    0.00%    0.00%    0.00%    0.00%    0.00%    0.00%
 38  1     2    1  |0 0>          0.00%    0.00%    0.00%    0.00%    0.00%    0.00%    0.00%    0.00%
 39  1     3    1  |0 0>          0.02%    0.00%    0.00%    0.00%    0.00%    0.00%    0.00%    0.00%
 40  1     4    1  |0 0>          0.00%    0.00%    0.00%    0.00%    0.00%    0.00%    0.00%    0.00%
 41  1     5    1  |0 0>          0.00%    0.02%    0.00%    0.00%    0.00%    0.00%    0.00%    0.00%
 42  1     6    1  |0 0>          0.00%    0.00%    0.00%    0.00%    0.00%    0.00%    0.00%    0.00%
 43  1     7    1  |0 0>          0.00%    0.00%    0.00%    3.45%    0.00%    0.00%    0.00%    0.00%
 44  1     8    1  |0 0>          0.00%    0.00%    3.45%    0.00%    0.00%    0.00%    0.00%    0.00%
 45  1     9    1  |0 0>          0.00%    0.00%    0.00%    0.00%    3.45%    0.00%    0.00%    0.00%
 46  1    10    1  |0 0>          0.00%    0.00%    0.00%    0.00%    0.00%   73.51%    0.00%    0.00%
 47  1    11    1  |0 0>          0.00%    0.00%    0.00%    0.00%    0.00%    0.00%   73.51%    0.00%
 48  1    12    1  |0 0>          7.33%    0.00%    0.00%    0.00%    0.00%    0.00%    0.00%   73.51%
 49  1    13    1  |0 0>          0.00%    1.17%    0.00%    0.00%    0.00%    0.00%    0.00%    0.00%
 50  1    14    1  |0 0>          0.00%    6.15%    0.00%    0.00%    0.00%    0.00%    0.00%    0.00%
 51  1    15    1  |0 0>          0.00%    0.00%    0.00%    0.00%    0.00%    0.00%    0.00%    0.00%

   Total
 Nr Sym  State Sym Spin / Nr.     49       50       51

  1  1     1    1  |1 1>+         0.00%    0.00%    0.00%
  2  1     2    1  |1 1>+         0.00%    0.01%    0.01%
  3  1     3    1  |1 1>+         0.00%    0.00%    0.00%
  4  1     4    1  |1 1>+         0.00%    0.00%    0.00%
  5  1     5    1  |1 1>+         0.00%    0.00%    0.00%
  6  1     6    1  |1 1>+         3.31%    0.48%    0.00%
  7  1     7    1  |1 1>+         0.00%    0.00%    0.00%
  8  1     8    1  |1 1>+         0.00%    0.00%    0.00%
  9  1     9    1  |1 1>+         0.00%    0.00%    0.00%
 10  1    10    1  |1 1>+         1.74%   12.12%    4.44%
 11  1    11    1  |1 1>+         0.00%    0.00%    0.00%
 12  1    12    1  |1 1>+         0.00%    0.00%    0.00%
 13  1     1    1  |1 0>          0.01%    0.00%    0.01%
 14  1     2    1  |1 0>          0.00%    0.00%    0.00%
 15  1     3    1  |1 0>          0.00%    0.00%    0.00%
 16  1     4    1  |1 0>          0.10%    3.69%    0.00%
 17  1     5    1  |1 0>          0.00%    0.00%    0.00%
 18  1     6    1  |1 0>          0.00%    0.00%    0.00%
 19  1     7    1  |1 0>          0.00%    0.00%    0.00%
 20  1     8    1  |1 0>          0.00%    0.00%    0.00%
 21  1     9    1  |1 0>         13.50%    0.36%    4.44%
 22  1    10    1  |1 0>          0.00%    0.00%    0.00%
 23  1    11    1  |1 0>          0.00%    0.00%    0.00%
 24  1    12    1  |1 0>          0.00%    0.00%    0.00%
 25  1     1    1  |1 1>-         0.00%    0.00%    0.00%
 26  1     2    1  |1 1>-         0.00%    0.00%    0.00%
 27  1     3    1  |1 1>-         0.00%    0.01%    0.01%
 28  1     4    1  |1 1>-         0.00%    0.00%    0.00%
 29  1     5    1  |1 1>-         0.00%    0.00%    0.00%
 30  1     6    1  |1 1>-         0.00%    0.00%    0.00%
 31  1     7    1  |1 1>-         0.00%    0.00%    0.00%
 32  1     8    1  |1 1>-         2.27%    1.52%    0.00%
 33  1     9    1  |1 1>-         0.00%    0.00%    0.00%
 34  1    10    1  |1 1>-         0.00%    0.00%    0.00%
 35  1    11    1  |1 1>-         5.55%    8.31%    4.44%
 36  1    12    1  |1 1>-         0.00%    0.00%    0.00%
 37  1     1    1  |0 0>          0.00%    0.00%    0.00%
 38  1     2    1  |0 0>          0.00%    0.00%    0.00%
 39  1     3    1  |0 0>          0.00%    0.00%    0.00%
 40  1     4    1  |0 0>          0.00%    0.00%    0.00%
 41  1     5    1  |0 0>          0.00%    0.00%    0.00%
 42  1     6    1  |0 0>          0.00%    0.00%    0.00%
 43  1     7    1  |0 0>          0.00%    0.00%    0.00%
 44  1     8    1  |0 0>          0.00%    0.00%    0.00%
 45  1     9    1  |0 0>          0.00%    0.00%    0.00%
 46  1    10    1  |0 0>          0.00%    0.00%    0.00%
 47  1    11    1  |0 0>          0.00%    0.00%    0.00%
 48  1    12    1  |0 0>          0.00%    0.00%    0.00%
 49  1    13    1  |0 0>         72.82%    0.69%    0.00%
 50  1    14    1  |0 0>          0.69%   72.82%    0.00%
 51  1    15    1  |0 0>          0.00%    0.00%   86.67%


 No matrix element <i|DMX|i> larger than 5E-7
 No matrix element <i|DMX|1> larger than 5E-7

 No matrix element <i|DMY|i> larger than 5E-7
 No matrix element <i|DMY|1> larger than 5E-7

 No matrix element <i|DMZ|i> larger than 5E-7
 No matrix element <i|DMZ|1> larger than 5E-7


 **********************************************************************************************************************************
 DATASETS  * FILE   NREC   LENGTH (MB)   RECORD NAMES
              1      21       57.06       500      610      700      900      950      970     1000      129      960     1100   
                                          VAR    BASINP    GEOM    SYMINP    ZMAT    AOBASIS   BASIS     P2S    ABASIS      S 
                                         1400     1410     1420     1200     1210     1080     1700     1600     1650     1380   
                                           T        V       ECP      H0       H01     AOSYM    OPER      SMH    MOLCAS    JKOP   
                                         1700(1)
                                         OPER   

              2       7     4998.59       700     1000      520     2100     2140     5201     5101   
                                         GEOM     BASIS   MCVARS     RHF     MCSCF    MRCI     MRCI   

 PROGRAMS   *        TOTAL        CI        CI        CI     MULTI   RHF-SCF       INT
 CPU TIMES  *    118238.23 104596.31   6295.01   7339.41      4.35      0.37      2.54
 REAL TIME  *    120092.88 SEC
 DISK USED  *         4.94 GB (local),       79.28 GB (total)
 SF USED    *        26.33 GB
 GA USED    *         0.00 MB       (max)       0.00 MB       (current)
 **********************************************************************************************************************************

 CI/USERDEF energy=   -214.013122309205

              CI              CI           MULTI         RHF-SCF
   -213.94756217   -213.95954708   -213.16004202   -213.37378108
 **********************************************************************************************************************************
 Molpro calculation terminated with 1 warning(s)
