
 Working directory              : /wrk/irikura/molpro.Qx73xhqdQz/
 Global scratch directory       : /wrk/irikura/molpro.Qx73xhqdQz/
 Wavefunction directory         : /home/irikura/wfu/
 Main file repository           : /wrk/irikura/molpro.Qx73xhqdQz/

 id        : nistki

 Nodes            nprocs
 pn112695.nist.gov   12
 GA implementation: MPI file
 GA implementation (serial work in mppx): MPI file

 Using customized tuning parameters: mindgm=1; mindgv=20; mindgc=4; mindgr=1; noblas=0; minvec=7
 default implementation of scratch files=sf  


 Variables initialized (1042), CPU time= 0.01 sec
 ***,Sn SO-CI
                                                                                 ! trying to get minimal problem demonstration
 memory,1300,M;
 
 gprint,orbitals,civector;
 
 symmetry,xyz
 geometry={Sn};
 
 basis=aug-cc-pwCVQZ-DK3
 
 set,dkho=101
 
                                                                                 ! spherical dication (1S) orbitals
 {rhf;wf,nelec=48,sym=1,spin=0}
 
 NTRIP=12
 NSING=6
 
                                                                                 ! (4/7) active space (s + 2*p)
 {multi
     occ,15,15
     wf,nelec=50,sym=1,spin=2;state,NTRIP;
     expec2,lxx,lyy,lzz;
     wf,nelec=50,sym=1,spin=0;state,NSING;
     expec2,lxx,lyy,lzz;
 }
 table, energy, ll
 title, Energies and &lt;L**2&gt; values
 
                                                                                 ! free KL shells
 core,8,6
 
 {ci;wf,sym=1,spin=2;state,NTRIP; save,5203.2}
 hlsdiag = energd4
 {ci;wf,sym=1,spin=0;state,NSING; save,5201.2}
 hlsdiag(NTRIP+1) = energd4
 
 table,hlsdiag
 
                                                                                 !lsint
 {ci;hlsmat,ls,5203.2,5201.2;print,vls=0,hls=0}                                  !compute and diagonalize SO matrix
 Commands initialized (847), CPU time= 0.01 sec, 718 directives.
 Default parameters read. Elapsed time= 0.13 sec

 Checking input...
 Passed
1


                                         ***  PROGRAM SYSTEM MOLPRO  ***
                                       Copyright, TTI GmbH Stuttgart, 2015
                                    Version 2024.1 linked Wed Jan 31 05:42:09 2024


 **********************************************************************************************************************************
 LABEL *   Sn SO-CI                                                                                                                                                      
  (32 PROC) 64 bit mpp version                                                           DATE: 14-May-24          TIME: 16:08:44  
 **********************************************************************************************************************************

 SHA1:             675817fde4514a4a933b69e420913a90cee4ef91
 **********************************************************************************************************************************

 Memory per process:      1300 MW
 Total memory per node:  15600 MW

 GA preallocation disabled
 GA check disabled

 Variable memory set to 1300.0 MW


 ZSYMEL=XYZ

 SETTING BASIS          =    AUG-CC-PWCVQZ-DK3
 SETTING DKHO           =       101.00000000                                  


 Recomputing integrals since basis changed


 Using spherical harmonics

 Library entry SN     S augccpwCVQZ-DK3      selected for orbital group  1
 Library entry SN     P augccpwCVQZ-DK3      selected for orbital group  1
 Library entry SN     D augccpwCVQZ-DK3      selected for orbital group  1
 Library entry SN     F augccpwCVQZ-DK3      selected for orbital group  1
 Library entry SN     G augccpwCVQZ-DK3      selected for orbital group  1
 Library entry SN     H augccpwCVQZ-DK3      selected for orbital group  1


 PROGRAM * SEWARD (Integral evaluation for generally contracted gaussian basis sets)     Author: Roland Lindh, 1990

 Geometry written to block  1 of record 700

 Orientation using atomic masses  
 Molecule type: Atom
 User-specified symmetry elements: XYZ
 Symmetry elements: XYZ
 Rotational constants:       0.0000000      0.0000000      0.0000000 GHz  (calculated with average atomic masses)

 Point group  Ci  



 ATOMIC COORDINATES

 NR  ATOM    CHARGE       X              Y              Z

   1  SN     50.00    0.000000000    0.000000000    0.000000000

 NUCLEAR CHARGE:                   50
 NUMBER OF PRIMITIVE AOS:         352
 NUMBER OF SYMMETRY AOS:          282
 NUMBER OF CONTRACTIONS:          179   (   93Ag  +   86Au  )
 NUMBER OF INNER CORE ORBITALS:    14   (    8Ag  +    6Au  )
 NUMBER OF OUTER CORE ORBITALS:     9   (    6Ag  +    3Au  )
 NUMBER OF VALENCE ORBITALS:        4   (    1Ag  +    3Au  )


 NUCLEAR REPULSION ENERGY    0.00000000

 One-electron integrals computed with SEWARD

 eXact-2-Component (X2C) method activated

 Computing Douglas-Kroll / X2C integrals

 AO integral compression algorithm  1   Integral accuracy      1.0D-11

     120.324 MB (compressed) written to integral file ( 12.9%)

     Node minimum: 4.194 MB, node maximum: 16.515 MB


 NUMBER OF SORTED TWO-ELECTRON INTEGRALS:    5457495.     BUFFER LENGTH:  32768
 NUMBER OF SEGMENTS:   1  SEGMENT LENGTH:    5457495      RECORD LENGTH: 524288

 Memory used in sort:       6.01 MW

 SORT1 READ   115128829. AND WROTE      975714. INTEGRALS IN      3 RECORDS. CPU TIME:     0.52 SEC, REAL TIME:     0.54 SEC
 SORT2 READ    12041557. AND WROTE    65610150. INTEGRALS IN    588 RECORDS. CPU TIME:     0.12 SEC, REAL TIME:     0.13 SEC

 Node minimum:     5456145.  Node maximum:     5472639. integrals

 OPERATOR DM      FOR CENTER  0  COORDINATES:    0.000000    0.000000    0.000000

 EXTRA SYMMETRY OF AOS IN SYMMETRY 1:   1 1 1 1 1 1 1 1 1 1   1 1 2 3 4 5 6 2 3 4   5 6 2 3 4 5 6 2 3 4   5 6 2 3 4 5 6 2 3 4
                                        5 6 2 3 4 5 6 2 3 4   5 6 2 3 4 5 6 7 8 9  101112131415 7 8 910  1112131415 7 8 91011
                                       12131415 7 8 9101112  131415
 EXTRA SYMMETRY OF AOS IN SYMMETRY 2:   1 2 3 1 2 3 1 2 3 1   2 3 1 2 3 1 2 3 1 2   3 1 2 3 1 2 3 1 2 3   1 2 3 4 5 6 7 8 910
                                        4 5 6 7 8 910 4 5 6   7 8 910 4 5 6 7 8 9  10 4 5 6 7 8 910 4 5   6 7 8 9101112131415
                                       161718192021

 Eigenvalues of metric

         1 0.117E-04 0.699E-04 0.620E-03 0.620E-03 0.620E-03 0.620E-03 0.620E-03 0.253E-02
         2 0.403E-04 0.403E-04 0.403E-04 0.275E-03 0.275E-03 0.275E-03 0.104E-01 0.104E-01


 **********************************************************************************************************************************
 DATASETS  * FILE   NREC   LENGTH (MB)   RECORD NAMES
              1      22       30.06       500      610      700      900      950      970     1000      129      960     1700   
                                          VAR    BASINP    GEOM    SYMINP    ZMAT    AOBASIS   BASIS     P2S    ABASIS    OPER   
                                         1101     1401     1411     1412     1650     1100     1400     1410     1200     1210   
                                          SR      EKINR    POTR     PVPR    MOLCAS      S      EKIN      POT      H0       H01  
                                         1080     1600   
                                         AOSYM     SMH  

 PROGRAMS   *        TOTAL       INT
 CPU TIMES  *         4.02      3.81
 REAL TIME  *         4.88 SEC
 DISK USED  *        30.45 MB (local),      598.54 MB (total)
 GA USED    *         0.00 MB       (max)       0.00 MB       (current)
 **********************************************************************************************************************************


 Program * Restricted Hartree-Fock

 Orbital guess generated from atomic densities.

 Initial occupancy:  14  10

 NELEC=   48   SYM=1   MS2= 0   THRE=1.0D-08   THRD=3.2D-06   THRG=3.2D-06  HFMA2=F  DIIS_START=2   DIIS_MAX=10   DIIS_INCORE=F

 Level shifts:    0.00 (CLOSED)    0.00 (OPEN)    0.30 (GAP_MIN)

 ITER           ETOT              DE          GRAD        DDIFF     DIIS  NEXP   TIME(IT)  TIME(TOT)  DIAG
   1    -6013.58193247   -6013.58193247     0.00D+00     0.66D+01     0     0       0.03      0.06    start
   2    -6047.03422448     -33.45229201     0.89D+00     0.65D+01     1     0       0.03      0.09    diag
   3    -6163.37547861    -116.34125413     0.62D+00     0.49D+01     2     0       0.02      0.11    diag
   4    -6172.58538214      -9.20990353     0.17D+00     0.54D+01     3     0       0.03      0.14    diag
   5    -6172.98989649      -0.40451435     0.31D-01     0.28D-01     4     0       0.03      0.17    diag
   6    -6172.99274347      -0.00284698     0.13D-02     0.25D-01     5     0       0.03      0.20    diag
   7    -6172.99289340      -0.00014992     0.24D-03     0.26D-02     6     0       0.02      0.22    diag
   8    -6172.99289533      -0.00000193     0.37D-04     0.32D-03     7     0       0.03      0.25    fixocc
   9    -6172.99289534      -0.00000002     0.43D-05     0.35D-04     8     0       0.03      0.28    diag
  10    -6172.99289534      -0.00000000     0.57D-06     0.72D-05     9     0       0.03      0.31    diag/orth
  11    -6172.99289534      -0.00000000     0.29D-07     0.25D-06     9     0       0.03      0.34    diag
  12    -6172.99289534       0.00000000     0.90D-09     0.36D-07     0     0       0.02      0.36    diag

 Final occupancy:  15   9

 !RHF STATE 1.1 Energy              -6172.992895344290
  RHF One-electron energy           -8458.989574014166
  RHF Two-electron energy            2285.996678669875
  RHF Kinetic energy                 7113.655396400656
  RHF Nuclear energy                    0.000000000000
  RHF Virial quotient                  -0.867766647576

 !RHF STATE 1.1 Dipole moment           0.00000000     0.00000000     0.00000000
 Dipole moment /Debye                   0.00000000     0.00000000     0.00000000

 ELECTRON ORBITALS
 =================

  Orbital  Occupation    Energy    Cen Mu Typ  Coefficients
    1.1     2.00000 -1079.06395     1  1  s    0.96931    1  6  s    0.30792
    2.1     2.00000  -166.86542     1  2  s    1.09647
    3.1     2.00000   -34.18928     1  3  s    0.93674
    4.1     2.00000   -19.53164     1  1  d0  -0.40795    1  1  d2+  0.90958
    5.1     2.00000   -19.53164     1  1  d2-  0.99636
    6.1     2.00000   -19.53164     1  1  d1+  0.99910
    7.1     2.00000   -19.53164     1  1  d1-  0.99909
    8.1     2.00000   -19.53164     1  1  d0   0.91283    1  1  d2+  0.40670
    9.1     2.00000    -6.52363     1  4  s    1.03001
   10.1     2.00000    -1.94641     1  2  d0  -0.53459    1  2  d2+  0.84816
   11.1     2.00000    -1.94641     1  2  d1+  1.00400
   12.1     2.00000    -1.94641     1  2  d2-  1.00171
   13.1     2.00000    -1.94641     1  2  d1-  1.00400
   14.1     2.00000    -1.94641     1  2  d0   0.85073    1  2  d2+  0.53297
   15.1     2.00000    -1.05759     1  3  s   -0.72573    1  4  s   -1.39199    1  6  s   -0.30520    1  7  s    0.57647
                                    1  8  s    0.46791    1  9  s    0.68233    1 10  s    0.64092
    1.2     2.00000  -149.69158     1  1  px   0.99785
    2.2     2.00000  -149.69158     1  1  py   0.99784
    3.2     2.00000  -149.69158     1  1  pz   0.99862
    4.2     2.00000   -28.42256     1  2  px   1.00785
    5.2     2.00000   -28.42256     1  2  py   1.00785
    6.2     2.00000   -28.42256     1  2  pz   1.00855
    7.2     2.00000    -4.68851     1  3  pz   1.01164
    8.2     2.00000    -4.68851     1  3  px   1.01091
    9.2     2.00000    -4.68851     1  3  py   1.01091


 HOMO     15.1    -1.057594 =     -28.7786eV
 LUMO     10.2    -0.495105 =     -13.4725eV
 LUMO-HOMO         0.562489 =      15.3061eV

 Orbitals saved in record  2100.2


 **********************************************************************************************************************************
 DATASETS  * FILE   NREC   LENGTH (MB)   RECORD NAMES
              1      22       30.06       500      610      700      900      950      970     1000      129      960     1700   
                                          VAR    BASINP    GEOM    SYMINP    ZMAT    AOBASIS   BASIS     P2S    ABASIS    OPER   
                                         1101     1401     1411     1412     1650     1100     1400     1410     1200     1210   
                                          SR      EKINR    POTR     PVPR    MOLCAS      S      EKIN      POT      H0       H01  
                                         1080     1600   
                                         AOSYM     SMH  

              2       4        0.66       700     1000      520     2100   
                                         GEOM     BASIS   MCVARS     RHF  

 PROGRAMS   *        TOTAL   RHF-SCF       INT
 CPU TIMES  *         4.56      0.54      3.81
 REAL TIME  *         6.10 SEC
 DISK USED  *        31.95 MB (local),      616.47 MB (total)
 GA USED    *         0.00 MB       (max)       0.00 MB       (current)
 **********************************************************************************************************************************
 SETTING NTRIP          =        12.00000000                                  
 SETTING NSING          =         6.00000000                                  

 PROGRAM * MULTI (Direct Multiconfiguration SCF)       Authors: P.J. Knowles, H.-J. Werner (1984)
                                                                D.A. Kreplin, P.J. Knowles, H.-J. Werner (2019)

 Number of closed-shell orbitals:  23 (   14    9)
 Number of active  orbitals:        7 (    1    6)
 Number of external orbitals:     149 (   78   71)

 State symmetry 1

 Number of active electrons:   4    Spin symmetry=Triplet   Space symmetry=1
 Number of states:            12
 Number of CSFs:             120   (135 determinants, 245 intermediate states)

 State symmetry 2

 Number of active electrons:   4    Spin symmetry=Singlet   Space symmetry=1
 Number of states:             6
 Number of CSFs:             126   (261 determinants, 441 intermediate states)

 Molecular orbitals read from record     2100.2  Type=RHF/CANONICAL  
 *** IN SYMMETRY 1 ORBITAL  4 SYMMETRY CONTAMINATION OF 0.348D+00 HAS BEEN REMOVED
 *** IN SYMMETRY 1 ORBITAL  5 SYMMETRY CONTAMINATION OF 0.794D-01 HAS BEEN REMOVED
 *** IN SYMMETRY 1 ORBITAL  6 SYMMETRY CONTAMINATION OF 0.390D-01 HAS BEEN REMOVED
 *** IN SYMMETRY 1 ORBITAL  7 SYMMETRY CONTAMINATION OF 0.398D-01 HAS BEEN REMOVED
 *** IN SYMMETRY 1 ORBITAL  8 SYMMETRY CONTAMINATION OF 0.326D+00 HAS BEEN REMOVED
 *** IN SYMMETRY 1 ORBITAL 10 SYMMETRY CONTAMINATION OF 0.415D+00 HAS BEEN REMOVED
 *** IN SYMMETRY 1 ORBITAL 11 SYMMETRY CONTAMINATION OF 0.381D-01 HAS BEEN REMOVED
 *** IN SYMMETRY 1 ORBITAL 12 SYMMETRY CONTAMINATION OF 0.731D-01 HAS BEEN REMOVED
 *** IN SYMMETRY 1 ORBITAL 13 SYMMETRY CONTAMINATION OF 0.380D-01 HAS BEEN REMOVED
 *** IN SYMMETRY 1 ORBITAL 14 SYMMETRY CONTAMINATION OF 0.403D+00 HAS BEEN REMOVED

 EXTRA SYMMETRY OF MOS IN SYMMETRY 1:   1 1 1 5 3 4 6 2 1 5   4 3 6 2 1 1 5 3 4 6   2 1 5 3 4 2 6 5 3 4   2 6 11013141512 8 9
                                       11 71013141512 8 911   7 2 3 5 4 6 11013 9  1215 814 711 2 3 5 4   6 1 2 3 5 4 6 9 713
                                       151014 81112 1 3 5 4   6 2 1
 *** IN SYMMETRY 2 ORBITAL  1 SYMMETRY CONTAMINATION OF 0.385D-01 HAS BEEN REMOVED
 *** IN SYMMETRY 2 ORBITAL  2 SYMMETRY CONTAMINATION OF 0.414D-01 HAS BEEN REMOVED
 *** IN SYMMETRY 2 ORBITAL  3 SYMMETRY CONTAMINATION OF 0.390D-02 HAS BEEN REMOVED
 *** IN SYMMETRY 2 ORBITAL  4 SYMMETRY CONTAMINATION OF 0.359D-01 HAS BEEN REMOVED
 *** IN SYMMETRY 2 ORBITAL  5 SYMMETRY CONTAMINATION OF 0.372D-01 HAS BEEN REMOVED
 *** IN SYMMETRY 2 ORBITAL  6 SYMMETRY CONTAMINATION OF 0.162D-02 HAS BEEN REMOVED
 *** IN SYMMETRY 2 ORBITAL  7 SYMMETRY CONTAMINATION OF 0.373D-03 HAS BEEN REMOVED
 *** IN SYMMETRY 2 ORBITAL  8 SYMMETRY CONTAMINATION OF 0.366D-01 HAS BEEN REMOVED
 *** IN SYMMETRY 2 ORBITAL  9 SYMMETRY CONTAMINATION OF 0.369D-01 HAS BEEN REMOVED
 *** IN SYMMETRY 2 ORBITAL 10 SYMMETRY CONTAMINATION OF 0.307D-03 HAS BEEN REMOVED
 *** IN SYMMETRY 2 ORBITAL 11 SYMMETRY CONTAMINATION OF 0.377D-01 HAS BEEN REMOVED
 *** IN SYMMETRY 2 ORBITAL 12 SYMMETRY CONTAMINATION OF 0.375D-01 HAS BEEN REMOVED
 *** IN SYMMETRY 2 ORBITAL 13 SYMMETRY CONTAMINATION OF 0.375D-01 HAS BEEN REMOVED
 *** IN SYMMETRY 2 ORBITAL 14 SYMMETRY CONTAMINATION OF 0.377D-01 HAS BEEN REMOVED
 *** IN SYMMETRY 2 ORBITAL 15 SYMMETRY CONTAMINATION OF 0.336D-03 HAS BEEN REMOVED
 EXTRA SYMMETRY OF MOS IN SYMMETRY 2:   1 2 3 1 2 3 3 1 2 3   2 1 1 2 3 1 2 3 7 9  10 8 4 5 6 7 910 4 8   5 6 1 2 3 7 910 8 4
                                        5 6 1 2 3 7 910 8 4   6 52018171511191621  141312 7 910 8 4 6 5   1 2 310 7 9 8 6 4 5
                                        1 2 3 2 1 3

 Wavefunction dump at record             2140.2

 Convergence thresholds  0.10E-04 (gradient)  0.10E-05 (energy)

 Weight factors for state symmetry  1:    0.05556   0.05556   0.05556   0.05556   0.05556   0.05556   0.05556   0.05556
                                          0.05556   0.05556   0.05556   0.05556
 Weight factors for state symmetry  2:    0.05556   0.05556   0.05556   0.05556   0.05556   0.05556
 
 Number of orbital rotations:  2303  ( 68 closed/active, 1731 closed/virtual, 0 active/active, 504 active/virtual )
 Total number of variables:    5489
 
 Second-order MCSCF: L-BFGS accelerated
 
 ITER  MIC  NCI  NEG     ENERGY(VAR)    ENERGY(PROJ) ENERGY CHANGE       GRAD(0)  GRAD(ORB)   GRAD(CI)      STEP      TIME
   1    5    8    0  -6173.63125943   -6173.64980731   -0.01854787    0.18165713 0.00009713 0.00000000  0.53E+00      2.07
   2    7   12    0  -6173.65038091   -6173.65043782   -0.00005691    0.00782005 0.00000323 0.00000000  0.36E-01      4.30
   3   14   18    0  -6173.65043794   -6173.65043794   -0.00000000    0.00002590 0.00000000 0.00000000  0.12E-03      6.62
   4    4    4    0  -6173.65043794   -6173.65043794   -0.00000000    0.00000001 0.00000000 0.00000000  0.87E-08      8.08

 CONVERGENCE REACHED!  Final gradient:    0.00000001 ( 0.70E-08)
                       Final energy:  -6173.65043794
 
 Results for state 1.1 Triplet
 =============================
 !MCSCF STATE 1.1 Triplet Energy             -6173.752555827964
 Nuclear energy                                  0.00000000
 Kinetic energy                               7114.90013090
 One electron energy                         -8492.15588844
 Two electron energy                          2318.40333261
 Virial ratio                                    1.86772160
 
 !MCSCF STATE 1.1 Triplet Dipole moment          0.00000000     0.00000000     0.00000000
 Dipole moment /Debye                            0.00000000     0.00000000     0.00000000
 
 Results for state 2.1 Triplet
 =============================
 !MCSCF STATE 2.1 Triplet Energy             -6173.752555827577
 Nuclear energy                                  0.00000000
 Kinetic energy                               7114.90013092
 One electron energy                         -8492.15588851
 Two electron energy                          2318.40333268
 Virial ratio                                    1.86772160
 
 !MCSCF STATE 2.1 Triplet Dipole moment          0.00000000     0.00000000     0.00000000
 Dipole moment /Debye                            0.00000000     0.00000000     0.00000000
 
 Results for state 3.1 Triplet
 =============================
 !MCSCF STATE 3.1 Triplet Energy             -6173.752555827501
 Nuclear energy                                  0.00000000
 Kinetic energy                               7114.90013093
 One electron energy                         -8492.15588852
 Two electron energy                          2318.40333270
 Virial ratio                                    1.86772160
 
 !MCSCF STATE 3.1 Triplet Dipole moment          0.00000000     0.00000000     0.00000000
 Dipole moment /Debye                            0.00000000     0.00000000     0.00000000
 
 Results for state 4.1 Triplet
 =============================
 !MCSCF STATE 4.1 Triplet Energy             -6173.577576418390
 Nuclear energy                                  0.00000000
 Kinetic energy                               7113.72218120
 One electron energy                         -8480.59872114
 Two electron energy                          2307.02114472
 Virial ratio                                    1.86784069
 
 !MCSCF STATE 4.1 Triplet Dipole moment          0.00000000     0.00000000     0.00000000
 Dipole moment /Debye                            0.00000000     0.00000000     0.00000000
 
 Results for state 5.1 Triplet
 =============================
 !MCSCF STATE 5.1 Triplet Energy             -6173.577576418361
 Nuclear energy                                  0.00000000
 Kinetic energy                               7113.72218120
 One electron energy                         -8480.59872113
 Two electron energy                          2307.02114471
 Virial ratio                                    1.86784069
 
 !MCSCF STATE 5.1 Triplet Dipole moment          0.00000000     0.00000000     0.00000000
 Dipole moment /Debye                            0.00000000     0.00000000     0.00000000
 
 Results for state 6.1 Triplet
 =============================
 !MCSCF STATE 6.1 Triplet Energy             -6173.577576418351
 Nuclear energy                                  0.00000000
 Kinetic energy                               7113.72218120
 One electron energy                         -8480.59872112
 Two electron energy                          2307.02114471
 Virial ratio                                    1.86784069
 
 !MCSCF STATE 6.1 Triplet Dipole moment          0.00000000     0.00000000     0.00000000
 Dipole moment /Debye                            0.00000000     0.00000000     0.00000000
 
 Results for state 7.1 Triplet
 =============================
 !MCSCF STATE 7.1 Triplet Energy             -6173.577576418233
 Nuclear energy                                  0.00000000
 Kinetic energy                               7113.72218119
 One electron energy                         -8480.59872108
 Two electron energy                          2307.02114466
 Virial ratio                                    1.86784069
 
 !MCSCF STATE 7.1 Triplet Dipole moment          0.00000000     0.00000000     0.00000000
 Dipole moment /Debye                            0.00000000     0.00000000     0.00000000
 
 Results for state 8.1 Triplet
 =============================
 !MCSCF STATE 8.1 Triplet Energy             -6173.577576418225
 Nuclear energy                                  0.00000000
 Kinetic energy                               7113.72218119
 One electron energy                         -8480.59872108
 Two electron energy                          2307.02114466
 Virial ratio                                    1.86784069
 
 !MCSCF STATE 8.1 Triplet Dipole moment          0.00000000     0.00000000     0.00000000
 Dipole moment /Debye                            0.00000000     0.00000000     0.00000000
 
 Results for state 9.1 Triplet
 =============================
 !MCSCF STATE 9.1 Triplet Energy             -6173.571897020915
 Nuclear energy                                  0.00000000
 Kinetic energy                               7113.92455199
 One electron energy                         -8481.75444404
 Two electron energy                          2308.18254702
 Virial ratio                                    1.86781521
 
 !MCSCF STATE 9.1 Triplet Dipole moment          0.00000000     0.00000000     0.00000000
 Dipole moment /Debye                            0.00000000     0.00000000     0.00000000
 
 Results for state 10.1 Triplet
 ==============================
 !MCSCF STATE 10.1 Triplet Energy            -6173.571897020913
 Nuclear energy                                  0.00000000
 Kinetic energy                               7113.92455200
 One electron energy                         -8481.75444410
 Two electron energy                          2308.18254708
 Virial ratio                                    1.86781521
 
 !MCSCF STATE 10.1 Triplet Dipole moment         0.00000000     0.00000000     0.00000000
 Dipole moment /Debye                            0.00000000     0.00000000     0.00000000
 
 Results for state 11.1 Triplet
 ==============================
 !MCSCF STATE 11.1 Triplet Energy            -6173.571897020905
 Nuclear energy                                  0.00000000
 Kinetic energy                               7113.92455200
 One electron energy                         -8481.75444411
 Two electron energy                          2308.18254709
 Virial ratio                                    1.86781521
 
 !MCSCF STATE 11.1 Triplet Dipole moment         0.00000000     0.00000000     0.00000000
 Dipole moment /Debye                            0.00000000     0.00000000     0.00000000
 
 Results for state 12.1 Triplet
 ==============================
 !MCSCF STATE 12.1 Triplet Energy            -6173.570727853383
 Nuclear energy                                  0.00000000
 Kinetic energy                               7113.72101488
 One electron energy                         -8480.59386034
 Two electron energy                          2307.02313248
 Virial ratio                                    1.86783987
 
 !MCSCF STATE 12.1 Triplet Dipole moment         0.00000000     0.00000000     0.00000000
 Dipole moment /Debye                            0.00000000     0.00000000     0.00000000
 
 Results for state 1.1 Singlet
 =============================
 !MCSCF STATE 1.1 Singlet Energy             -6173.717580640768
 Nuclear energy                                  0.00000000
 Kinetic energy                               7114.79302923
 One electron energy                         -8491.47639605
 Two electron energy                          2317.75881541
 Virial ratio                                    1.86772975
 
 !MCSCF STATE 1.1 Singlet Dipole moment          0.00000000     0.00000000     0.00000000
 Dipole moment /Debye                            0.00000000     0.00000000     0.00000000
 
 Results for state 2.1 Singlet
 =============================
 !MCSCF STATE 2.1 Singlet Energy             -6173.717580640753
 Nuclear energy                                  0.00000000
 Kinetic energy                               7114.79302923
 One electron energy                         -8491.47639605
 Two electron energy                          2317.75881541
 Virial ratio                                    1.86772975
 
 !MCSCF STATE 2.1 Singlet Dipole moment          0.00000000     0.00000000     0.00000000
 Dipole moment /Debye                            0.00000000     0.00000000     0.00000000
 
 Results for state 3.1 Singlet
 =============================
 !MCSCF STATE 3.1 Singlet Energy             -6173.717580640334
 Nuclear energy                                  0.00000000
 Kinetic energy                               7114.79302925
 One electron energy                         -8491.47639611
 Two electron energy                          2317.75881547
 Virial ratio                                    1.86772975
 
 !MCSCF STATE 3.1 Singlet Dipole moment          0.00000000     0.00000000     0.00000000
 Dipole moment /Debye                            0.00000000     0.00000000     0.00000000
 
 Results for state 4.1 Singlet
 =============================
 !MCSCF STATE 4.1 Singlet Energy             -6173.717580640253
 Nuclear energy                                  0.00000000
 Kinetic energy                               7114.79302925
 One electron energy                         -8491.47639612
 Two electron energy                          2317.75881548
 Virial ratio                                    1.86772975
 
 !MCSCF STATE 4.1 Singlet Dipole moment          0.00000000     0.00000000     0.00000000
 Dipole moment /Debye                            0.00000000     0.00000000     0.00000000
 
 Results for state 5.1 Singlet
 =============================
 !MCSCF STATE 5.1 Singlet Energy             -6173.717580640115
 Nuclear energy                                  0.00000000
 Kinetic energy                               7114.79302926
 One electron energy                         -8491.47639614
 Two electron energy                          2317.75881550
 Virial ratio                                    1.86772975
 
 !MCSCF STATE 5.1 Singlet Dipole moment          0.00000000     0.00000000     0.00000000
 Dipole moment /Debye                            0.00000000     0.00000000     0.00000000
 
 Results for state 6.1 Singlet
 =============================
 !MCSCF STATE 6.1 Singlet Energy             -6173.688011294487
 Nuclear energy                                  0.00000000
 Kinetic energy                               7114.62157410
 One electron energy                         -8490.50931157
 Two electron energy                          2316.82130028
 Virial ratio                                    1.86774651
 
 !MCSCF STATE 6.1 Singlet Dipole moment          0.00000000     0.00000000     0.00000000
 Dipole moment /Debye                            0.00000000     0.00000000     0.00000000
 
 State-averaged charge density matrix saved on record 2140.2 (density set 1)
 
 No non-zero expectation values
 
 Expectation values for two-electron operators:
 
 ? Warning
 ? Transition properties are only calculated between states of the same symmetry
 ? The problem occurs in mu_properties_expec2

 !MCSCF expec      <1.1 Triplet|LXLX|1.1 Triplet>     0.999999999880
 !MCSCF expec      <2.1 Triplet|LXLX|2.1 Triplet>     0.000000000465
 !MCSCF expec      <3.1 Triplet|LXLX|3.1 Triplet>     0.999999999663
 !MCSCF expec      <4.1 Triplet|LXLX|4.1 Triplet>     2.869415983518
 !MCSCF expec      <5.1 Triplet|LXLX|5.1 Triplet>     1.000000054876
 !MCSCF expec      <6.1 Triplet|LXLX|6.1 Triplet>     3.999999991334
 !MCSCF expec      <7.1 Triplet|LXLX|7.1 Triplet>     1.000000017924
 !MCSCF expec      <8.1 Triplet|LXLX|8.1 Triplet>     1.130596202254
 !MCSCF expec      <9.1 Triplet|LXLX|9.1 Triplet>     0.999996307929
 !MCSCF expec    <10.1 Triplet|LXLX|10.1 Triplet>     0.000005394926
 !MCSCF expec    <11.1 Triplet|LXLX|11.1 Triplet>     0.999999996230
 !MCSCF expec    <12.1 Triplet|LXLX|12.1 Triplet>     0.000000000000
 !MCSCF expec      <1.1 Singlet|LXLX|1.1 Singlet>     1.000000003059
 !MCSCF expec      <2.1 Singlet|LXLX|2.1 Singlet>     1.265871154392
 !MCSCF expec      <3.1 Singlet|LXLX|3.1 Singlet>     3.999999998980
 !MCSCF expec      <4.1 Singlet|LXLX|4.1 Singlet>     1.000000005397
 !MCSCF expec      <5.1 Singlet|LXLX|5.1 Singlet>     2.734133462869
 !MCSCF expec      <6.1 Singlet|LXLX|6.1 Singlet>     0.000000000000
 
 !MCSCF expec      <1.1 Triplet|LYLY|1.1 Triplet>     0.000000000275
 !MCSCF expec      <2.1 Triplet|LYLY|2.1 Triplet>     0.999999999879
 !MCSCF expec      <3.1 Triplet|LYLY|3.1 Triplet>     0.999999999833
 !MCSCF expec      <4.1 Triplet|LYLY|4.1 Triplet>     0.005456502646
 !MCSCF expec      <5.1 Triplet|LYLY|5.1 Triplet>     0.999999969907
 !MCSCF expec      <6.1 Triplet|LYLY|6.1 Triplet>     0.999999998988
 !MCSCF expec      <7.1 Triplet|LYLY|7.1 Triplet>     3.999999992307
 !MCSCF expec      <8.1 Triplet|LYLY|8.1 Triplet>     3.994542520294
 !MCSCF expec      <9.1 Triplet|LYLY|9.1 Triplet>     0.000003938559
 !MCSCF expec    <10.1 Triplet|LYLY|10.1 Triplet>     0.999994609117
 !MCSCF expec    <11.1 Triplet|LYLY|11.1 Triplet>     0.999999709320
 !MCSCF expec    <12.1 Triplet|LYLY|12.1 Triplet>     0.000000000000
 !MCSCF expec      <1.1 Singlet|LYLY|1.1 Singlet>     3.999999998942
 !MCSCF expec      <2.1 Singlet|LYLY|2.1 Singlet>     3.978210327317
 !MCSCF expec      <3.1 Singlet|LYLY|3.1 Singlet>     0.999999999975
 !MCSCF expec      <4.1 Singlet|LYLY|4.1 Singlet>     0.999999997346
 !MCSCF expec      <5.1 Singlet|LYLY|5.1 Singlet>     0.021788944691
 !MCSCF expec      <6.1 Singlet|LYLY|6.1 Singlet>     0.000000000000
 
 !MCSCF expec      <1.1 Triplet|LZLZ|1.1 Triplet>     0.999999999845
 !MCSCF expec      <2.1 Triplet|LZLZ|2.1 Triplet>     0.999999999656
 !MCSCF expec      <3.1 Triplet|LZLZ|3.1 Triplet>     0.000000000505
 !MCSCF expec      <4.1 Triplet|LZLZ|4.1 Triplet>     3.125127513836
 !MCSCF expec      <5.1 Triplet|LZLZ|5.1 Triplet>     3.999999975217
 !MCSCF expec      <6.1 Triplet|LZLZ|6.1 Triplet>     1.000000009677
 !MCSCF expec      <7.1 Triplet|LZLZ|7.1 Triplet>     0.999999989769
 !MCSCF expec      <8.1 Triplet|LZLZ|8.1 Triplet>     0.874861277452
 !MCSCF expec      <9.1 Triplet|LZLZ|9.1 Triplet>     0.999999753513
 !MCSCF expec    <10.1 Triplet|LZLZ|10.1 Triplet>     0.999999995957
 !MCSCF expec    <11.1 Triplet|LZLZ|11.1 Triplet>     0.000000294449
 !MCSCF expec    <12.1 Triplet|LZLZ|12.1 Triplet>     0.000000000000
 !MCSCF expec      <1.1 Singlet|LZLZ|1.1 Singlet>     0.999999998000
 !MCSCF expec      <2.1 Singlet|LZLZ|2.1 Singlet>     0.755918518291
 !MCSCF expec      <3.1 Singlet|LZLZ|3.1 Singlet>     1.000000001046
 !MCSCF expec      <4.1 Singlet|LZLZ|4.1 Singlet>     3.999999997257
 !MCSCF expec      <5.1 Singlet|LZLZ|5.1 Singlet>     3.244077592441
 !MCSCF expec      <6.1 Singlet|LZLZ|6.1 Singlet>     0.000000000000
 
 !MCSCF expec      <1.1 Triplet|L**2|1.1 Triplet>     2.000000000000
 !MCSCF expec      <2.1 Triplet|L**2|2.1 Triplet>     2.000000000000
 !MCSCF expec      <3.1 Triplet|L**2|3.1 Triplet>     2.000000000000
 !MCSCF expec      <4.1 Triplet|L**2|4.1 Triplet>     6.000000000000
 !MCSCF expec      <5.1 Triplet|L**2|5.1 Triplet>     6.000000000000
 !MCSCF expec      <6.1 Triplet|L**2|6.1 Triplet>     6.000000000000
 !MCSCF expec      <7.1 Triplet|L**2|7.1 Triplet>     6.000000000000
 !MCSCF expec      <8.1 Triplet|L**2|8.1 Triplet>     6.000000000000
 !MCSCF expec      <9.1 Triplet|L**2|9.1 Triplet>     2.000000000000
 !MCSCF expec    <10.1 Triplet|L**2|10.1 Triplet>     2.000000000000
 !MCSCF expec    <11.1 Triplet|L**2|11.1 Triplet>     2.000000000000
 !MCSCF expec    <12.1 Triplet|L**2|12.1 Triplet>     0.000000000000
 !MCSCF expec      <1.1 Singlet|L**2|1.1 Singlet>     6.000000000000
 !MCSCF expec      <2.1 Singlet|L**2|2.1 Singlet>     6.000000000000
 !MCSCF expec      <3.1 Singlet|L**2|3.1 Singlet>     6.000000000000
 !MCSCF expec      <4.1 Singlet|L**2|4.1 Singlet>     6.000000000000
 !MCSCF expec      <5.1 Singlet|L**2|5.1 Singlet>     6.000000000000
 !MCSCF expec      <6.1 Singlet|L**2|6.1 Singlet>     0.000000000000
 
 EXTRA SYMMETRY OF MOS IN SYMMETRY 1:   1 1 1 3 5 4 6 2 1 3   5 4 6 2 1 1 3 5 4 6   2 1 3 5 4 6 2 3 5 4   2 613101514 812 9 7
                                       11 11013141512 8 9 7  11 3 5 2 4 6 1101315  14 812 9 711 3 5 2 4   6 1 3 5 2 4 6101315
                                       1412 8 9 711 1 3 5 4   6 2 1
 EXTRA SYMMETRY OF MOS IN SYMMETRY 2:   1 2 3 1 2 3 1 2 3 3   2 1 3 2 1 1 2 3 9 7  10 8 4 5 6 1 2 3 9 7  10 8 4 5 6 9 710 8 4
                                        6 5 1 2 3 9 710 8 4   6 51820151716141113  211912 9 710 8 4 6 5   1 2 3 9 710 8 4 6 5
                                        1 2 3 2 1 3
 
  NATURAL ORBITALS (STATE AVERAGED)
  =================================

  Orbital  Occupation    Energy    Cen Mu Typ  Coefficients
    1.1     2.00000 -1078.50294     1  1  s    0.96931    1  6  s    0.30793
    2.1     2.00000  -166.30787     1  2  s    1.09651
    3.1     2.00000   -33.63318     1  3  s    0.93644
    4.1     2.00000   -18.97587     1  1  d2-  0.99991
    5.1     2.00000   -18.97587     1  1  d2+  0.99991
    6.1     2.00000   -18.97587     1  1  d1+  0.99991
    7.1     2.00000   -18.97587     1  1  d1-  0.99991
    8.1     2.00000   -18.97587     1  1  d0   0.99991
    9.1     2.00000    -5.96940     1  4  s    1.02428
   10.1     2.00000    -1.39464     1  2  d2-  1.00092
   11.1     2.00000    -1.39464     1  2  d2+  1.00092
   12.1     2.00000    -1.39464     1  2  d1+  1.00092
   13.1     2.00000    -1.39464     1  2  d1-  1.00092
   14.1     2.00000    -1.39464     1  2  d0   1.00092
   15.1     1.95586    -0.56991     1  3  s   -0.55188    1  4  s   -1.10931    1  7  s    0.42627    1  8  s    0.30948
                                    1  9  s    0.49691    1 10  s    0.66752
    1.2     2.00000  -149.13432     1  1  px   0.99864
    2.2     2.00000  -149.13432     1  1  py   0.99864
    3.2     2.00000  -149.13432     1  1  pz   0.99864
    4.2     2.00000   -27.86764     1  2  px   1.00883
    5.2     2.00000   -27.86764     1  2  py   1.00883
    6.2     2.00000   -27.86764     1  2  pz   1.00883
    7.2     2.00000    -4.13644     1  3  px   1.00292
    8.2     2.00000    -4.13644     1  3  py   1.00292
    9.2     2.00000    -4.13644     1  3  pz   1.00292
   10.2     0.51194    -0.10750     1  8  pz   0.39818    1  9  pz   0.54569
   11.2     0.51194    -0.10750     1  8  py   0.39818    1  9  py   0.54569
   12.2     0.51194    -0.10750     1  8  px   0.39818    1  9  px   0.54569
   13.2     0.16944     0.03740     1  9  pz  -0.26168    1 11  pz   1.10593
   14.2     0.16944     0.03740     1  9  py  -0.26168    1 11  py   1.10593
   15.2     0.16944     0.03740     1  9  px  -0.26168    1 11  px   1.10593
 
 Natural orbital dump (state averaged) at molpro section 2140.2 (Orbital set 2)
 
 Transform the CI vectors
 
 CI Coefficients of symmetry 1 (Triplet)
 =======================================

 State:              1               2               3               4               5               6               7
 2 aa0000       0.00001085      0.99188957      0.00001840     -0.00000000      0.00000000      0.00000001     -0.00000000
 2 0aa000      -0.00001236     -0.00001840      0.99188957     -0.00000000     -0.00000005      0.00000000     -0.00000000
 2 a0a000       0.99188957     -0.00001086      0.00001236     -0.00000000      0.00000000     -0.00000000     -0.00000004
 2 0a00a0      -0.00000000     -0.00000000      0.00000000      0.80573294     -0.00012330      0.00005349     -0.00001858
 2 a00a00       0.00000000     -0.00000000      0.00000000     -0.37707688      0.00003502     -0.00004543      0.00008676
 2 0a0a00      -0.00000009     -0.00794349     -0.00000015     -0.00004560      0.00003414      0.69826162     -0.00001390
 2 0a000a      -0.00000010     -0.00000015      0.00794354      0.00010769      0.69826161     -0.00003413      0.00001915
 2 00aa00      -0.00794349      0.00000009     -0.00000010      0.00001322     -0.00001915      0.00001391      0.69826161
 2 a0000a       0.00794354     -0.00000009      0.00000010      0.00001322     -0.00001915      0.00001391      0.69826161
 2 a000a0       0.00000009      0.00794347      0.00000015     -0.00004560      0.00003414      0.69826160     -0.00001390
 2 00a0a0       0.00000010      0.00000015     -0.00794347      0.00010769      0.69826159     -0.00003413      0.00001915
 2 00a00a      -0.00000000      0.00000000      0.00000000     -0.42865603      0.00008828     -0.00000806     -0.00006817
 2 0000aa       0.00000021      0.00000031     -0.01674375     -0.00000000     -0.00000005      0.00000000     -0.00000000
 2 000aa0      -0.00000018     -0.01674375     -0.00000031     -0.00000000      0.00000000      0.00000001     -0.00000000
 2 000a0a      -0.01674375      0.00000018     -0.00000021     -0.00000000      0.00000000     -0.00000000     -0.00000004
 0 aa2000      -0.00000127     -0.11592580     -0.00000215      0.00000000     -0.00000000     -0.00000000      0.00000000
 0 2aa000       0.00000144      0.00000215     -0.11592579      0.00000000      0.00000001     -0.00000000      0.00000000
 0 a2a000      -0.11592579      0.00000127     -0.00000144      0.00000000     -0.00000000      0.00000000      0.00000000
 0 2a00a0       0.00000000      0.00000000      0.00000000     -0.08688937      0.00001332     -0.00000575      0.00000193
 0 0a20a0       0.00000000      0.00000000     -0.00000000     -0.08684120      0.00001327     -0.00000578      0.00000208
 0 a20a00      -0.00000000      0.00000000     -0.00000000      0.04007576     -0.00000368      0.00000487     -0.00000938
 0 a02a00      -0.00000000      0.00000000     -0.00000000      0.04122882     -0.00000387      0.00000493     -0.00000933
 0 0a2a00      -0.00000001     -0.00103829     -0.00000002      0.00000494     -0.00000370     -0.07560503      0.00000151
 0 a020a0       0.00000001      0.00103830      0.00000002      0.00000494     -0.00000370     -0.07560503      0.00000151
 0 2a000a      -0.00000001     -0.00000002      0.00103829     -0.00001166     -0.07560503      0.00000370     -0.00000207
 0 02aa00      -0.00103829      0.00000001     -0.00000001     -0.00000143      0.00000207     -0.00000151     -0.07560503
 0 a2000a       0.00103829     -0.00000001      0.00000001     -0.00000143      0.00000207     -0.00000151     -0.07560503
 0 20a0a0       0.00000001      0.00000002     -0.00103830     -0.00001166     -0.07560503      0.00000370     -0.00000207
 0 0a200a       0.00000028      0.00000042     -0.02284831     -0.00001156     -0.07495278      0.00000366     -0.00000206
 0 2a0a00       0.00000025      0.02284831      0.00000042      0.00000489     -0.00000366     -0.07495278      0.00000149
 0 20aa00       0.02284831     -0.00000025      0.00000028     -0.00000142      0.00000206     -0.00000149     -0.07495278
 0 a0200a      -0.02284831      0.00000025     -0.00000028     -0.00000142      0.00000206     -0.00000149     -0.07495278
 0 02a0a0      -0.00000028     -0.00000042      0.02284831     -0.00001156     -0.07495278      0.00000366     -0.00000206
 0 a200a0      -0.00000025     -0.02284831     -0.00000042      0.00000489     -0.00000366     -0.07495278      0.00000149
 0 02a00a       0.00000000     -0.00000000     -0.00000000      0.04566055     -0.00000944      0.00000082      0.00000740
 0 20a00a       0.00000000     -0.00000000     -0.00000000      0.04676543     -0.00000959      0.00000092      0.00000730
 
 Energy:    -6173.75255583  -6173.75255583  -6173.75255583  -6173.57757642  -6173.57757642  -6173.57757642  -6173.57757642

 State:              8               9              10              11              12
 2 aa0000       0.00000000     -0.00003023     -0.01573437     -0.00000102      0.00000000
 2 0aa000      -0.00000000      0.00000781      0.00000100     -0.01573443      0.00000000
 2 a0a000       0.00000000     -0.01573442      0.00003023     -0.00000781     -0.00000000
 2 0a00a0      -0.02977924     -0.00000000     -0.00000000      0.00000000      0.56996300
 2 a00a00       0.71267481     -0.00000000      0.00000000      0.00000000      0.56996302
 2 0a0a00       0.00002039     -0.00133147     -0.69293902     -0.00004486      0.00000000
 2 0a000a       0.00002266     -0.00034403     -0.00004420      0.69294021     -0.00000000
 2 00aa00      -0.00007801     -0.69293895      0.00133149     -0.00034394     -0.00000000
 2 a0000a      -0.00007801      0.69293895     -0.00133149      0.00034394      0.00000000
 2 a000a0       0.00002039      0.00133147      0.69293904      0.00004486      0.00000000
 2 00a0a0       0.00002266      0.00034403      0.00004420     -0.69294024      0.00000000
 2 00a00a      -0.68289557     -0.00000000     -0.00000000      0.00000000      0.56996302
 2 0000aa      -0.00000000      0.00006176      0.00000793     -0.12439197      0.00000000
 2 000aa0       0.00000000     -0.00023902     -0.12439179     -0.00000805     -0.00000000
 2 000a0a       0.00000000     -0.12439172      0.00023902     -0.00006174     -0.00000000
 0 aa2000      -0.00000000      0.00001316      0.00685024      0.00000044     -0.00000000
 0 2aa000       0.00000000     -0.00000340     -0.00000044      0.00685025     -0.00000000
 0 a2a000      -0.00000000      0.00685024     -0.00001316      0.00000340      0.00000000
 0 2a00a0       0.00255866      0.00000000      0.00000000     -0.00000000     -0.06218406
 0 0a20a0       0.00386228      0.00000000      0.00000000     -0.00000000     -0.06218406
 0 a20a00      -0.07713782      0.00000000     -0.00000000     -0.00000000     -0.06218406
 0 a02a00      -0.07652774      0.00000000     -0.00000000     -0.00000000     -0.06218407
 0 0a2a00      -0.00000221      0.00014523      0.07558256      0.00000489     -0.00000000
 0 a020a0      -0.00000221     -0.00014523     -0.07558256     -0.00000489     -0.00000000
 0 2a000a      -0.00000245      0.00003752      0.00000482     -0.07558269      0.00000000
 0 02aa00       0.00000845      0.07558255     -0.00014523      0.00003752      0.00000000
 0 a2000a       0.00000845     -0.07558255      0.00014523     -0.00003752     -0.00000000
 0 20a0a0      -0.00000245     -0.00003752     -0.00000482      0.07558269     -0.00000000
 0 0a200a      -0.00000243      0.00003618      0.00000465     -0.07286466      0.00000000
 0 2a0a00      -0.00000219      0.00014001      0.07286453      0.00000472     -0.00000000
 0 20aa00       0.00000837      0.07286452     -0.00014001      0.00003617      0.00000000
 0 a0200a       0.00000837     -0.07286452      0.00014001     -0.00003617     -0.00000000
 0 02a0a0      -0.00000243     -0.00003618     -0.00000465      0.07286466     -0.00000000
 0 a200a0      -0.00000219     -0.00014001     -0.07286453     -0.00000472     -0.00000000
 0 02a00a       0.07396907      0.00000000      0.00000000     -0.00000000     -0.06218406
 0 20a00a       0.07327554      0.00000000      0.00000000     -0.00000000     -0.06218406
 
 Energy:    -6173.57757642  -6173.57189702  -6173.57189702  -6173.57189702  -6173.57072785
 
 
 CI Coefficients of symmetry 1 (Singlet)
 =======================================
 
 2 020000      -0.00000860     -0.05957655     -0.00000629      0.00005491      0.80499630      0.55719937
 2 200000       0.00005778      0.72693553      0.00000416     -0.00001220     -0.35090335      0.55719935
 2 ab0000       0.00000126     -0.00000141      0.69905387     -0.00001237      0.00000536      0.00000000
 2 ba0000      -0.00000126      0.00000141     -0.69905387      0.00001237     -0.00000536     -0.00000000
 2 0ab000      -0.00000985     -0.00001170      0.00001237      0.69905387     -0.00004855     -0.00000000
 2 0ba000       0.00000985      0.00001170     -0.00001237     -0.69905387      0.00004855      0.00000000
 2 b0a000      -0.69905387      0.00005389      0.00000126     -0.00000985     -0.00000348      0.00000000
 2 a0b000       0.69905387     -0.00005389     -0.00000126      0.00000985      0.00000348     -0.00000000
 2 002000      -0.00004918     -0.66735897      0.00000214     -0.00004271     -0.45409296      0.55719935
 0 022000       0.00000674      0.08475187      0.00000048     -0.00000142     -0.04091108     -0.12499179
 0 220000      -0.00000573     -0.07780597      0.00000025     -0.00000498     -0.05294174     -0.12499179
 0 202000      -0.00000100     -0.00694591     -0.00000073      0.00000640      0.09385282     -0.12499179
 0 ab2000      -0.00000015      0.00000016     -0.08150121      0.00000144     -0.00000063     -0.00000000
 0 ba2000       0.00000015     -0.00000016      0.08150121     -0.00000144      0.00000063      0.00000000
 0 2ba000      -0.00000115     -0.00000136      0.00000144      0.08150121     -0.00000566     -0.00000000
 0 2ab000       0.00000115      0.00000136     -0.00000144     -0.08150121      0.00000566      0.00000000
 0 b2a000       0.08150121     -0.00000628     -0.00000015      0.00000115      0.00000041     -0.00000000
 0 a2b000      -0.08150121      0.00000628      0.00000015     -0.00000115     -0.00000041      0.00000000
 2 00b00a       0.00000264      0.03579265     -0.00000011      0.00000229      0.02435450     -0.05627350
 2 00a00b      -0.00000264     -0.03579265      0.00000011     -0.00000229     -0.02435450      0.05627350
 2 a00b00       0.00000310      0.03898790      0.00000022     -0.00000065     -0.01882008      0.05627346
 2 b00a00      -0.00000310     -0.03898790     -0.00000022      0.00000065      0.01882008     -0.05627346
 2 0b00a0       0.00000046      0.00319528      0.00000034     -0.00000295     -0.04317454     -0.05627346
 2 0a00b0      -0.00000046     -0.00319528     -0.00000034      0.00000295      0.04317454      0.05627346
 
 Energy:    -6173.71758064  -6173.71758064  -6173.71758064  -6173.71758064  -6173.71758064  -6173.68801129
 


 **********************************************************************************************************************************
 DATASETS  * FILE   NREC   LENGTH (MB)   RECORD NAMES
              1      24      116.11       500      610      700      900      950      970     1000      129      960     1700   
                                          VAR    BASINP    GEOM    SYMINP    ZMAT    AOBASIS   BASIS     P2S    ABASIS    OPER   
                                         1101     1401     1411     1412     1650     1100     1400     1410     1200     1210   
                                          SR      EKINR    POTR     PVPR    MOLCAS      S      EKIN      POT      H0       H01  
                                         1080     1600     1380     1700(1)
                                         AOSYM     SMH     JKOP     OPER   

              2       5        1.38       700     1000      520     2100     2140   
                                         GEOM     BASIS   MCVARS     RHF     MCSCF   

 PROGRAMS   *        TOTAL     MULTI   RHF-SCF       INT
 CPU TIMES  *        12.45      7.88      0.54      3.81
 REAL TIME  *        15.63 SEC
 DISK USED  *       117.60 MB (local),        1.61 GB (total)
 SF USED    *       208.84 MB
 GA USED    *         0.00 MB       (max)       0.00 MB       (current)
 **********************************************************************************************************************************

 Energies and &lt;L**2&gt; values

          ENERGY    LL
    -6173.752556   2.0
    -6173.752556   2.0
    -6173.752556   2.0
    -6173.577576   6.0
    -6173.577576   6.0
    -6173.577576   6.0
    -6173.577576   6.0
    -6173.577576   6.0
    -6173.571897   2.0
    -6173.571897   2.0
    -6173.571897   2.0
    -6173.570728   0.0
    -6173.717581   6.0
    -6173.717581   6.0
    -6173.717581   6.0
    -6173.717581   6.0
    -6173.717581   6.0
    -6173.688011   0.0
                                                  


 PROGRAM * CI (Multireference internally contracted CI)     Authors: H.-J. Werner, P.J. Knowles, 1987


 Convergence thresholds:  THRVAR = 1.00D-08  THRDEN = 1.00D-06

 Number of optimized states: 12  Roots:   1   2   3   4   5   6   7   8   9  10  11  12
 Number of reference states: 12  Roots:   1   2   3   4   5   6   7   8   9  10  11  12

 Reference symmetry:                   1   Triplet 
 Number of electrons:                 50
 Maximum number of shells:             5
 Maximum number of spin couplings:    90

 Reference space:       90 conf      120 CSFs
 N elec internal:    18284 conf    76944 CSFs
 N-1 el internal:    12821 conf    88545 CSFs
 N-2 el internal:     4717 conf    46537 CSFs

 Number of electrons in valence space:                     22
 Maximum number of open shell orbitals in reference space:  4
 Maximum number of open shell orbitals in internal spaces: 10


 Number of core orbitals:          14 (   8   6 )
 Number of closed-shell orbitals:   9 (   6   3 )
 Number of active  orbitals:        7 (   1   6 )
 Number of external orbitals:     149 (  78  71 )

 Molecular orbitals read from record     2140.2  Type=MCSCF/NATURAL (state averaged)

 Integral transformation finished. Total CPU:   0.33 sec, npass=  1  Memory used:   2.74 MW


 Number of p-space configurations:  15

 Reference wavefunction optimized for reference space (refopt=1)

 State     Reference Energy 
     1     -6173.75255583
     2     -6173.75255583
     3     -6173.75255583
     4     -6173.57757642
     5     -6173.57757642
     6     -6173.57757642
     7     -6173.57757642
     8     -6173.57757642
     9     -6173.57189702
    10     -6173.57189702
    11     -6173.57189702
    12     -6173.57072785

 ?WARNING: SMALL EIGENVALUE OF PAIR OVERLAP MATRIX:  0.3478D-06

 Number of blocks in overlap matrix:  1162   Smallest eigenvalue:  0.23D-06
 Number of N-2 electron functions:    2547
 Number of N-1 electron functions:   88545

 Number of internal configurations:                38406
 Number of singly external configurations:       6595437
 Number of doubly external configurations:      14140359
 Total number of contracted configurations:     20774202
 Total number of uncontracted configurations:  264333766

 Diagonal Coupling coefficients finished.               Storage:  25506927 words, CPU-Time:     81.15 seconds.
 Energy denominators for pairs finished in 1 passes.    Storage:   2121418 words, CPU-time:      2.00 seconds.

  ITER. STATE  ROOT     SQ.NORM     CORR.ENERGY   TOTAL ENERGY   ENERGY CHANGE       DEN1      VAR(S)    VAR(P)      TIME
    1     1     1     1.00000000     0.00000000 -6173.75255583     0.00000000    -0.92325067  0.50D-01  0.11D+00    98.03
    1     2     2     1.00000000     0.00000000 -6173.75255583    -0.00000000    -0.92340401  0.50D-01  0.11D+00    98.03
    1     3     3     1.00000000     0.00000000 -6173.75255583     0.00000000    -0.92315517  0.50D-01  0.11D+00    98.03
    1     4     4     1.00000000     0.00000000 -6173.57757642     0.00000000    -0.88548476  0.39D-01  0.96D-01    98.03
    1     5     5     1.00000000     0.00000000 -6173.57757642     0.00000000    -0.88509614  0.39D-01  0.96D-01    98.03
    1     6     6     1.00000000     0.00000000 -6173.57757642     0.00000000    -0.88514868  0.39D-01  0.96D-01    98.03
    1     7     7     1.00000000     0.00000000 -6173.57757642     0.00000000    -0.88508801  0.39D-01  0.96D-01    98.03
    1     8     8     1.00000000     0.00000000 -6173.57757642     0.00000000    -0.88542116  0.39D-01  0.96D-01    98.03
    1     9     9     1.00000000     0.00000000 -6173.57189702     0.00000000    -0.89107354  0.43D-01  0.97D-01    98.03
    1    10    10     1.00000000     0.00000000 -6173.57189702     0.00000000    -0.89113428  0.43D-01  0.97D-01    98.03
    1    11    11     1.00000000     0.00000000 -6173.57189702     0.00000000    -0.89108692  0.43D-01  0.97D-01    98.03
    1    12    12     1.00000000     0.00000000 -6173.57072785     0.00000000    -0.88634807  0.40D-01  0.96D-01    98.03
    2     1     1     1.09868709    -0.73561728 -6174.48817311    -0.73561728    -0.02291247  0.45D-02  0.16D-02  1211.19
    2     2     2     1.09880571    -0.73551781 -6174.48807364    -0.73551781    -0.02301577  0.46D-02  0.16D-02  1211.19
    2     3     3     1.09892301    -0.73540587 -6174.48796170    -0.73540587    -0.02314183  0.46D-02  0.16D-02  1211.19
    2     4     4     1.08972375    -0.72542651 -6174.30300293    -0.72542651    -0.01781874  0.28D-02  0.12D-02  1211.19
    2     5     5     1.08974244    -0.72541114 -6174.30298755    -0.72541114    -0.01783397  0.28D-02  0.12D-02  1211.19
    2     6     6     1.08986187    -0.72540617 -6174.30298258    -0.72540617    -0.01782743  0.28D-02  0.12D-02  1211.19
    2     7     7     1.08977496    -0.72538653 -6174.30296295    -0.72538653    -0.01786159  0.28D-02  0.12D-02  1211.19
    2     8     8     1.08989166    -0.72537986 -6174.30295628    -0.72537986    -0.01785742  0.28D-02  0.12D-02  1211.19
    2     9     9     1.09187462    -0.72582399 -6174.29772101    -0.72582399    -0.01916633  0.36D-02  0.12D-02  1211.19
    2    10    10     1.09188430    -0.72581242 -6174.29770944    -0.72581242    -0.01917945  0.37D-02  0.12D-02  1211.19
    2    11    11     1.09191677    -0.72578907 -6174.29768609    -0.72578907    -0.01920499  0.37D-02  0.12D-02  1211.19
    2    12    12     1.09062393    -0.72536098 -6174.29608884    -0.72536098    -0.01830418  0.31D-02  0.12D-02  1211.19
    3     1     1     1.08438790    -0.75739343 -6174.50994926    -0.02177615    -0.00047927  0.71D-04  0.55D-04  2328.49
    3     2     2     1.08438720    -0.75738683 -6174.50994266    -0.02186902    -0.00048539  0.72D-04  0.56D-04  2328.49
    3     3     3     1.08438073    -0.75738506 -6174.50994089    -0.02197918    -0.00048749  0.72D-04  0.56D-04  2328.49
    3     4     4     1.08077350    -0.74238854 -6174.31996496    -0.01696203    -0.00029644  0.33D-04  0.32D-04  2328.49
    3     5     5     1.08077273    -0.74238749 -6174.31996391    -0.01697636    -0.00029734  0.33D-04  0.32D-04  2328.49
    3     6     6     1.08077241    -0.74238689 -6174.31996330    -0.01698072    -0.00029803  0.33D-04  0.32D-04  2328.49
    3     7     7     1.08079485    -0.74238534 -6174.31996175    -0.01699881    -0.00029985  0.33D-04  0.33D-04  2328.49
    3     8     8     1.08079367    -0.74238416 -6174.31996058    -0.01700430    -0.00030081  0.33D-04  0.33D-04  2328.49
    3     9     9     1.08110394    -0.74405213 -6174.31594915    -0.01822814    -0.00035306  0.50D-04  0.37D-04  2328.49
    3    10    10     1.08110391    -0.74405099 -6174.31594802    -0.01823857    -0.00035407  0.50D-04  0.38D-04  2328.49
    3    11    11     1.08110304    -0.74405059 -6174.31594761    -0.01826152    -0.00035458  0.50D-04  0.38D-04  2328.49
    3    12    12     1.08098120    -0.74281542 -6174.31354328    -0.01745444    -0.00031378  0.36D-04  0.36D-04  2328.49
    4     1     1     1.08402018    -0.75789094 -6174.51044677    -0.00049751    -0.00002191  0.34D-05  0.27D-05  3449.31
    4     2     2     1.08401687    -0.75789061 -6174.51044644    -0.00050378    -0.00002219  0.35D-05  0.27D-05  3449.31
    4     3     3     1.08401663    -0.75789053 -6174.51044636    -0.00050547    -0.00002226  0.35D-05  0.27D-05  3449.31
    4     4     4     1.08096182    -0.74269447 -6174.32027088    -0.00030592    -0.00001305  0.25D-05  0.14D-05  3449.31
    4     5     5     1.08096147    -0.74269437 -6174.32027079    -0.00030688    -0.00001312  0.25D-05  0.14D-05  3449.31
    4     6     6     1.08096059    -0.74269437 -6174.32027079    -0.00030748    -0.00001312  0.25D-05  0.15D-05  3449.31
    4     7     7     1.08095777    -0.74269427 -6174.32027069    -0.00030894    -0.00001336  0.26D-05  0.15D-05  3449.31
    4     8     8     1.08095665    -0.74269416 -6174.32027058    -0.00031000    -0.00001343  0.26D-05  0.15D-05  3449.31
    4     9     9     1.08115864    -0.74441558 -6174.31631260    -0.00036345    -0.00001651  0.33D-05  0.18D-05  3449.31
    4    10    10     1.08115781    -0.74441548 -6174.31631250    -0.00036449    -0.00001659  0.33D-05  0.18D-05  3449.31
    4    11    11     1.08115840    -0.74441547 -6174.31631249    -0.00036488    -0.00001660  0.33D-05  0.18D-05  3449.31
    4    12    12     1.08120412    -0.74313952 -6174.31386738    -0.00032410    -0.00001444  0.25D-05  0.19D-05  3449.31
    5     1     1     1.08409559    -0.75791485 -6174.51047068    -0.00002391    -0.00000089  0.66D-07  0.14D-06  4568.80
    5     2     2     1.08409480    -0.75791484 -6174.51047067    -0.00002422    -0.00000090  0.67D-07  0.14D-06  4568.80
    5     3     3     1.08409483    -0.75791483 -6174.51047066    -0.00002431    -0.00000091  0.67D-07  0.14D-06  4568.80
    5     4     4     1.08105096    -0.74270933 -6174.32028575    -0.00001486    -0.00000065  0.48D-07  0.13D-06  4568.80
    5     5     5     1.08105075    -0.74270932 -6174.32028573    -0.00001494    -0.00000066  0.48D-07  0.13D-06  4568.80
    5     6     6     1.08105112    -0.74270920 -6174.32028562    -0.00001484    -0.00000065  0.49D-07  0.13D-06  4568.80
    5     7     7     1.08105107    -0.74270919 -6174.32028561    -0.00001492    -0.00000065  0.49D-07  0.13D-06  4568.80
    5     8     8     1.08105086    -0.74270919 -6174.32028561    -0.00001503    -0.00000065  0.49D-07  0.13D-06  4568.80
    5     9     9     1.08122906    -0.74443363 -6174.31633065    -0.00001805    -0.00000087  0.95D-07  0.15D-06  4568.80
    5    10    10     1.08122893    -0.74443362 -6174.31633065    -0.00001815    -0.00000087  0.95D-07  0.15D-06  4568.80
    5    11    11     1.08122887    -0.74443362 -6174.31633064    -0.00001815    -0.00000087  0.95D-07  0.15D-06  4568.80
    5    12    12     1.08133118    -0.74315601 -6174.31388387    -0.00001649    -0.00000080  0.50D-07  0.17D-06  4568.80
    6     1     1     1.08409626    -0.75791585 -6174.51047168    -0.00000100    -0.00000005  0.54D-08  0.91D-08  5687.83
    6     2     2     1.08409604    -0.75791585 -6174.51047168    -0.00000101    -0.00000005  0.55D-08  0.93D-08  5687.83
    6     3     3     1.08409605    -0.75791585 -6174.51047168    -0.00000102    -0.00000005  0.56D-08  0.93D-08  5687.83
    6     4     4     1.08106591    -0.74271013 -6174.32028655    -0.00000080    -0.00000006  0.60D-08  0.12D-07  5687.83
    6     5     5     1.08106586    -0.74271012 -6174.32028654    -0.00000081    -0.00000006  0.60D-08  0.13D-07  5687.83
    6     6     6     1.08106626    -0.74270999 -6174.32028641    -0.00000079    -0.00000006  0.61D-08  0.12D-07  5687.83
    6     7     7     1.08106620    -0.74270999 -6174.32028641    -0.00000079    -0.00000006  0.62D-08  0.12D-07  5687.83
    6     8     8     1.08106621    -0.74270999 -6174.32028640    -0.00000080    -0.00000006  0.62D-08  0.12D-07  5687.83
    6     9     9     1.08123657    -0.74443463 -6174.31633165    -0.00000100    -0.00000008  0.89D-08  0.17D-07  5687.83
    6    10    10     1.08123647    -0.74443463 -6174.31633165    -0.00000100    -0.00000008  0.90D-08  0.18D-07  5687.83
    6    11    11     1.08123648    -0.74443463 -6174.31633165    -0.00000100    -0.00000008  0.90D-08  0.18D-07  5687.83
    6    12    12     1.08135301    -0.74315700 -6174.31388486    -0.00000099    -0.00000007  0.82D-08  0.14D-07  5687.83
    7     1     1     1.08410498    -0.75791591 -6174.51047174    -0.00000006    -0.00000000  0.27D-09  0.66D-09  6806.01
    7     2     2     1.08410497    -0.75791591 -6174.51047174    -0.00000006    -0.00000000  0.26D-09  0.65D-09  6806.01
    7     3     3     1.08410501    -0.75791591 -6174.51047174    -0.00000006    -0.00000000  0.27D-09  0.67D-09  6806.01
    7     4     4     1.08107209    -0.74271020 -6174.32028662    -0.00000007    -0.00000001  0.51D-09  0.11D-08  6806.01
    7     5     5     1.08107207    -0.74271019 -6174.32028661    -0.00000007    -0.00000001  0.51D-09  0.11D-08  6806.01
    7     6     6     1.08107187    -0.74271006 -6174.32028648    -0.00000007    -0.00000001  0.50D-09  0.11D-08  6806.01
    7     7     7     1.08107188    -0.74271006 -6174.32028648    -0.00000007    -0.00000001  0.51D-09  0.11D-08  6806.01
    7     8     8     1.08107187    -0.74271006 -6174.32028648    -0.00000007    -0.00000001  0.51D-09  0.11D-08  6806.01
    7     9     9     1.08124338    -0.74443473 -6174.31633175    -0.00000010    -0.00000001  0.68D-09  0.17D-08  6806.01
    7    10    10     1.08124337    -0.74443473 -6174.31633175    -0.00000010    -0.00000001  0.69D-09  0.17D-08  6806.01
    7    11    11     1.08124337    -0.74443473 -6174.31633175    -0.00000010    -0.00000001  0.69D-09  0.17D-08  6806.01
    7    12    12     1.08136033    -0.74315709 -6174.31388494    -0.00000009    -0.00000001  0.58D-09  0.11D-08  6806.01


 =====================================
 Analysis of CPU times by interactions
 =====================================

       I      S      P

 I   0.6%
 S   0.4%  32.6%
 P   0.2%  31.1%  23.7%

 Initialization:   1.2%
 Other:           10.1%

 Total CPU:     6806.0 seconds
 =====================================



 Wavefunction saved on  5203.2

 Reference coefficients greater than 0.0500000
 =============================================
 2222222222/0/000           0.9522173   0.0515205  -0.0104032   0.0000000  -0.0000000  -0.0000000   0.0000000   0.0000000
                            0.0009917  -0.0194332   0.0155150  -0.0000000
 2222222222//0000           0.0165166  -0.1141100   0.9466712   0.0000000  -0.0000000  -0.0000000   0.0000000   0.0000000
                           -0.0109377   0.0136037   0.0177385  -0.0000000
 22222222220//000          -0.0498978   0.9454126   0.1148289  -0.0000000   0.0000000  -0.0000000  -0.0000000  -0.0000000
                           -0.0223323  -0.0075257  -0.0079988   0.0000000
 2222222222/00/00          -0.0000000  -0.0000000   0.0000000  -0.0125781   0.7768949   0.0064272  -0.0008583   0.0006217
                            0.0000002  -0.0000002   0.0000003   0.5492029
 22222222220/00/0           0.0000000   0.0000000  -0.0000000   0.6791202  -0.3775430  -0.0043211   0.0021119  -0.0008620
                            0.0000001   0.0000002  -0.0000002   0.5492025
 22222222220/000/           0.0010046  -0.0190350  -0.0023120   0.0011414  -0.0055255   0.6721128   0.0274620   0.0174209
                           -0.5984694  -0.2016771  -0.2143549   0.0000003
 222222222200/0/0          -0.0010047   0.0190351   0.0023120   0.0011415  -0.0055255   0.6721128   0.0274620   0.0174210
                            0.5984695   0.2016772   0.2143550  -0.0000002
 222222222200/00/           0.0000000  -0.0000000   0.0000000  -0.6665420  -0.3993525  -0.0021062  -0.0012535   0.0002402
                            0.0000002  -0.0000001   0.0000002   0.5492025
 2222222222/0000/          -0.0191720  -0.0010373   0.0002095   0.0014715  -0.0008754   0.0026021  -0.4048826   0.5374812
                            0.0265770  -0.5207789   0.4157762  -0.0000001
 222222222200//00           0.0191721   0.0010373  -0.0002095   0.0014710  -0.0008749   0.0026022  -0.4048823   0.5374804
                           -0.0265770   0.5207795  -0.4157767   0.0000001
 2222222222/000/0          -0.0003325   0.0022975  -0.0190605  -0.0010728   0.0005201  -0.0324116   0.5367849   0.4045190
                           -0.2931131   0.3645581   0.4753619  -0.0000000
 22222222220/0/00           0.0003325  -0.0022975   0.0190604  -0.0010730   0.0005201  -0.0324115   0.5367844   0.4045185
                            0.2931133  -0.3645584  -0.4753626  -0.0000000
 22222222220000//           0.0005986  -0.0113412  -0.0013775  -0.0000000   0.0000000  -0.0000000   0.0000000   0.0000000
                            0.1131670   0.0381359   0.0405332  -0.0000000
 2222220222/2/000          -0.1002522  -0.0054242   0.0010953   0.0000000  -0.0000000  -0.0000000  -0.0000000   0.0000001
                            0.0000829  -0.0016236   0.0012963   0.0000000
 2222220222//2000          -0.0017389   0.0120138  -0.0996683  -0.0000000   0.0000000  -0.0000000   0.0000001   0.0000000
                           -0.0009138   0.0011366   0.0014820   0.0000000
 22222202222//000           0.0052534  -0.0995358  -0.0120895   0.0000000  -0.0000000   0.0000000   0.0000000   0.0000000
                           -0.0018658  -0.0006288  -0.0006683  -0.0000000
 2222222222000/0/          -0.0114229  -0.0006180   0.0001248  -0.0000000   0.0000000   0.0000000   0.0000001  -0.0000001
                           -0.0050256   0.0984762  -0.0786208   0.0000000
 2222222222000//0          -0.0001981   0.0013689  -0.0113563  -0.0000000  -0.0000000   0.0000000  -0.0000000  -0.0000000
                            0.0554260  -0.0689358  -0.0898882  -0.0000000
 2222220222/20/00          -0.0000000  -0.0000000   0.0000000   0.0005180  -0.0749474  -0.0006188   0.0000811  -0.0000594
                           -0.0000000   0.0000000  -0.0000000  -0.0537745
 2222220222/02/00          -0.0000000  -0.0000000   0.0000000   0.0019085  -0.0749249  -0.0006211   0.0000845  -0.0000605
                           -0.0000000   0.0000000  -0.0000000  -0.0537745
 22222202222/00/0          -0.0000000   0.0000000  -0.0000000  -0.0658431   0.0358086   0.0004124  -0.0002039   0.0000829
                           -0.0000000  -0.0000000   0.0000000  -0.0537745
 22222202222/000/          -0.0001905   0.0036089   0.0004383  -0.0001107   0.0005358  -0.0651766  -0.0026631  -0.0016894
                            0.0584278   0.0196895   0.0209272  -0.0000000
 222222022220/0/0           0.0001905  -0.0036089  -0.0004383  -0.0001107   0.0005358  -0.0651766  -0.0026631  -0.0016894
                           -0.0584277  -0.0196895  -0.0209272   0.0000000
 22222202220/20/0          -0.0000000   0.0000000  -0.0000000  -0.0651673   0.0370240   0.0004212  -0.0002035   0.0000833
                            0.0000000  -0.0000000   0.0000001  -0.0537745
 222222022220/00/           0.0000000  -0.0000000   0.0000000   0.0646494   0.0379236   0.0001976   0.0001224  -0.0000239
                           -0.0000000   0.0000000  -0.0000000  -0.0537745
 222222022202/0/0          -0.0008712   0.0165065   0.0020049  -0.0001095   0.0005301  -0.0644820  -0.0026347  -0.0016714
                           -0.0568850  -0.0191696  -0.0203746   0.0000000
 22222202220/200/           0.0008712  -0.0165064  -0.0020049  -0.0001095   0.0005301  -0.0644820  -0.0026347  -0.0016714
                            0.0568849   0.0191695   0.0203746  -0.0000000
 222222022202/00/          -0.0000000  -0.0000000   0.0000000   0.0639346   0.0391164   0.0002087   0.0001194  -0.0000224
                           -0.0000000   0.0000000  -0.0000000  -0.0537745
 2222220222/2000/           0.0036349   0.0001967  -0.0000397  -0.0001427   0.0000849  -0.0002523   0.0392625  -0.0521210
                           -0.0025947   0.0508429  -0.0405916   0.0000000
 222222022202//00          -0.0036349  -0.0001967   0.0000397  -0.0001427   0.0000849  -0.0002523   0.0392625  -0.0521209
                            0.0025947  -0.0508430   0.0405917  -0.0000000
 2222220222/020/0           0.0000631  -0.0004356   0.0036137   0.0001040  -0.0000504   0.0031430  -0.0520534  -0.0392273
                            0.0286162  -0.0355913  -0.0464089   0.0000000
 22222202220/2/00          -0.0000630   0.0004356  -0.0036137   0.0001040  -0.0000504   0.0031430  -0.0520534  -0.0392272
                           -0.0286162   0.0355913   0.0464089   0.0000000
 222222022220//00           0.0166253   0.0008995  -0.0001816  -0.0001411   0.0000839  -0.0002497   0.0388442  -0.0515656
                            0.0025262  -0.0495006   0.0395200  -0.0000000
 2222220222/0200/          -0.0166252  -0.0008995   0.0001816  -0.0001411   0.0000840  -0.0002496   0.0388441  -0.0515656
                           -0.0025262   0.0495004  -0.0395198   0.0000000
 22222202222/0/00           0.0002884  -0.0019923   0.0165284   0.0001029  -0.0000499   0.0031095  -0.0514988  -0.0388093
                           -0.0278607   0.0346516   0.0451836  -0.0000000
 2222220222/200/0          -0.0002884   0.0019923  -0.0165284   0.0001029  -0.0000499   0.0031095  -0.0514988  -0.0388093
                            0.0278606  -0.0346515  -0.0451835  -0.0000000

 Coefficients of fixed reference functions:
 ==========================================

 State      Coefficients
 1           0.957836    0.016614   -0.050192    0.000000    0.000000   -0.000000    0.000000   -0.000000    0.038888   -0.000675
            -0.002038    0.000000
 2           0.051824   -0.114783    0.950992    0.000000   -0.000000    0.000000    0.000000   -0.000000    0.002104    0.004660
             0.038610   -0.000000
 3          -0.010465    0.952258    0.115506   -0.000000   -0.000000   -0.000000   -0.000000   -0.000000   -0.000425   -0.038661
             0.004690    0.000000
 4           0.000000    0.000000   -0.000000    0.856521    0.001630   -0.001533    0.002102    0.436198   -0.000000    0.000000
             0.000000    0.000000
 5          -0.000000   -0.000000    0.000000   -0.436170   -0.007893    0.000743   -0.001250    0.856504    0.000000   -0.000000
            -0.000000   -0.000000
 6          -0.000000   -0.000000   -0.000000   -0.005120    0.960044   -0.046297    0.003717    0.006285    0.000000   -0.000000
            -0.000000   -0.000000
 7          -0.000000    0.000000   -0.000000    0.002621    0.039227    0.766742   -0.578333    0.000187    0.000000    0.000000
             0.000000    0.000000
 8           0.000000    0.000000   -0.000000   -0.001056    0.024884    0.577813    0.767736    0.000311   -0.000001    0.000000
             0.000000   -0.000000
 9           0.001597   -0.017615   -0.035967   -0.000000    0.000000    0.000000   -0.000000   -0.000000   -0.038268   -0.422047
             0.861722    0.000000
 10         -0.031298    0.021909   -0.012120    0.000000    0.000000   -0.000000    0.000000   -0.000000    0.749858    0.524919
             0.290390   -0.000000
 11          0.024987    0.028568   -0.012882   -0.000000    0.000000   -0.000001   -0.000000    0.000000   -0.598667    0.684463
             0.308645    0.000000
 12         -0.000000   -0.000000    0.000000   -0.000000    0.000000   -0.000000    0.000000    0.000000    0.000000    0.000000
            -0.000000    0.961074

 Coefficients of rotated reference functions:
 ============================================

 State      Coefficients
 1           0.960085   -0.000000   -0.000000    0.000000   -0.000000    0.000000   -0.000000    0.000000    0.000043   -0.000412
             0.000356   -0.000000
 2          -0.000000    0.960085    0.000000   -0.000000    0.000000   -0.000000    0.000000    0.000000   -0.000456   -0.000222
            -0.000202    0.000000
 3          -0.000000    0.000000    0.960085    0.000000   -0.000000   -0.000000   -0.000000   -0.000000   -0.000297    0.000281
             0.000361   -0.000000
 4           0.000000   -0.000000    0.000000    0.961201    0.000000   -0.000000    0.000000   -0.000000   -0.000000    0.000000
            -0.000000   -0.000000
 5          -0.000000    0.000000   -0.000000    0.000000    0.961201   -0.000000   -0.000000   -0.000000   -0.000000   -0.000000
             0.000000    0.000000
 6           0.000000   -0.000000   -0.000000   -0.000000   -0.000000    0.961201    0.000000    0.000000    0.000000    0.000000
             0.000000    0.000000
 7          -0.000000    0.000000   -0.000000    0.000000   -0.000000    0.000000    0.961201   -0.000000    0.000000   -0.000000
            -0.000000   -0.000000
 8           0.000000    0.000000   -0.000000   -0.000000   -0.000000    0.000000   -0.000000    0.961201    0.000000   -0.000000
            -0.000000    0.000000
 9           0.000043   -0.000456   -0.000297   -0.000000   -0.000000    0.000000    0.000000    0.000000    0.961124    0.000000
             0.000000   -0.000000
 10         -0.000412   -0.000222    0.000281    0.000000   -0.000000    0.000000   -0.000000   -0.000000    0.000000    0.961124
            -0.000000    0.000000
 11          0.000356   -0.000202    0.000361   -0.000000    0.000000    0.000000   -0.000000   -0.000000    0.000000   -0.000000
             0.961124   -0.000000
 12         -0.000000    0.000000   -0.000000   -0.000000    0.000000    0.000000   -0.000000    0.000000   -0.000000    0.000000
            -0.000000    0.961074


 RESULTS FOR STATE 1.1
 =====================

 Coefficient of reference function:   C(0) = 0.95783646 (fixed)   0.96016415 (relaxed)   0.96008465 (rotated)

 Energy contributions of configuration classes

 CLASS          SQ.NORM        ECORR1        ECORR2
 +++++++++++++++++++++++++++++++++++++++++++++++++++
 Internals    0.00071316   -0.00134407   -0.64946139
 Singles      0.01560253   -0.05386998   -0.06055280
 Pairs        0.06856242   -0.00000000   -0.04790172
 Total        1.08487812   -0.05521405   -0.75791591
 +++++++++++++++++++++++++++++++++++++++++++++++++++


 Reference energy                   -6173.75225015
 Nuclear energy                         0.00000000
 Kinetic energy                      7115.17484606
 One electron energy                -8491.00580775
 Two electron energy                 2316.49533600
 Virial quotient                       -0.86779462
 Correlation energy                    -0.75822159
 !MRCI STATE 1.1 Energy             -6174.510471741653

 Properties without orbital relaxation:

 !MRCI STATE 1.1 Dipole moment          0.00000000     0.00000000     0.00000000
 Dipole moment /Debye                   0.00000000     0.00000000     0.00000000

 Cluster corrected energies         -6174.57482816 (Davidson, fixed reference)
 Cluster corrected energies         -6174.57469194 (Davidson, relaxed reference)
 Cluster corrected energies         -6174.57482816 (Davidson, rotated reference)

 Cluster corrected energies         -6174.57256569 (Pople, fixed reference)
 Cluster corrected energies         -6174.57242492 (Pople, relaxed reference)
 Cluster corrected energies         -6174.57256569 (Pople, rotated reference)



 RESULTS FOR STATE 2.1
 =====================

 Maximum overlap with reference state  3

 Coefficient of reference function:   C(0) = 0.95099157 (fixed)   0.96016416 (relaxed)   0.96008465 (rotated)

 Energy contributions of configuration classes

 CLASS          SQ.NORM        ECORR1        ECORR2
 +++++++++++++++++++++++++++++++++++++++++++++++++++
 Internals    0.00071316   -0.00134407   -0.64946143
 Singles      0.01560249   -0.05386995   -0.06055278
 Pairs        0.06856246    0.00000000   -0.04790171
 Total        1.08487811   -0.05521402   -0.75791591
 +++++++++++++++++++++++++++++++++++++++++++++++++++


 Reference energy                   -6173.75225015
 Nuclear energy                         0.00000000
 Kinetic energy                      7115.17484439
 One electron energy                -8491.00580668
 Two electron energy                 2316.49533494
 Virial quotient                       -0.86779462
 Correlation energy                    -0.75822159
 !MRCI STATE 2.1 Energy             -6174.510471741592

 Properties without orbital relaxation:

 !MRCI STATE 2.1 Dipole moment          0.00000000     0.00000000     0.00000000
 Dipole moment /Debye                   0.00000000     0.00000000     0.00000000

 Cluster corrected energies         -6174.57482815 (Davidson, fixed reference)
 Cluster corrected energies         -6174.57469194 (Davidson, relaxed reference)
 Cluster corrected energies         -6174.57482815 (Davidson, rotated reference)

 Cluster corrected energies         -6174.57256568 (Pople, fixed reference)
 Cluster corrected energies         -6174.57242491 (Pople, relaxed reference)
 Cluster corrected energies         -6174.57256568 (Pople, rotated reference)



 RESULTS FOR STATE 3.1
 =====================

 Maximum overlap with reference state  2

 Coefficient of reference function:   C(0) = 0.95225768 (fixed)   0.96016414 (relaxed)   0.96008464 (rotated)

 Energy contributions of configuration classes

 CLASS          SQ.NORM        ECORR1        ECORR2
 +++++++++++++++++++++++++++++++++++++++++++++++++++
 Internals    0.00071316   -0.00134407   -0.64946135
 Singles      0.01560257   -0.05387000   -0.06055282
 Pairs        0.06856242   -0.00000000   -0.04790174
 Total        1.08487815   -0.05521408   -0.75791591
 +++++++++++++++++++++++++++++++++++++++++++++++++++


 Reference energy                   -6173.75225015
 Nuclear energy                         0.00000000
 Kinetic energy                      7115.17484250
 One electron energy                -8491.00580403
 Two electron energy                 2316.49533229
 Virial quotient                       -0.86779462
 Correlation energy                    -0.75822159
 !MRCI STATE 3.1 Energy             -6174.510471741512

 Properties without orbital relaxation:

 !MRCI STATE 3.1 Dipole moment          0.00000000     0.00000000     0.00000000
 Dipole moment /Debye                   0.00000000     0.00000000     0.00000000

 Cluster corrected energies         -6174.57482818 (Davidson, fixed reference)
 Cluster corrected energies         -6174.57469197 (Davidson, relaxed reference)
 Cluster corrected energies         -6174.57482818 (Davidson, rotated reference)

 Cluster corrected energies         -6174.57256572 (Pople, fixed reference)
 Cluster corrected energies         -6174.57242494 (Pople, relaxed reference)
 Cluster corrected energies         -6174.57256572 (Pople, rotated reference)



 RESULTS FOR STATE 4.1
 =====================

[...]
 21  1     9    1  |1 0>          0.00%    0.00%    0.00%    0.00%    0.01%    0.00%    0.01%    0.01%
 22  1    10    1  |1 0>          0.00%    0.00%    0.00%    0.00%    0.00%    0.00%    0.00%    2.71%
 23  1    11    1  |1 0>          0.00%    0.00%    0.00%    0.00%    0.00%    0.00%    0.00%    3.56%
 24  1    12    1  |1 0>          0.00%    0.00%    0.00%    0.00%    0.00%    0.00%    0.00%    0.02%
 25  1     1    1  |1 1>-         0.73%    0.08%    0.01%    5.23%    0.00%    0.00%    0.00%    0.00%
 26  1     2    1  |1 1>-         0.00%    0.00%    5.22%    0.01%    0.05%    0.06%    0.02%    0.00%
 27  1     3    1  |1 1>-         0.00%    0.00%    0.09%    0.00%    3.71%    3.27%    1.28%    0.00%
 28  1     4    1  |1 1>-         0.01%    0.01%    0.00%    0.00%    0.00%    0.00%    0.00%   23.94%
 29  1     5    1  |1 1>-         0.02%    0.02%    0.00%    0.00%    0.00%    0.00%    0.00%    8.64%
 30  1     6    1  |1 1>-         0.00%    0.00%    0.01%    0.00%    0.00%    0.00%    0.00%    0.97%
 31  1     7    1  |1 1>-         0.00%    0.00%    0.00%    0.00%    0.01%    0.01%    0.00%    0.12%
 32  1     8    1  |1 1>-         0.00%    0.00%    0.00%    0.00%    0.01%    0.01%    0.00%    0.16%
 33  1     9    1  |1 1>-         0.00%    0.00%    0.00%    0.00%    0.00%    0.00%    0.00%    0.21%
 34  1    10    1  |1 1>-         0.00%    0.00%    0.00%    0.00%    0.00%    0.00%    0.00%    0.00%
 35  1    11    1  |1 1>-         0.00%    0.00%    0.00%    0.00%    0.00%    0.00%    0.00%    0.11%
 36  1    12    1  |1 1>-         0.00%    0.00%    0.00%    0.00%    0.00%    0.00%    0.00%    1.56%
 37  1     1    1  |0 0>          9.96%   89.31%    0.00%    0.00%    0.00%    0.00%    0.00%    0.00%
 38  1     2    1  |0 0>          0.65%    0.00%    0.00%   89.30%    0.00%    0.00%    0.00%    0.00%
 39  1     3    1  |0 0>          0.00%    0.00%    0.00%    0.00%   88.80%    0.50%    0.00%    0.00%
 40  1     4    1  |0 0>          0.00%    0.00%   89.29%    0.00%    0.00%    0.02%    0.00%    0.00%
 41  1     5    1  |0 0>          0.00%    0.00%    0.02%    0.00%    0.50%   88.79%    0.00%    0.00%
 42  1     6    1  |0 0>          0.00%    0.00%    0.00%    0.00%    0.00%    0.00%   96.09%    0.00%

   Total
 Nr Sym  State Sym Spin / Nr.     17       18       19       20       21       22       23       24

  1  1     1    1  |1 1>+         0.00%    0.00%    0.00%    0.00%    0.00%    0.01%    0.01%    0.01%
  2  1     2    1  |1 1>+         0.00%    0.00%    0.00%    0.00%    0.01%    0.00%    0.00%    0.00%
  3  1     3    1  |1 1>+         0.00%    0.00%    0.01%    0.00%    0.00%    0.00%    0.00%    0.00%
  4  1     4    1  |1 1>+        25.07%    0.06%    0.00%   12.13%    1.53%    0.00%    0.00%    0.00%
  5  1     5    1  |1 1>+         7.71%    0.02%    0.01%   39.43%    4.76%    0.00%    0.00%    0.00%
  6  1     6    1  |1 1>+         1.10%    0.06%    0.01%    1.49%   12.97%    0.00%    0.00%    0.00%
  7  1     7    1  |1 1>+         0.02%   16.33%    9.35%    0.00%    0.01%   10.39%   10.43%    0.00%
  8  1     8    1  |1 1>+         0.01%    9.25%    5.11%    0.00%    0.00%   18.31%   18.73%    0.00%
  9  1     9    1  |1 1>+         0.18%    0.78%    1.15%    0.62%    4.79%    0.01%    0.01%    0.05%
 10  1    10    1  |1 1>+         0.04%    2.08%    1.98%    0.05%    0.49%    2.69%    2.68%   20.32%
 11  1    11    1  |1 1>+         0.05%    3.48%    3.44%    0.06%    0.56%    1.72%    1.66%   12.95%
 12  1    12    1  |1 1>+         1.57%    0.00%    0.00%    0.00%    0.00%    0.00%    0.00%    0.00%
 13  1     1    1  |1 0>          0.00%    0.00%    0.00%    0.00%    0.01%    0.00%    0.00%    0.00%
 14  1     2    1  |1 0>          0.00%    0.00%    0.00%    0.00%    0.00%    0.00%    0.02%    0.01%
 15  1     3    1  |1 0>          0.00%    0.00%    0.00%    0.01%    0.00%    0.00%    0.00%    0.00%
 16  1     4    1  |1 0>          0.00%    0.01%   57.80%    0.02%    0.02%    0.00%    0.00%    0.00%
 17  1     5    1  |1 0>          0.02%   33.84%    0.02%    0.00%    0.00%    0.00%    0.00%    0.00%
 18  1     6    1  |1 0>          0.06%    0.00%    0.00%    0.03%    0.00%   53.96%    3.75%    0.00%
 19  1     7    1  |1 0>         20.93%    0.01%    0.00%   13.11%    1.32%    0.09%    0.01%    0.00%
 20  1     8    1  |1 0>          4.69%    0.29%    0.00%    1.32%   13.14%    0.04%    0.00%    0.00%
 21  1     9    1  |1 0>          1.22%    0.00%    0.00%    1.20%    0.08%    0.46%    6.60%   26.83%
 22  1    10    1  |1 0>          3.05%    0.02%    0.00%    3.95%    2.02%    0.05%    0.74%    3.05%
 23  1    11    1  |1 0>          2.08%    0.06%    0.00%    1.42%    4.47%    0.06%    0.85%    3.44%
 24  1    12    1  |1 0>          0.00%    1.62%    0.00%    0.00%    0.00%    0.00%    0.00%    0.00%
 25  1     1    1  |1 1>-         0.00%    0.01%    0.01%    0.00%    0.00%    0.00%    0.00%    0.00%
 26  1     2    1  |1 1>-         0.00%    0.00%    0.00%    0.01%    0.00%    0.00%    0.00%    0.00%
 27  1     3    1  |1 1>-         0.00%    0.00%    0.00%    0.00%    0.00%    0.02%    0.00%    0.01%
 28  1     4    1  |1 1>-         1.04%    0.23%    0.01%    1.70%   13.57%    0.00%    0.00%    0.00%
 29  1     5    1  |1 1>-         0.32%    0.09%    0.02%    4.82%   37.72%    0.00%    0.00%    0.00%
 30  1     6    1  |1 1>-        24.59%    0.07%    0.00%   12.69%    1.74%    0.01%    0.13%    0.00%
 31  1     7    1  |1 1>-         0.08%    9.14%    5.40%    0.04%    0.00%    2.54%   34.10%    0.00%
 32  1     8    1  |1 1>-         0.00%   16.25%    9.05%    0.00%    0.01%    1.44%   19.64%    0.00%
 33  1     9    1  |1 1>-         4.92%    0.00%    0.01%    4.71%    0.58%    1.58%    0.12%    6.44%
 34  1    10    1  |1 1>-         0.48%    3.97%    4.03%    0.48%    0.09%    2.44%    0.19%    9.96%
 35  1    11    1  |1 1>-         0.70%    2.32%    2.53%    0.65%    0.06%    4.14%    0.30%   16.93%
 36  1    12    1  |1 1>-         0.07%    0.02%    0.00%    0.00%    0.00%    0.00%    0.00%    0.00%
 37  1     1    1  |0 0>          0.00%    0.00%    0.00%    0.01%    0.04%    0.00%    0.00%    0.00%
 38  1     2    1  |0 0>          0.00%    0.00%    0.05%    0.00%    0.00%    0.00%    0.00%    0.00%
 39  1     3    1  |0 0>          0.00%    0.00%    0.00%    0.00%    0.00%    0.02%    0.03%    0.00%
 40  1     4    1  |0 0>          0.00%    0.00%    0.00%    0.04%    0.01%    0.00%    0.00%    0.00%
 41  1     5    1  |0 0>          0.00%    0.00%    0.00%    0.00%    0.00%    0.03%    0.02%    0.00%
 42  1     6    1  |0 0>          0.00%    0.00%    0.00%    0.00%    0.00%    0.00%    0.00%    0.03%

   Total
 Nr Sym  State Sym Spin / Nr.     25       26       27       28       29       30       31       32

  1  1     1    1  |1 1>+         0.00%    0.00%    0.00%    0.00%    0.00%    0.00%    0.00%    0.00%
  2  1     2    1  |1 1>+         0.00%    0.00%    0.00%    0.00%    0.00%    0.00%    0.00%    0.00%
  3  1     3    1  |1 1>+         0.00%    0.00%    0.00%    0.00%    0.00%    0.00%    0.00%    0.00%
  4  1     4    1  |1 1>+         0.04%    4.03%    0.02%    3.28%   46.99%    0.00%    0.00%    1.73%
  5  1     5    1  |1 1>+         0.01%    1.25%    0.00%    0.78%    8.44%    0.00%    0.01%   16.99%
  6  1     6    1  |1 1>+         0.07%    0.01%    3.94%   23.09%    1.87%    0.07%    0.49%   12.19%
  7  1     7    1  |1 1>+         2.49%    0.03%    0.04%    0.05%    0.01%   11.16%   22.44%    0.10%
  8  1     8    1  |1 1>+         1.42%    0.02%    0.02%    0.02%    0.00%    6.29%   12.82%    0.05%
  9  1     9    1  |1 1>+         7.40%    0.00%   20.99%    0.00%    0.00%    0.00%    0.00%    0.00%
 10  1    10    1  |1 1>+         7.59%    0.17%    3.33%    0.00%    0.00%    0.00%    0.00%    0.00%
 11  1    11    1  |1 1>+        13.15%    0.27%    3.98%    0.00%    0.00%    0.00%    0.00%    0.00%
 12  1    12    1  |1 1>+         0.31%   29.25%    0.15%    0.00%    0.00%    0.00%    0.00%    0.00%
 13  1     1    1  |1 0>          0.00%    0.00%    0.00%    0.00%    0.00%    0.00%    0.00%    0.00%
 14  1     2    1  |1 0>          0.00%    0.00%    0.00%    0.00%    0.00%    0.00%    0.00%    0.00%
 15  1     3    1  |1 0>          0.00%    0.00%    0.00%    0.00%    0.00%    0.00%    0.00%    0.00%
 16  1     4    1  |1 0>          0.00%    0.00%    0.00%    0.00%    0.00%    0.02%   33.12%    0.04%
 17  1     5    1  |1 0>          5.26%    0.06%    0.03%    0.01%    0.00%   59.89%    0.08%    0.00%
 18  1     6    1  |1 0>          0.00%    0.01%    0.00%    0.00%    0.03%    0.00%    0.00%    0.04%
 19  1     7    1  |1 0>          0.00%    2.28%    1.72%    9.48%    4.92%    0.00%    0.15%    1.51%
 20  1     8    1  |1 0>          0.07%    1.68%    2.27%    5.83%    8.16%    0.00%    0.09%   38.11%
 21  1     9    1  |1 0>          0.05%    5.35%    0.14%    0.00%    0.00%    0.00%    0.00%    0.00%
 22  1    10    1  |1 0>          0.00%    6.94%   18.91%    0.00%    0.00%    0.00%    0.00%    0.00%
 23  1    11    1  |1 0>          0.45%   15.83%    9.23%    0.00%    0.00%    0.00%    0.00%    0.00%
 24  1    12    1  |1 0>         29.20%    0.35%    0.17%    0.00%    0.00%    0.00%    0.00%    0.00%
 25  1     1    1  |1 1>-         0.00%    0.00%    0.00%    0.00%    0.00%    0.00%    0.00%    0.00%
 26  1     2    1  |1 1>-         0.00%    0.00%    0.00%    0.00%    0.00%    0.00%    0.00%    0.00%
 27  1     3    1  |1 1>-         0.00%    0.00%    0.00%    0.00%    0.00%    0.00%    0.00%    0.00%
 28  1     4    1  |1 1>-         0.03%    0.01%    3.90%   44.32%    3.26%    0.01%    0.04%    2.27%
 29  1     5    1  |1 1>-         0.01%    0.01%    1.40%   11.52%    0.65%    0.00%    0.18%   13.21%
 30  1     6    1  |1 1>-         0.04%    3.95%    0.02%    1.61%   25.61%    0.00%    0.01%   13.68%
 31  1     7    1  |1 1>-         1.45%    0.00%    0.01%    0.01%    0.03%    8.20%   11.14%    0.08%
 32  1     8    1  |1 1>-         2.50%    0.05%    0.01%    0.00%    0.02%   14.34%   19.45%    0.01%
 33  1     9    1  |1 1>-         0.49%   22.33%    0.13%    0.00%    0.00%    0.00%    0.00%    0.00%
 34  1    10    1  |1 1>-        15.70%    4.21%    0.04%    0.00%    0.00%    0.00%    0.00%    0.00%
 35  1    11    1  |1 1>-        12.06%    1.80%    0.14%    0.00%    0.00%    0.00%    0.00%    0.00%
 36  1    12    1  |1 1>-         0.20%    0.11%   29.39%    0.00%    0.00%    0.00%    0.00%    0.00%
 37  1     1    1  |0 0>          0.00%    0.00%    0.00%    0.00%    0.00%    0.00%    0.00%    0.00%
 38  1     2    1  |0 0>          0.00%    0.00%    0.00%    0.00%    0.00%    0.00%    0.00%    0.00%
 39  1     3    1  |0 0>          0.00%    0.00%    0.00%    0.00%    0.00%    0.00%    0.00%    0.00%
 40  1     4    1  |0 0>          0.00%    0.00%    0.00%    0.00%    0.00%    0.00%    0.00%    0.00%
 41  1     5    1  |0 0>          0.00%    0.00%    0.00%    0.00%    0.00%    0.00%    0.00%    0.00%
 42  1     6    1  |0 0>          0.00%    0.00%    0.00%    0.00%    0.00%    0.00%    0.00%    0.00%

   Total
 Nr Sym  State Sym Spin / Nr.     33       34       35       36       37       38       39       40

  1  1     1    1  |1 1>+         0.00%    0.00%    0.00%    0.00%    0.00%    0.00%    0.00%    0.00%
  2  1     2    1  |1 1>+         0.00%    0.00%    0.00%    0.00%    0.00%    0.00%    0.00%    0.02%
  3  1     3    1  |1 1>+         0.00%    0.00%    0.00%    0.00%    0.00%    0.00%    0.00%    0.00%
  4  1     4    1  |1 1>+         1.70%    0.00%    1.18%    0.87%    0.01%    0.00%    0.00%    0.00%
  5  1     5    1  |1 1>+        13.41%    0.00%    3.84%    2.79%    0.04%    0.00%    0.01%    0.00%
  6  1     6    1  |1 1>+        15.63%    0.00%    0.04%    0.16%    1.99%    0.00%    0.00%    0.28%
  7  1     7    1  |1 1>+         0.26%   12.07%    0.61%    0.77%    0.11%    2.80%    0.27%    0.00%
  8  1     8    1  |1 1>+         0.13%   21.26%    0.28%    0.34%    0.08%    5.12%    0.55%    0.00%
  9  1     9    1  |1 1>+         0.00%    0.00%    6.18%   12.03%   25.14%    0.00%    0.10%   12.68%
 10  1    10    1  |1 1>+         0.00%    0.00%    3.49%    5.20%    7.54%    3.22%   32.81%    1.19%
 11  1    11    1  |1 1>+         0.00%    0.00%    8.85%    7.97%   10.53%    2.24%   19.45%    1.30%
 12  1    12    1  |1 1>+         0.00%    0.00%    0.00%    0.00%    0.00%    0.00%    0.00%    0.13%
 13  1     1    1  |1 0>          0.00%    0.00%    0.00%    0.00%    0.00%    0.00%    0.00%    0.02%
 14  1     2    1  |1 0>          0.00%    0.00%    0.00%    0.00%    0.00%    0.00%    0.00%    0.00%
 15  1     3    1  |1 0>          0.00%    0.00%    0.00%    0.00%    0.00%    0.00%    0.00%    0.00%
 16  1     4    1  |1 0>          0.16%    0.00%    3.60%    4.61%    0.53%    0.00%    0.00%    0.00%
 17  1     5    1  |1 0>          0.00%    0.00%    0.00%    0.00%    0.00%    0.00%    0.00%    0.00%
 18  1     6    1  |1 0>          0.05%   33.25%    0.00%    0.00%    0.00%    4.80%    3.93%    0.00%
 19  1     7    1  |1 0>         37.19%    0.06%    0.99%    0.31%    0.88%    0.01%    0.00%    0.09%
 20  1     8    1  |1 0>          1.11%    0.02%    0.30%    0.72%    1.17%    0.00%    0.00%    0.19%
 21  1     9    1  |1 0>          0.00%    0.00%    5.96%    3.10%    0.23%   21.34%   24.46%    0.01%
 22  1    10    1  |1 0>          0.00%    0.00%   10.29%    1.37%   27.27%    2.50%    3.32%    8.69%
 23  1    11    1  |1 0>          0.00%    0.00%    9.22%   16.05%   13.33%    2.23%    4.08%    6.48%
 24  1    12    1  |1 0>          0.00%    0.00%    0.00%    0.00%    0.00%    0.00%    0.00%    0.11%
 25  1     1    1  |1 1>-         0.00%    0.00%    0.00%    0.00%    0.00%    0.00%    0.00%    0.00%
 26  1     2    1  |1 1>-         0.00%    0.00%    0.00%    0.00%    0.00%    0.00%    0.00%    0.00%
 27  1     3    1  |1 1>-         0.00%    0.00%    0.00%    0.00%    0.00%    0.00%    0.00%    0.00%
 28  1     4    1  |1 1>-         3.07%    0.00%    0.03%    0.12%    2.16%    0.00%    0.00%    0.28%
 29  1     5    1  |1 1>-        14.82%    0.00%    0.08%    0.33%    6.03%    0.00%    0.00%    0.10%
 30  1     6    1  |1 1>-        12.31%    0.07%    1.23%    0.93%    0.01%    0.00%    0.04%    0.00%
 31  1     7    1  |1 1>-         0.01%   21.14%    0.51%    0.35%    0.05%    0.23%    5.22%    0.00%
 32  1     8    1  |1 1>-         0.17%   12.12%    0.43%    0.80%    0.08%    0.16%    3.09%    0.00%
 33  1     9    1  |1 1>-         0.00%    0.00%   21.82%   13.96%    0.09%   10.13%    0.21%    0.02%
 34  1    10    1  |1 1>-         0.00%    0.00%    3.33%   24.05%    2.11%   17.52%    0.73%    0.01%
 35  1    11    1  |1 1>-         0.00%    0.00%   17.69%    3.13%    0.61%   27.66%    1.69%    0.02%
 36  1    12    1  |1 1>-         0.00%    0.00%    0.00%    0.00%    0.00%    0.00%    0.00%   68.38%
 37  1     1    1  |0 0>          0.00%    0.00%    0.00%    0.00%    0.03%    0.00%    0.00%    0.00%
 38  1     2    1  |0 0>          0.00%    0.00%    0.01%    0.01%    0.00%    0.00%    0.00%    0.00%
 39  1     3    1  |0 0>          0.00%    0.00%    0.00%    0.00%    0.00%    0.02%    0.01%    0.00%
 40  1     4    1  |0 0>          0.00%    0.00%    0.02%    0.01%    0.00%    0.00%    0.00%    0.00%
 41  1     5    1  |0 0>          0.00%    0.00%    0.00%    0.00%    0.00%    0.01%    0.02%    0.00%
 42  1     6    1  |0 0>          0.00%    0.00%    0.00%    0.00%    0.00%    0.00%    0.00%    0.00%

   Total
 Nr Sym  State Sym Spin / Nr.     41       42

  1  1     1    1  |1 1>+         0.00%    0.00%
  2  1     2    1  |1 1>+         0.00%    0.00%
  3  1     3    1  |1 1>+         0.00%    0.02%
  4  1     4    1  |1 1>+         0.29%    0.00%
  5  1     5    1  |1 1>+         0.09%    0.00%
  6  1     6    1  |1 1>+         0.00%    0.00%
  7  1     7    1  |1 1>+         0.00%    0.18%
  8  1     8    1  |1 1>+         0.00%    0.10%
  9  1     9    1  |1 1>+         0.02%    2.48%
 10  1    10    1  |1 1>+         0.01%    4.73%
 11  1    11    1  |1 1>+         0.01%    7.98%
 12  1    12    1  |1 1>+        68.47%    0.02%
 13  1     1    1  |1 0>          0.00%    0.00%
 14  1     2    1  |1 0>          0.00%    0.00%
 15  1     3    1  |1 0>          0.02%    0.00%
 16  1     4    1  |1 0>          0.00%    0.00%
 17  1     5    1  |1 0>          0.00%    0.38%
 18  1     6    1  |1 0>          0.00%    0.00%
 19  1     7    1  |1 0>          0.19%    0.00%
 20  1     8    1  |1 0>          0.09%    0.00%
 21  1     9    1  |1 0>          2.95%    0.00%
 22  1    10    1  |1 0>          5.12%    0.01%
 23  1    11    1  |1 0>          7.13%    0.02%
 24  1    12    1  |1 0>          0.01%   68.49%
 25  1     1    1  |1 1>-         0.00%    0.02%
 26  1     2    1  |1 1>-         0.02%    0.00%
 27  1     3    1  |1 1>-         0.00%    0.00%
 28  1     4    1  |1 1>-         0.00%    0.00%
 29  1     5    1  |1 1>-         0.00%    0.00%
 30  1     6    1  |1 1>-         0.28%    0.00%
 31  1     7    1  |1 1>-         0.00%    0.10%
 32  1     8    1  |1 1>-         0.00%    0.18%
 33  1     9    1  |1 1>-        12.23%    0.01%
 34  1    10    1  |1 1>-         1.28%    9.37%
 35  1    11    1  |1 1>-         1.66%    5.80%
 36  1    12    1  |1 1>-         0.13%    0.11%
 37  1     1    1  |0 0>          0.00%    0.00%
 38  1     2    1  |0 0>          0.00%    0.00%
 39  1     3    1  |0 0>          0.00%    0.00%
 40  1     4    1  |0 0>          0.00%    0.00%
 41  1     5    1  |0 0>          0.00%    0.00%
 42  1     6    1  |0 0>          0.00%    0.00%


 No matrix element <i|DMX|i> larger than 5E-7
 No matrix element <i|DMX|1> larger than 5E-7

 No matrix element <i|DMY|i> larger than 5E-7
 No matrix element <i|DMY|1> larger than 5E-7

 No matrix element <i|DMZ|i> larger than 5E-7
 No matrix element <i|DMZ|1> larger than 5E-7


 **********************************************************************************************************************************
 DATASETS  * FILE   NREC   LENGTH (MB)   RECORD NAMES
              1      24      116.29       500      610      700      900      950      970     1000      129      960     1700   
                                          VAR    BASINP    GEOM    SYMINP    ZMAT    AOBASIS   BASIS     P2S    ABASIS    OPER   
                                         1101     1401     1411     1412     1650     1100     1400     1410     1200     1210   
                                          SR      EKINR    POTR     PVPR    MOLCAS      S      EKIN      POT      H0       H01  
                                         1080     1600     1380     1700(1)
                                         AOSYM     SMH     JKOP     OPER   

              2       7     2424.87       700     1000      520     2100     2140     5203     5201   
                                         GEOM     BASIS   MCVARS     RHF     MCSCF    MRCI     MRCI   

 PROGRAMS   *        TOTAL        CI        CI        CI     MULTI   RHF-SCF       INT
 CPU TIMES  *    107771.90  98337.36   1064.17   8357.91      7.88      0.54      3.81
 REAL TIME  *    108958.15 SEC
 DISK USED  *         2.48 GB (local),       33.96 GB (total)
 SF USED    *        19.17 GB
 GA USED    *         0.00 MB       (max)       0.00 MB       (current)
 **********************************************************************************************************************************

 CI/aug-cc-pWCVQZ-DK3 energy=  -6174.370779087071

              CI              CI           MULTI         RHF-SCF
  -6174.44467249  -6174.31388494  -6173.68801129  -6172.99289534
 **********************************************************************************************************************************
 Molpro calculation terminated with 1 warning(s)
