
 Working directory              : /wrk/irikura/molpro.EGrQFzdryC/
 Global scratch directory       : /wrk/irikura/molpro.EGrQFzdryC/
 Wavefunction directory         : /home/irikura/wfu/
 Main file repository           : /wrk/irikura/molpro.EGrQFzdryC/

 id        : nistki

 Nodes            nprocs
 pn112695.nist.gov   16
 GA implementation: MPI file
 GA implementation (serial work in mppx): MPI file

 Using customized tuning parameters: mindgm=1; mindgv=20; mindgc=4; mindgr=1; noblas=0; minvec=7
 default implementation of scratch files=sf  


 Variables initialized (1040), CPU time= 0.01 sec
 ***,Sn SO-CI
 memory,1500,M;
 
 gprint,orbitals,civector,basis;
 
 symmetry,xyz
 geometry={Sn};
 
                                                                                 !basis=aug-cc-pwCVTZ-PP
 basis={
 ecp,sn,ECP28MDF;
 spdfg,sn,aug-cc-pwCVTZ-PP;C; spdf,1,even,nprim=1,ratio=3.0;
 }
 
                                                                                 ! spherical anion orbitals (4S)
 {rhf; wf,nelec=23,sym=2,spin=3}
 
 NTRIP=12
 NSING=15
 
                                                                                 ! add 6p to active space
 {multi
     closed,6,3
     occ,7,9
     wf,nelec=22,sym=1,spin=2;state,NTRIP;
     wf,nelec=22,sym=1,spin=0;state,NSING;
     expec2,lxx,lyy,lzz;
 }
 table, energy, ll
 title, Energies and &lt;L**2&gt; values
 
 core,0,0
 
 {ci;wf,sym=1,spin=2;state,NTRIP; save,5201.2}
 hlsdiag = energd4
 {ci;wf,sym=1,spin=0;state,NSING; save,5101.2}
 hlsdiag(NTRIP+1) = energd4
 
 table,hlsdiag
 
 {ci;hlsmat,ecp,5201.2,5101.2;print,vls=0,hls=0}                                 !compute and diagonalize SO matrix
 Commands initialized (846), CPU time= 0.01 sec, 717 directives.
 Default parameters read. Elapsed time= 0.13 sec

 Checking input...
 Passed
1


                                         ***  PROGRAM SYSTEM MOLPRO  ***
                                       Copyright, TTI GmbH Stuttgart, 2015
                                    Version 2023.2 linked Fri Sep 22 03:27:09 2023


 **********************************************************************************************************************************
 LABEL *   Sn SO-CI                                                                                                                                                      
  (32 PROC) 64 bit mpp version                                                           DATE: 13-Sep-24          TIME: 14:43:58  
 **********************************************************************************************************************************

 SHA1:             3c61bfe44d37c8635c785372c339f5cbdd4e4b59
 **********************************************************************************************************************************

 Memory per process:      1500 MW
 Total memory per node:  24000 MW

 GA preallocation disabled
 GA check disabled

 Variable memory set to 1500.0 MW


 ZSYMEL=XYZ

 SETTING BASIS          =    USERDEF


 Recomputing integrals since basis changed


 Using spherical harmonics

 Library entry Sn   ECP ECP28MDF                 selected for group  1
 Library entry SN     S AUG-CC-PWCVTZ-PP     selected for orbital group  1
 Even tempered Sn S diffuse               selected for group 1    nprim= 1    centre=  0.008    ratio= 3.000    dratio= 1.000
 Library entry SN     P AUG-CC-PWCVTZ-PP     selected for orbital group  1
 Even tempered Sn P diffuse               selected for group 1    nprim= 1    centre=  0.007    ratio= 3.000    dratio= 1.000
 Library entry SN     D AUG-CC-PWCVTZ-PP     selected for orbital group  1
 Even tempered Sn D diffuse               selected for group 1    nprim= 1    centre=  0.014    ratio= 3.000    dratio= 1.000
 Library entry SN     F AUG-CC-PWCVTZ-PP     selected for orbital group  1
 Even tempered Sn F diffuse               selected for group 1    nprim= 1    centre=  0.036    ratio= 3.000    dratio= 1.000
 Library entry SN     G AUG-CC-PWCVTZ-PP     selected for orbital group  1


 PROGRAM * SEWARD (Integral evaluation for generally contracted gaussian basis sets)     Author: Roland Lindh, 1990

 Geometry written to block  1 of record 700

 Orientation using atomic masses  
 Molecule type: Atom
 User-specified symmetry elements: XYZ
 Symmetry elements: XYZ
 Rotational constants:       0.0000000      0.0000000      0.0000000 GHz  (calculated with average atomic masses)

 Point group  Ci  



 ATOMIC COORDINATES

 NR  ATOM    CHARGE       X              Y              Z

   1  SN     22.00    0.000000000    0.000000000    0.000000000


          SN  CORE POTENTIAL

          g POTENTIAL

 POWERS             2
 EXPONENTIALS   1.000000    
 COEFFICIENTS   0.000000    

          s - g POTENTIAL

 POWERS             2              2
 EXPONENTIALS   17.42041       7.631155    
 COEFFICIENTS   279.9887       62.37781    

          p - g POTENTIAL

 POWERS             2              2              2              2
 EXPONENTIALS   16.13102       15.62808       7.325608       6.942519    
 COEFFICIENTS   66.16252       132.1744       16.33942       32.48896    

          d - g POTENTIAL

 POWERS             2              2              2              2
 EXPONENTIALS   15.51498       15.18816       5.456024       5.363105    
 COEFFICIENTS   36.38744       54.50784       8.696823       12.84021    

          f - g POTENTIAL

 POWERS             2              2
 EXPONENTIALS   12.28235       12.27215    
 COEFFICIENTS  -12.57633      -16.59594    


          SN  SPIN-ORBIT POTENTIAL

          p POTENTIAL

 POWERS             2              2              2              2
 EXPONENTIALS   16.13102       15.62808       7.325608       6.942519    
 COEFFICIENTS  -132.3250       132.1744      -32.67883       32.48896    

          d POTENTIAL

 POWERS             2              2              2              2
 EXPONENTIALS   15.51498       15.18816       5.456024       5.363105    
 COEFFICIENTS  -36.38744       36.33856      -8.696823       8.560139    

          f POTENTIAL

 POWERS             2              2
 EXPONENTIALS   12.28235       12.27215    
 COEFFICIENTS   8.384222      -8.297972    


 BASIS DATA

   Nr Sym  Nuc  Type         Exponents   Contraction coefficients

    1.1 Ag    1  1s        3672.400000     0.000117    0.000043    0.000000    0.000000
    2.1 Ag                  558.143000     0.000687    0.000307    0.000000    0.000000
    3.1 Ag                  114.089000     0.002130    0.000496    0.000000    0.000000
    4.1 Ag                   31.400600    -0.037669   -0.009105    0.000000    0.000000
                             19.631800     0.159149    0.049898    0.000000    0.000000
                              6.772050    -0.651754   -0.249854    0.000000    0.000000
                              1.833510     0.837692    0.444097    0.000000    0.000000
                              0.877715     0.488426    0.352025    0.000000    0.000000
                              0.237396     0.021796   -0.499700    1.000000    0.000000
                              0.112068    -0.007461   -0.574357    0.000000    1.000000
                              0.051757     0.001872   -0.165579    0.000000    0.000000
    5.1 Ag    1  1s           0.063800     1.000000
    6.1 Ag    1  1s           1.520100     1.000000
    7.1 Ag    1  1s           0.953900     1.000000
    8.1 Ag    1  1s           0.025100     1.000000
    9.1 Ag    1  1s           0.008367     1.000000
   10.1 Ag    1  3d0        130.243000     0.000319
                             36.776200     0.002678
                             14.632100    -0.010109
                              4.696950     0.119768
                              2.530780     0.322600
                              1.301740     0.384238
                              0.646575     0.265358
                              0.302316     0.090377
                              0.116000     0.007334
   11.1 Ag    1  3d2-       130.243000     0.000319
                             36.776200     0.002678
                             14.632100    -0.010109
                              4.696950     0.119768
                              2.530780     0.322600
                              1.301740     0.384238
                              0.646575     0.265358
                              0.302316     0.090377
                              0.116000     0.007334
   12.1 Ag    1  3d1+       130.243000     0.000319
                             36.776200     0.002678
                             14.632100    -0.010109
                              4.696950     0.119768
                              2.530780     0.322600
                              1.301740     0.384238
                              0.646575     0.265358
                              0.302316     0.090377
                              0.116000     0.007334
   13.1 Ag    1  3d2+       130.243000     0.000319
                             36.776200     0.002678
                             14.632100    -0.010109
                              4.696950     0.119768
                              2.530780     0.322600
                              1.301740     0.384238
                              0.646575     0.265358
                              0.302316     0.090377
                              0.116000     0.007334
   14.1 Ag    1  3d1-       130.243000     0.000319
                             36.776200     0.002678
                             14.632100    -0.010109
                              4.696950     0.119768
                              2.530780     0.322600
                              1.301740     0.384238
                              0.646575     0.265358
                              0.302316     0.090377
                              0.116000     0.007334
   15.1 Ag    1  3d0        130.243000     0.000000
                             36.776200     0.000000
                             14.632100     0.000000
                              4.696950     0.000000
                              2.530780     0.000000
                              1.301740     0.000000
                              0.646575     0.000000
                              0.302316     1.000000
                              0.116000     0.000000
   16.1 Ag    1  3d2-       130.243000     0.000000
                             36.776200     0.000000
                             14.632100     0.000000
                              4.696950     0.000000
                              2.530780     0.000000
                              1.301740     0.000000
                              0.646575     0.000000
                              0.302316     1.000000
                              0.116000     0.000000
   17.1 Ag    1  3d1+       130.243000     0.000000
                             36.776200     0.000000
                             14.632100     0.000000
                              4.696950     0.000000
                              2.530780     0.000000
                              1.301740     0.000000
                              0.646575     0.000000
                              0.302316     1.000000
                              0.116000     0.000000
   18.1 Ag    1  3d2+       130.243000     0.000000
                             36.776200     0.000000
                             14.632100     0.000000
                              4.696950     0.000000
                              2.530780     0.000000
                              1.301740     0.000000
                              0.646575     0.000000
                              0.302316     1.000000
                              0.116000     0.000000
   19.1 Ag    1  3d1-       130.243000     0.000000
                             36.776200     0.000000
                             14.632100     0.000000
                              4.696950     0.000000
                              2.530780     0.000000
                              1.301740     0.000000
                              0.646575     0.000000
                              0.302316     1.000000
                              0.116000     0.000000
   20.1 Ag    1  3d0        130.243000     0.000000
                             36.776200     0.000000
                             14.632100     0.000000
                              4.696950     0.000000
                              2.530780     0.000000
                              1.301740     0.000000
                              0.646575     0.000000
                              0.302316     0.000000
                              0.116000     1.000000
   21.1 Ag    1  3d2-       130.243000     0.000000
                             36.776200     0.000000
                             14.632100     0.000000
                              4.696950     0.000000
                              2.530780     0.000000
                              1.301740     0.000000
                              0.646575     0.000000
                              0.302316     0.000000
                              0.116000     1.000000
   22.1 Ag    1  3d1+       130.243000     0.000000
                             36.776200     0.000000
                             14.632100     0.000000
                              4.696950     0.000000
                              2.530780     0.000000
                              1.301740     0.000000
                              0.646575     0.000000
                              0.302316     0.000000
                              0.116000     1.000000
   23.1 Ag    1  3d2+       130.243000     0.000000
                             36.776200     0.000000
                             14.632100     0.000000
                              4.696950     0.000000
                              2.530780     0.000000
                              1.301740     0.000000
                              0.646575     0.000000
                              0.302316     0.000000
                              0.116000     1.000000
   24.1 Ag    1  3d1-       130.243000     0.000000
                             36.776200     0.000000
                             14.632100     0.000000
                              4.696950     0.000000
                              2.530780     0.000000
                              1.301740     0.000000
                              0.646575     0.000000
                              0.302316     0.000000
                              0.116000     1.000000
   25.1 Ag    1  3d0          1.573900     1.000000
   26.1 Ag    1  3d2-         1.573900     1.000000
   27.1 Ag    1  3d1+         1.573900     1.000000
   28.1 Ag    1  3d2+         1.573900     1.000000
   29.1 Ag    1  3d1-         1.573900     1.000000
   30.1 Ag    1  3d0          0.749800     1.000000
   31.1 Ag    1  3d2-         0.749800     1.000000
   32.1 Ag    1  3d1+         0.749800     1.000000
   33.1 Ag    1  3d2+         0.749800     1.000000
   34.1 Ag    1  3d1-         0.749800     1.000000
   35.1 Ag    1  3d0          0.042500     1.000000
   36.1 Ag    1  3d2-         0.042500     1.000000
   37.1 Ag    1  3d1+         0.042500     1.000000
   38.1 Ag    1  3d2+         0.042500     1.000000
   39.1 Ag    1  3d1-         0.042500     1.000000
   40.1 Ag    1  3d0          0.014167     1.000000
   41.1 Ag    1  3d2-         0.014167     1.000000
   42.1 Ag    1  3d1+         0.014167     1.000000
   43.1 Ag    1  3d2+         0.014167     1.000000
   44.1 Ag    1  3d1-         0.014167     1.000000
   45.1 Ag    1  5g0          1.089600     1.000000
   46.1 Ag    1  5g2-         1.089600     1.000000
   47.1 Ag    1  5g1+         1.089600     1.000000
   48.1 Ag    1  5g4+         1.089600     1.000000
   49.1 Ag    1  5g1-         1.089600     1.000000
   50.1 Ag    1  5g2+         1.089600     1.000000
   51.1 Ag    1  5g4-         1.089600     1.000000
   52.1 Ag    1  5g3+         1.089600     1.000000
   53.1 Ag    1  5g3-         1.089600     1.000000
    1.2 Au    1  2px        216.970000     0.000226
                             20.910200     0.022917
                              8.796110    -0.197146
                              2.567370     0.467917
                              1.314510     0.496043
                              0.653591     0.176610
                              0.272150     0.012850
                              0.110736     0.000119
                              0.044034     0.000173
    2.2 Au    1  2py        216.970000     0.000226
                             20.910200     0.022917
                              8.796110    -0.197146
                              2.567370     0.467917
                              1.314510     0.496043
                              0.653591     0.176610
                              0.272150     0.012850
                              0.110736     0.000119
                              0.044034     0.000173
    3.2 Au    1  2pz        216.970000     0.000226
                             20.910200     0.022917
                              8.796110    -0.197146
                              2.567370     0.467917
                              1.314510     0.496043
                              0.653591     0.176610
                              0.272150     0.012850
                              0.110736     0.000119
                              0.044034     0.000173
    4.2 Au    1  2px        216.970000    -0.000081
                             20.910200    -0.005457
                              8.796110     0.053005
                              2.567370    -0.154665
                              1.314510    -0.158940
                              0.653591    -0.049703
                              0.272150     0.327127
                              0.110736     0.567089
                              0.044034     0.264297
    5.2 Au    1  2py        216.970000    -0.000081
                             20.910200    -0.005457
                              8.796110     0.053005
                              2.567370    -0.154665
                              1.314510    -0.158940
                              0.653591    -0.049703
                              0.272150     0.327127
                              0.110736     0.567089
                              0.044034     0.264297
    6.2 Au    1  2pz        216.970000    -0.000081
                             20.910200    -0.005457
                              8.796110     0.053005
                              2.567370    -0.154665
                              1.314510    -0.158940
                              0.653591    -0.049703
                              0.272150     0.327127
                              0.110736     0.567089
                              0.044034     0.264297
    7.2 Au    1  2px          0.345100     1.000000
    8.2 Au    1  2py          0.345100     1.000000
    9.2 Au    1  2pz          0.345100     1.000000
   10.2 Au    1  2px          0.056800     1.000000
   11.2 Au    1  2py          0.056800     1.000000
   12.2 Au    1  2pz          0.056800     1.000000
   13.2 Au    1  2px          3.897000     1.000000
   14.2 Au    1  2py          3.897000     1.000000
   15.2 Au    1  2pz          3.897000     1.000000
   16.2 Au    1  2px          0.880400     1.000000
   17.2 Au    1  2py          0.880400     1.000000
   18.2 Au    1  2pz          0.880400     1.000000
   19.2 Au    1  2px          0.020200     1.000000
   20.2 Au    1  2py          0.020200     1.000000
   21.2 Au    1  2pz          0.020200     1.000000
   22.2 Au    1  2px          0.006733     1.000000
   23.2 Au    1  2py          0.006733     1.000000
   24.2 Au    1  2pz          0.006733     1.000000
   25.2 Au    1  4f1+         0.282200     1.000000
   26.2 Au    1  4f1-         0.282200     1.000000
   27.2 Au    1  4f0          0.282200     1.000000
   28.2 Au    1  4f3+         0.282200     1.000000
   29.2 Au    1  4f2-         0.282200     1.000000
   30.2 Au    1  4f3-         0.282200     1.000000
   31.2 Au    1  4f2+         0.282200     1.000000
   32.2 Au    1  4f1+         3.768200     1.000000
   33.2 Au    1  4f1-         3.768200     1.000000
   34.2 Au    1  4f0          3.768200     1.000000
   35.2 Au    1  4f3+         3.768200     1.000000
   36.2 Au    1  4f2-         3.768200     1.000000
   37.2 Au    1  4f3-         3.768200     1.000000
   38.2 Au    1  4f2+         3.768200     1.000000
   39.2 Au    1  4f1+         1.003300     1.000000
   40.2 Au    1  4f1-         1.003300     1.000000
   41.2 Au    1  4f0          1.003300     1.000000
   42.2 Au    1  4f3+         1.003300     1.000000
   43.2 Au    1  4f2-         1.003300     1.000000
   44.2 Au    1  4f3-         1.003300     1.000000
   45.2 Au    1  4f2+         1.003300     1.000000
   46.2 Au    1  4f1+         0.109300     1.000000
   47.2 Au    1  4f1-         0.109300     1.000000
   48.2 Au    1  4f0          0.109300     1.000000
   49.2 Au    1  4f3+         0.109300     1.000000
   50.2 Au    1  4f2-         0.109300     1.000000
   51.2 Au    1  4f3-         0.109300     1.000000
   52.2 Au    1  4f2+         0.109300     1.000000
   53.2 Au    1  4f1+         0.036433     1.000000
   54.2 Au    1  4f1-         0.036433     1.000000
   55.2 Au    1  4f0          0.036433     1.000000
   56.2 Au    1  4f3+         0.036433     1.000000
   57.2 Au    1  4f2-         0.036433     1.000000
   58.2 Au    1  4f3-         0.036433     1.000000
   59.2 Au    1  4f2+         0.036433     1.000000

 NUCLEAR CHARGE:                   22
 NUMBER OF PRIMITIVE AOS:         204
 NUMBER OF SYMMETRY AOS:          170
 NUMBER OF CONTRACTIONS:          112   (   53Ag  +   59Au  )
 NUMBER OF INNER CORE ORBITALS:     0   (    0Ag  +    0Au  )
 NUMBER OF OUTER CORE ORBITALS:     9   (    6Ag  +    3Au  )
 NUMBER OF VALENCE ORBITALS:        4   (    1Ag  +    3Au  )


 LX: Ag           LY: Ag           LZ: Ag 


 NUCLEAR REPULSION ENERGY    0.00000000

 EXTRA SYMMETRY OF AOS IN SYMMETRY 1:   1 1 1 1 1 1 1 1 1 2   3 4 5 6 2 3 4 5 6 2   3 4 5 6 2 3 4 5 6 2   3 4 5 6 2 3 4 5 6 2
                                        3 4 5 6 7 8 9101112  131415
 EXTRA SYMMETRY OF AOS IN SYMMETRY 2:   1 2 3 1 2 3 1 2 3 1   2 3 1 2 3 1 2 3 1 2   3 1 2 3 4 5 6 7 8 9  10 4 5 6 7 8 910 4 5
                                        6 7 8 910 4 5 6 7 8   910 4 5 6 7 8 910


 Eigenvalues of metric

         1 0.148E-04 0.153E-02 0.858E-02 0.120E-01 0.120E-01 0.120E-01 0.120E-01 0.120E-01
         2 0.676E-02 0.676E-02 0.676E-02 0.213E-01 0.213E-01 0.213E-01 0.107E+00 0.107E+00


 Contracted 2-electron integrals neglected if value below      1.0D-12
 AO integral compression algorithm  1   Integral accuracy      1.0D-12

     28.574 MB (compressed) written to integral file ( 17.1%)

     Node minimum: 0.524 MB, node maximum: 2.884 MB


 NUMBER OF SORTED TWO-ELECTRON INTEGRALS:     633990.     BUFFER LENGTH:  32768
 NUMBER OF SEGMENTS:   1  SEGMENT LENGTH:     633990      RECORD LENGTH: 524288

 Memory used in sort:       1.19 MW

 SORT1 READ    21109381. AND WROTE      124163. INTEGRALS IN      1 RECORDS. CPU TIME:     0.10 SEC, REAL TIME:     0.11 SEC
 SORT2 READ     2032599. AND WROTE    10190541. INTEGRALS IN    128 RECORDS. CPU TIME:     0.01 SEC, REAL TIME:     0.02 SEC

 Node minimum:      632995.  Node maximum:      639690. integrals

 OPERATOR DM      FOR CENTER  0  COORDINATES:    0.000000    0.000000    0.000000


 **********************************************************************************************************************************
 DATASETS  * FILE   NREC   LENGTH (MB)   RECORD NAMES
              1      19       28.94       500      610      700      900      950      970     1000      129      960     1100   
                                          VAR    BASINP    GEOM    SYMINP    ZMAT    AOBASIS   BASIS     P2S    ABASIS      S 
                                         1400     1410     1420     1200     1210     1080     1700     1600     1650   
                                           T        V       ECP      H0       H01     AOSYM    OPER      SMH    MOLCAS    

 PROGRAMS   *        TOTAL       INT
 CPU TIMES  *         1.04      0.81
 REAL TIME  *         1.88 SEC
 DISK USED  *        29.28 MB (local),      546.65 MB (total)
 GA USED    *         0.00 MB       (max)       0.00 MB       (current)
 **********************************************************************************************************************************


 Program * Restricted Hartree-Fock


   Atom=SN basis=cc-pVTZ-PP        lmin=0  lmax=2

 Orbital guess generated from atomic densities.

 Initial alpha occupancy:   7   6
 Initial beta  occupancy:   7   3

 NELEC=   23   SYM=2   MS2= 3   THRE=1.0D-08   THRD=3.2D-06   THRG=3.2D-06  HFMA2=F  DIIS_START=2   DIIS_MAX=10   DIIS_INCORE=F

 Level shifts:    0.00 (CLOSED)    0.00 (OPEN)    0.30 (GAP_MIN)

 ITER           ETOT              DE          GRAD        DDIFF     DIIS  NEXP   TIME(IT)  TIME(TOT)  DIAG
   1     -213.37042742    -213.37042742     0.00D+00     0.11D+00     0     0       0.01      0.02    start
   2     -213.37324138      -0.00281397     0.12D-02     0.37D-02     1     0       0.00      0.02    diag2
   3     -213.37354413      -0.00030275     0.66D-03     0.88D-03     2     0       0.01      0.03    diag2
   4     -213.37363445      -0.00009032     0.21D-03     0.69D-03     3     0       0.01      0.04    diag2
   5     -213.37364498      -0.00001053     0.56D-04     0.25D-03     4     0       0.00      0.04    diag2
   6     -213.37364643      -0.00000145     0.13D-04     0.10D-03     5     0       0.01      0.05    diag2
   7     -213.37364681      -0.00000038     0.47D-05     0.39D-04     6     0       0.00      0.05    diag2
   8     -213.37364694      -0.00000013     0.21D-05     0.30D-04     7     0       0.01      0.06    fixocc
   9     -213.37364695      -0.00000001     0.66D-06     0.83D-05     8     0       0.00      0.06    diag2
  10     -213.37364695      -0.00000000     0.23D-06     0.18D-05     9     0       0.01      0.07    diag2/orth
  11     -213.37364695      -0.00000000     0.62D-07     0.40D-06     0     0       0.01      0.08    diag

 Final alpha occupancy:   7   6
 Final beta  occupancy:   7   3

 !RHF STATE 1.2 Energy               -213.373646949783
  RHF One-electron energy            -381.082869982917
  RHF Two-electron energy             167.709223033134
  RHF Kinetic energy                   82.647997050014
  RHF Nuclear energy                    0.000000000000
  RHF Virial quotient                  -2.581715886238

 !RHF STATE 1.2 Dipole moment           0.00000000     0.00000000     0.00000000
 Dipole moment /Debye                   0.00000000     0.00000000     0.00000000

 ELECTRON ORBITALS
 =================

  Orbital  Occupation    Energy    Cen Mu Typ  Coefficients
    1.1     2.00000    -5.62717     1  1  s    1.00643
    2.1     2.00000    -1.07701     1  1  d2-  0.79034    1  1  d2+  0.61212
    3.1     2.00000    -1.07701     1  1  d2- -0.61219    1  1  d2+  0.79037
    4.1     2.00000    -1.07701     1  1  d1-  0.99006
    5.1     2.00000    -1.07701     1  1  d1+  0.99000
    6.1     2.00000    -1.07701     1  1  d0   0.99974
    7.1     2.00000    -0.29349     1  2  s    0.97918
    1.2     2.00000    -3.81347     1  1  px   1.00043
    2.2     2.00000    -3.81347     1  1  py   0.99981
    3.2     2.00000    -3.81347     1  1  pz   0.99981
    4.2     1.00000    -0.05737     1  2  px   0.79192
    5.2     1.00000    -0.05737     1  2  py   0.75842
    6.2     1.00000    -0.05737     1  2  pz   0.75842


 HOMO      6.2    -0.057372 =      -1.5612eV
 LUMO      7.2     0.085218 =       2.3189eV
 LUMO-HOMO         0.142590 =       3.8801eV

 Orbitals saved in record  2100.2


 **********************************************************************************************************************************
 DATASETS  * FILE   NREC   LENGTH (MB)   RECORD NAMES
              1      19       28.94       500      610      700      900      950      970     1000      129      960     1100   
                                          VAR    BASINP    GEOM    SYMINP    ZMAT    AOBASIS   BASIS     P2S    ABASIS      S 
                                         1400     1410     1420     1200     1210     1080     1700     1600     1650   
                                           T        V       ECP      H0       H01     AOSYM    OPER      SMH    MOLCAS    

              2       4        0.59       700     1000      520     2100   
                                         GEOM     BASIS   MCVARS     RHF  

 PROGRAMS   *        TOTAL   RHF-SCF       INT
 CPU TIMES  *         1.16      0.12      0.81
 REAL TIME  *         3.35 SEC
 DISK USED  *        30.49 MB (local),      566.01 MB (total)
 GA USED    *         0.00 MB       (max)       0.00 MB       (current)
 **********************************************************************************************************************************
 SETTING NTRIP          =        12.00000000                                  
 SETTING NSING          =        15.00000000                                  

 PROGRAM * MULTI (Direct Multiconfiguration SCF)       Authors: P.J. Knowles, H.-J. Werner (1984)
                                                                D.A. Kreplin, P.J. Knowles, H.-J. Werner (2019)

 Number of closed-shell orbitals:   9 (    6    3)
 Number of active  orbitals:        7 (    1    6)
 Number of external orbitals:      96 (   46   50)

 State symmetry 1

 Number of active electrons:   4    Spin symmetry=Triplet   Space symmetry=1
 Number of states:            12
 Number of CSFs:             120   (135 determinants, 245 intermediate states)

 State symmetry 2

 Number of active electrons:   4    Spin symmetry=Singlet   Space symmetry=1
 Number of states:            15
 Number of CSFs:             126   (261 determinants, 441 intermediate states)

 Molecular orbitals read from record     2100.2  Type=RHF/CANONICAL  
 *** IN SYMMETRY 1 ORBITAL  2 SYMMETRY CONTAMINATION OF 0.442D+00 HAS BEEN REMOVED
 *** IN SYMMETRY 1 ORBITAL  3 SYMMETRY CONTAMINATION OF 0.438D+00 HAS BEEN REMOVED
 *** IN SYMMETRY 1 ORBITAL  4 SYMMETRY CONTAMINATION OF 0.127D+00 HAS BEEN REMOVED
 *** IN SYMMETRY 1 ORBITAL  5 SYMMETRY CONTAMINATION OF 0.135D+00 HAS BEEN REMOVED

 EXTRA SYMMETRY OF MOS IN SYMMETRY 1:   1 3 5 6 4 2 1 1 2 6   4 3 5 1 2 4 6 3 5 1   2 5 3 6 4 1 2 6 4 3   5 2 3 5 6 4 1 81215
                                       141310 911 7 2 6 4 5   3 1 1
 *** IN SYMMETRY 2 ORBITAL  2 SYMMETRY CONTAMINATION OF 0.340D-01 HAS BEEN REMOVED
 *** IN SYMMETRY 2 ORBITAL  3 SYMMETRY CONTAMINATION OF 0.340D-01 HAS BEEN REMOVED
 *** IN SYMMETRY 2 ORBITAL  4 SYMMETRY CONTAMINATION OF 0.180D-04 HAS BEEN REMOVED
 *** IN SYMMETRY 2 ORBITAL  5 SYMMETRY CONTAMINATION OF 0.231D+00 HAS BEEN REMOVED
 *** IN SYMMETRY 2 ORBITAL  6 SYMMETRY CONTAMINATION OF 0.231D+00 HAS BEEN REMOVED
 *** IN SYMMETRY 2 ORBITAL  8 SYMMETRY CONTAMINATION OF 0.864D-04 HAS BEEN REMOVED
 *** IN SYMMETRY 2 ORBITAL  9 SYMMETRY CONTAMINATION OF 0.864D-04 HAS BEEN REMOVED
 EXTRA SYMMETRY OF MOS IN SYMMETRY 2:   1 2 3 1 2 3 1 2 3 3   2 1 4 5 7 9 6 810 3   2 1 9 7 5 4 6 810 4   5 6 810 9 7 3 2 1 8
                                       10 6 4 5 9 7 3 1 2 8  10 6 4 5 7 9 3 1 2

 Wavefunction dump at record             2140.2

 Convergence thresholds  0.10E-04 (gradient)  0.10E-05 (energy)

 Weight factors for state symmetry  1:    0.03704   0.03704   0.03704   0.03704   0.03704   0.03704   0.03704   0.03704
                                          0.03704   0.03704   0.03704   0.03704
 Weight factors for state symmetry  2:    0.03704   0.03704   0.03704   0.03704   0.03704   0.03704   0.03704   0.03704
                                          0.03704   0.03704   0.03704   0.03704   0.03704   0.03704   0.03704
 
 Number of orbital rotations:  796  ( 24 closed/active, 426 closed/virtual, 0 active/active, 346 active/virtual )
 Total number of variables:    6331
 
 Second-order MCSCF: L-BFGS accelerated
 
 ITER  MIC  NCI  NEG     ENERGY(VAR)    ENERGY(PROJ) ENERGY CHANGE       GRAD(0)  GRAD(ORB)   GRAD(CI)      STEP      TIME
   1    8   14    0   -213.16420020    -213.21621392   -0.05201373    0.17481647 0.00111426 0.00000000  0.12E+01      0.61
   2    6   10    0   -213.21496744    -213.21513816   -0.00017072    0.01203731 0.00000192 0.00000000  0.60E-01      1.14
   3    8   16    0   -213.21513828    -213.21513828   -0.00000000    0.00003011 0.00000000 0.00000000  0.18E-03      1.80
   4    2    4    0   -213.21513828    -213.21513828   -0.00000000    0.00000001 0.00000001 0.00000000  0.33E-07      2.09

 CONVERGENCE REACHED!  Final gradient:    0.00000001 ( 0.12E-07)
                       Final energy:   -213.21513828
 
 Results for state 1.1 Triplet
 =============================
 !MCSCF STATE 1.1 Triplet Energy              -213.340392917993
 Nuclear energy                                  0.00000000
 Kinetic energy                                 82.85269249
 One electron energy                          -376.87519714
 Two electron energy                           163.53480423
 Virial ratio                                    3.57493615
 
 !MCSCF STATE 1.1 Triplet Dipole moment          0.00000000     0.00000000     0.00000000
 Dipole moment /Debye                            0.00000000     0.00000000     0.00000000
 
 Results for state 2.1 Triplet
 =============================
 !MCSCF STATE 2.1 Triplet Energy              -213.340392917885
 Nuclear energy                                  0.00000000
 Kinetic energy                                 82.85269249
 One electron energy                          -376.87519715
 Two electron energy                           163.53480423
 Virial ratio                                    3.57493615
 
 !MCSCF STATE 2.1 Triplet Dipole moment          0.00000000     0.00000000     0.00000000
 Dipole moment /Debye                            0.00000000     0.00000000     0.00000000
 
 Results for state 3.1 Triplet
 =============================
 !MCSCF STATE 3.1 Triplet Energy              -213.340392916738
 Nuclear energy                                  0.00000000
 Kinetic energy                                 82.85269251
 One electron energy                          -376.87519722
 Two electron energy                           163.53480430
 Virial ratio                                    3.57493615
 
 !MCSCF STATE 3.1 Triplet Dipole moment          0.00000000     0.00000000     0.00000000
 Dipole moment /Debye                            0.00000000     0.00000000     0.00000000
 
 Results for state 4.1 Triplet
 =============================
 !MCSCF STATE 4.1 Triplet Energy              -213.170581370120
 Nuclear energy                                  0.00000000
 Kinetic energy                                 82.31299424
 One electron energy                          -371.63631309
 Two electron energy                           158.46573172
 Virial ratio                                    3.58975613
 
 !MCSCF STATE 4.1 Triplet Dipole moment          0.00000000     0.00000000     0.00000000
 Dipole moment /Debye                            0.00000000     0.00000000     0.00000000
 
 Results for state 5.1 Triplet
 =============================
 !MCSCF STATE 5.1 Triplet Energy              -213.170581370118
 Nuclear energy                                  0.00000000
 Kinetic energy                                 82.31299424
 One electron energy                          -371.63631309
 Two electron energy                           158.46573172
 Virial ratio                                    3.58975613
 
 !MCSCF STATE 5.1 Triplet Dipole moment          0.00000000     0.00000000     0.00000000
 Dipole moment /Debye                            0.00000000     0.00000000     0.00000000
 
 Results for state 6.1 Triplet
 =============================
 !MCSCF STATE 6.1 Triplet Energy              -213.170581369954
 Nuclear energy                                  0.00000000
 Kinetic energy                                 82.31299423
 One electron energy                          -371.63631306
 Two electron energy                           158.46573169
 Virial ratio                                    3.58975613
 
 !MCSCF STATE 6.1 Triplet Dipole moment          0.00000000     0.00000000     0.00000000
 Dipole moment /Debye                            0.00000000     0.00000000     0.00000000
 
 Results for state 7.1 Triplet
 =============================
 !MCSCF STATE 7.1 Triplet Energy              -213.170581369953
 Nuclear energy                                  0.00000000
 Kinetic energy                                 82.31299423
 One electron energy                          -371.63631306
 Two electron energy                           158.46573169
 Virial ratio                                    3.58975613
 
 !MCSCF STATE 7.1 Triplet Dipole moment          0.00000000     0.00000000     0.00000000
 Dipole moment /Debye                            0.00000000     0.00000000     0.00000000
 
 Results for state 8.1 Triplet
 =============================
 !MCSCF STATE 8.1 Triplet Energy              -213.170581369901
 Nuclear energy                                  0.00000000
 Kinetic energy                                 82.31299423
 One electron energy                          -371.63631305
 Two electron energy                           158.46573168
 Virial ratio                                    3.58975613
 
 !MCSCF STATE 8.1 Triplet Dipole moment          0.00000000     0.00000000     0.00000000
 Dipole moment /Debye                            0.00000000     0.00000000     0.00000000
 
 Results for state 9.1 Triplet
 =============================
 !MCSCF STATE 9.1 Triplet Energy              -213.167377403380
 Nuclear energy                                  0.00000000
 Kinetic energy                                 82.37166127
 One electron energy                          -371.94744474
 Two electron energy                           158.78006733
 Virial ratio                                    3.58787275
 
 !MCSCF STATE 9.1 Triplet Dipole moment          0.00000000     0.00000000     0.00000000
 Dipole moment /Debye                            0.00000000     0.00000000     0.00000000
 
 Results for state 10.1 Triplet
 ==============================
 !MCSCF STATE 10.1 Triplet Energy             -213.167377403334
 Nuclear energy                                  0.00000000
 Kinetic energy                                 82.37166126
 One electron energy                          -371.94744470
 Two electron energy                           158.78006729
 Virial ratio                                    3.58787275
 
 !MCSCF STATE 10.1 Triplet Dipole moment         0.00000000     0.00000000     0.00000000
 Dipole moment /Debye                            0.00000000     0.00000000     0.00000000
 
 Results for state 11.1 Triplet
 ==============================
 !MCSCF STATE 11.1 Triplet Energy             -213.167377403308
 Nuclear energy                                  0.00000000
 Kinetic energy                                 82.37166126
 One electron energy                          -371.94744470
 Two electron energy                           158.78006730
 Virial ratio                                    3.58787275
 
 !MCSCF STATE 11.1 Triplet Dipole moment         0.00000000     0.00000000     0.00000000
 Dipole moment /Debye                            0.00000000     0.00000000     0.00000000
 
 Results for state 12.1 Triplet
 ==============================
 !MCSCF STATE 12.1 Triplet Energy             -213.165427924299
 Nuclear energy                                  0.00000000
 Kinetic energy                                 82.31289630
 One electron energy                          -371.63482846
 Two electron energy                           158.46940054
 Virial ratio                                    3.58969660
 
 !MCSCF STATE 12.1 Triplet Dipole moment         0.00000000     0.00000000     0.00000000
 Dipole moment /Debye                            0.00000000     0.00000000     0.00000000
 
 Results for state 1.1 Singlet
 =============================
 !MCSCF STATE 1.1 Singlet Energy              -213.304375486938
 Nuclear energy                                  0.00000000
 Kinetic energy                                 82.81736158
 One electron energy                          -376.66034279
 Two electron energy                           163.35596730
 Virial ratio                                    3.57559975
 
 !MCSCF STATE 1.1 Singlet Dipole moment          0.00000000     0.00000000     0.00000000
 Dipole moment /Debye                            0.00000000     0.00000000     0.00000000
 
 Results for state 2.1 Singlet
 =============================
 !MCSCF STATE 2.1 Singlet Energy              -213.304375486537
 Nuclear energy                                  0.00000000
 Kinetic energy                                 82.81736159
 One electron energy                          -376.66034280
 Two electron energy                           163.35596732
 Virial ratio                                    3.57559975
 
 !MCSCF STATE 2.1 Singlet Dipole moment          0.00000000     0.00000000     0.00000000
 Dipole moment /Debye                            0.00000000     0.00000000     0.00000000
 
 Results for state 3.1 Singlet
 =============================
 !MCSCF STATE 3.1 Singlet Energy              -213.304375486402
 Nuclear energy                                  0.00000000
 Kinetic energy                                 82.81736159
 One electron energy                          -376.66034281
 Two electron energy                           163.35596732
 Virial ratio                                    3.57559975
 
 !MCSCF STATE 3.1 Singlet Dipole moment          0.00000000     0.00000000     0.00000000
 Dipole moment /Debye                            0.00000000     0.00000000     0.00000000
 
 Results for state 4.1 Singlet
 =============================
 !MCSCF STATE 4.1 Singlet Energy              -213.304375485070
 Nuclear energy                                  0.00000000
 Kinetic energy                                 82.81736161
 One electron energy                          -376.66034287
 Two electron energy                           163.35596738
 Virial ratio                                    3.57559975
 
 !MCSCF STATE 4.1 Singlet Dipole moment          0.00000000     0.00000000     0.00000000
 Dipole moment /Debye                            0.00000000     0.00000000     0.00000000
 
 Results for state 5.1 Singlet
 =============================
 !MCSCF STATE 5.1 Singlet Energy              -213.304375485066
 Nuclear energy                                  0.00000000
 Kinetic energy                                 82.81736161
 One electron energy                          -376.66034287
 Two electron energy                           163.35596738
 Virial ratio                                    3.57559975
 
 !MCSCF STATE 5.1 Singlet Dipole moment          0.00000000     0.00000000     0.00000000
 Dipole moment /Debye                            0.00000000     0.00000000     0.00000000
 
 Results for state 6.1 Singlet
 =============================
 !MCSCF STATE 6.1 Singlet Energy              -213.274378711886
 Nuclear energy                                  0.00000000
 Kinetic energy                                 82.76870525
 One electron energy                          -376.28306096
 Two electron energy                           163.00868225
 Virial ratio                                    3.57675142
 
 !MCSCF STATE 6.1 Singlet Dipole moment          0.00000000     0.00000000     0.00000000
 Dipole moment /Debye                            0.00000000     0.00000000     0.00000000
 
 Results for state 7.1 Singlet
 =============================
 !MCSCF STATE 7.1 Singlet Energy              -213.174019742635
 Nuclear energy                                  0.00000000
 Kinetic energy                                 82.31305632
 One electron energy                          -371.63725835
 Two electron energy                           158.46323861
 Virial ratio                                    3.58979595
 
 !MCSCF STATE 7.1 Singlet Dipole moment          0.00000000     0.00000000     0.00000000
 Dipole moment /Debye                            0.00000000     0.00000000     0.00000000
 
 Results for state 8.1 Singlet
 =============================
 !MCSCF STATE 8.1 Singlet Energy              -213.174019742537
 Nuclear energy                                  0.00000000
 Kinetic energy                                 82.31305631
 One electron energy                          -371.63725832
 Two electron energy                           158.46323858
 Virial ratio                                    3.58979595
 
 !MCSCF STATE 8.1 Singlet Dipole moment          0.00000000     0.00000000     0.00000000
 Dipole moment /Debye                            0.00000000     0.00000000     0.00000000
 
 Results for state 9.1 Singlet
 =============================
 !MCSCF STATE 9.1 Singlet Energy              -213.174019742521
 Nuclear energy                                  0.00000000
 Kinetic energy                                 82.31305631
 One electron energy                          -371.63725832
 Two electron energy                           158.46323857
 Virial ratio                                    3.58979595
 
 !MCSCF STATE 9.1 Singlet Dipole moment          0.00000000     0.00000000     0.00000000
 Dipole moment /Debye                            0.00000000     0.00000000     0.00000000
 
 Results for state 10.1 Singlet
 ==============================
 !MCSCF STATE 10.1 Singlet Energy             -213.159795624107
 Nuclear energy                                  0.00000000
 Kinetic energy                                 82.40866433
 One electron energy                          -372.16909656
 Two electron energy                           159.00930094
 Virial ratio                                    3.58661874
 
 !MCSCF STATE 10.1 Singlet Dipole moment         0.00000000     0.00000000     0.00000000
 Dipole moment /Debye                            0.00000000     0.00000000     0.00000000
 
 Results for state 11.1 Singlet
 ==============================
 !MCSCF STATE 11.1 Singlet Energy             -213.159795624095
 Nuclear energy                                  0.00000000
 Kinetic energy                                 82.40866434
 One electron energy                          -372.16909657
 Two electron energy                           159.00930095
 Virial ratio                                    3.58661874
 
 !MCSCF STATE 11.1 Singlet Dipole moment         0.00000000     0.00000000     0.00000000
 Dipole moment /Debye                            0.00000000     0.00000000     0.00000000
 
 Results for state 12.1 Singlet
 ==============================
 !MCSCF STATE 12.1 Singlet Energy             -213.159795624055
 Nuclear energy                                  0.00000000
 Kinetic energy                                 82.40866432
 One electron energy                          -372.16909652
 Two electron energy                           159.00930090
 Virial ratio                                    3.58661874
 
 !MCSCF STATE 12.1 Singlet Dipole moment         0.00000000     0.00000000     0.00000000
 Dipole moment /Debye                            0.00000000     0.00000000     0.00000000
 
 Results for state 13.1 Singlet
 ==============================
 !MCSCF STATE 13.1 Singlet Energy             -213.159795623993
 Nuclear energy                                  0.00000000
 Kinetic energy                                 82.40866432
 One electron energy                          -372.16909653
 Two electron energy                           159.00930090
 Virial ratio                                    3.58661874
 
 !MCSCF STATE 13.1 Singlet Dipole moment         0.00000000     0.00000000     0.00000000
 Dipole moment /Debye                            0.00000000     0.00000000     0.00000000
 
 Results for state 14.1 Singlet
 ==============================
 !MCSCF STATE 14.1 Singlet Energy             -213.159795623989
 Nuclear energy                                  0.00000000
 Kinetic energy                                 82.40866432
 One electron energy                          -372.16909652
 Two electron energy                           159.00930089
 Virial ratio                                    3.58661874
 
 !MCSCF STATE 14.1 Singlet Dipole moment         0.00000000     0.00000000     0.00000000
 Dipole moment /Debye                            0.00000000     0.00000000     0.00000000
 
 Results for state 15.1 Singlet
 ==============================
 !MCSCF STATE 15.1 Singlet Energy             -213.149794236725
 Nuclear energy                                  0.00000000
 Kinetic energy                                 82.45134694
 One electron energy                          -372.42190495
 Two electron energy                           159.27211071
 Virial ratio                                    3.58515843
 
 !MCSCF STATE 15.1 Singlet Dipole moment         0.00000000     0.00000000     0.00000000
 Dipole moment /Debye                            0.00000000     0.00000000     0.00000000
 
 State-averaged charge density matrix saved on record 2140.2 (density set 1)
 
 No non-zero expectation values
 
 Expectation values for two-electron operators:
 
 ? Warning
 ? Transition properties are only calculated between states of the same symmetry
 ? The problem occurs in mu_properties_expec2

 !MCSCF expec      <1.1 Triplet|LXLX|1.1 Triplet>     0.999999999781
 !MCSCF expec      <2.1 Triplet|LXLX|2.1 Triplet>     0.000000000358
 !MCSCF expec      <3.1 Triplet|LXLX|3.1 Triplet>     0.999999999999
 !MCSCF expec      <4.1 Triplet|LXLX|4.1 Triplet>     0.992401171532
 !MCSCF expec      <5.1 Triplet|LXLX|5.1 Triplet>     0.999999999995
 !MCSCF expec      <6.1 Triplet|LXLX|6.1 Triplet>     1.000069006196
 !MCSCF expec      <7.1 Triplet|LXLX|7.1 Triplet>     3.999896619607
 !MCSCF expec      <8.1 Triplet|LXLX|8.1 Triplet>     3.007585862504
 !MCSCF expec      <9.1 Triplet|LXLX|9.1 Triplet>     0.999999999996
 !MCSCF expec    <10.1 Triplet|LXLX|10.1 Triplet>     0.000000041030
 !MCSCF expec    <11.1 Triplet|LXLX|11.1 Triplet>     0.999999965823
 !MCSCF expec    <12.1 Triplet|LXLX|12.1 Triplet>     0.000000000007
 !MCSCF expec      <1.1 Singlet|LXLX|1.1 Singlet>     2.851788854870
 !MCSCF expec      <2.1 Singlet|LXLX|2.1 Singlet>     1.000000000772
 !MCSCF expec      <3.1 Singlet|LXLX|3.1 Singlet>     3.999999997782
 !MCSCF expec      <4.1 Singlet|LXLX|4.1 Singlet>     0.999999999999
 !MCSCF expec      <5.1 Singlet|LXLX|5.1 Singlet>     1.148211150547
 !MCSCF expec      <6.1 Singlet|LXLX|6.1 Singlet>     0.000000000002
 !MCSCF expec      <7.1 Singlet|LXLX|7.1 Singlet>     0.999999999995
 !MCSCF expec      <8.1 Singlet|LXLX|8.1 Singlet>     0.999999997422
 !MCSCF expec      <9.1 Singlet|LXLX|9.1 Singlet>     0.000000000527
 !MCSCF expec    <10.1 Singlet|LXLX|10.1 Singlet>     2.249806197156
 !MCSCF expec    <11.1 Singlet|LXLX|11.1 Singlet>     0.999999999997
 !MCSCF expec    <12.1 Singlet|LXLX|12.1 Singlet>     3.999999999156
 !MCSCF expec    <13.1 Singlet|LXLX|13.1 Singlet>     1.000000003969
 !MCSCF expec    <14.1 Singlet|LXLX|14.1 Singlet>     1.750207451904
 !MCSCF expec    <15.1 Singlet|LXLX|15.1 Singlet>     0.000000000004
 
 !MCSCF expec      <1.1 Triplet|LYLY|1.1 Triplet>     0.999999999999
 !MCSCF expec      <2.1 Triplet|LYLY|2.1 Triplet>     0.999999999999
 !MCSCF expec      <3.1 Triplet|LYLY|3.1 Triplet>     0.000000000002
 !MCSCF expec      <4.1 Triplet|LYLY|4.1 Triplet>     3.999980686493
 !MCSCF expec      <5.1 Triplet|LYLY|5.1 Triplet>     3.999999999968
 !MCSCF expec      <6.1 Triplet|LYLY|6.1 Triplet>     1.000000004562
 !MCSCF expec      <7.1 Triplet|LYLY|7.1 Triplet>     1.000000001978
 !MCSCF expec      <8.1 Triplet|LYLY|8.1 Triplet>     0.000019237900
 !MCSCF expec      <9.1 Triplet|LYLY|9.1 Triplet>     0.000000000009
 !MCSCF expec    <10.1 Triplet|LYLY|10.1 Triplet>     0.999999999996
 !MCSCF expec    <11.1 Triplet|LYLY|11.1 Triplet>     0.999999999996
 !MCSCF expec    <12.1 Triplet|LYLY|12.1 Triplet>     0.000000000007
 !MCSCF expec      <1.1 Singlet|LYLY|1.1 Singlet>     0.006993001614
 !MCSCF expec      <2.1 Singlet|LYLY|2.1 Singlet>     0.999999999997
 !MCSCF expec      <3.1 Singlet|LYLY|3.1 Singlet>     0.999999999998
 !MCSCF expec      <4.1 Singlet|LYLY|4.1 Singlet>     3.999999999992
 !MCSCF expec      <5.1 Singlet|LYLY|5.1 Singlet>     3.993006997874
 !MCSCF expec      <6.1 Singlet|LYLY|6.1 Singlet>     0.000000000002
 !MCSCF expec      <7.1 Singlet|LYLY|7.1 Singlet>     0.000000000011
 !MCSCF expec      <8.1 Singlet|LYLY|8.1 Singlet>     0.999999999995
 !MCSCF expec      <9.1 Singlet|LYLY|9.1 Singlet>     0.999999999994
 !MCSCF expec    <10.1 Singlet|LYLY|10.1 Singlet>     3.593583923729
 !MCSCF expec    <11.1 Singlet|LYLY|11.1 Singlet>     3.999999999976
 !MCSCF expec    <12.1 Singlet|LYLY|12.1 Singlet>     1.000000000743
 !MCSCF expec    <13.1 Singlet|LYLY|13.1 Singlet>     0.999999997564
 !MCSCF expec    <14.1 Singlet|LYLY|14.1 Singlet>     0.406407773463
 !MCSCF expec    <15.1 Singlet|LYLY|15.1 Singlet>     0.000000000004
 
 !MCSCF expec      <1.1 Triplet|LZLZ|1.1 Triplet>     0.000000000220
 !MCSCF expec      <2.1 Triplet|LZLZ|2.1 Triplet>     0.999999999643
 !MCSCF expec      <3.1 Triplet|LZLZ|3.1 Triplet>     0.999999999999
 !MCSCF expec      <4.1 Triplet|LZLZ|4.1 Triplet>     1.007618141933
 !MCSCF expec      <5.1 Triplet|LZLZ|5.1 Triplet>     0.999999999995
 !MCSCF expec      <6.1 Triplet|LZLZ|6.1 Triplet>     3.999930989199
 !MCSCF expec      <7.1 Triplet|LZLZ|7.1 Triplet>     1.000103378372
 !MCSCF expec      <8.1 Triplet|LZLZ|8.1 Triplet>     2.992394899553
 !MCSCF expec      <9.1 Triplet|LZLZ|9.1 Triplet>     0.999999999996
 !MCSCF expec    <10.1 Triplet|LZLZ|10.1 Triplet>     0.999999958974
 !MCSCF expec    <11.1 Triplet|LZLZ|11.1 Triplet>     0.000000034181
 !MCSCF expec    <12.1 Triplet|LZLZ|12.1 Triplet>     0.000000000007
 !MCSCF expec      <1.1 Singlet|LZLZ|1.1 Singlet>     3.141218143505
 !MCSCF expec      <2.1 Singlet|LZLZ|2.1 Singlet>     3.999999999220
 !MCSCF expec      <3.1 Singlet|LZLZ|3.1 Singlet>     1.000000002209
 !MCSCF expec      <4.1 Singlet|LZLZ|4.1 Singlet>     0.999999999999
 !MCSCF expec      <5.1 Singlet|LZLZ|5.1 Singlet>     0.858781851568
 !MCSCF expec      <6.1 Singlet|LZLZ|6.1 Singlet>     0.000000000002
 !MCSCF expec      <7.1 Singlet|LZLZ|7.1 Singlet>     0.999999999995
 !MCSCF expec      <8.1 Singlet|LZLZ|8.1 Singlet>     0.000000002583
 !MCSCF expec      <9.1 Singlet|LZLZ|9.1 Singlet>     0.999999999479
 !MCSCF expec    <10.1 Singlet|LZLZ|10.1 Singlet>     0.156609879084
 !MCSCF expec    <11.1 Singlet|LZLZ|11.1 Singlet>     0.999999999996
 !MCSCF expec    <12.1 Singlet|LZLZ|12.1 Singlet>     1.000000000071
 !MCSCF expec    <13.1 Singlet|LZLZ|13.1 Singlet>     3.999999998436
 !MCSCF expec    <14.1 Singlet|LZLZ|14.1 Singlet>     3.843384774601
 !MCSCF expec    <15.1 Singlet|LZLZ|15.1 Singlet>     0.000000000004
 
 !MCSCF expec      <1.1 Triplet|L**2|1.1 Triplet>     2.000000000000
 !MCSCF expec      <2.1 Triplet|L**2|2.1 Triplet>     2.000000000000
 !MCSCF expec      <3.1 Triplet|L**2|3.1 Triplet>     2.000000000000
 !MCSCF expec      <4.1 Triplet|L**2|4.1 Triplet>     5.999999999957
 !MCSCF expec      <5.1 Triplet|L**2|5.1 Triplet>     5.999999999957
 !MCSCF expec      <6.1 Triplet|L**2|6.1 Triplet>     5.999999999957
 !MCSCF expec      <7.1 Triplet|L**2|7.1 Triplet>     5.999999999957
 !MCSCF expec      <8.1 Triplet|L**2|8.1 Triplet>     5.999999999957
 !MCSCF expec      <9.1 Triplet|L**2|9.1 Triplet>     2.000000000000
 !MCSCF expec    <10.1 Triplet|L**2|10.1 Triplet>     2.000000000000
 !MCSCF expec    <11.1 Triplet|L**2|11.1 Triplet>     2.000000000000
 !MCSCF expec    <12.1 Triplet|L**2|12.1 Triplet>     0.000000000021
 !MCSCF expec      <1.1 Singlet|L**2|1.1 Singlet>     5.999999999989
 !MCSCF expec      <2.1 Singlet|L**2|2.1 Singlet>     5.999999999989
 !MCSCF expec      <3.1 Singlet|L**2|3.1 Singlet>     5.999999999989
 !MCSCF expec      <4.1 Singlet|L**2|4.1 Singlet>     5.999999999989
 !MCSCF expec      <5.1 Singlet|L**2|5.1 Singlet>     5.999999999989
 !MCSCF expec      <6.1 Singlet|L**2|6.1 Singlet>     0.000000000007
 !MCSCF expec      <7.1 Singlet|L**2|7.1 Singlet>     2.000000000000
 !MCSCF expec      <8.1 Singlet|L**2|8.1 Singlet>     2.000000000000
 !MCSCF expec      <9.1 Singlet|L**2|9.1 Singlet>     2.000000000000
 !MCSCF expec    <10.1 Singlet|L**2|10.1 Singlet>     5.999999999969
 !MCSCF expec    <11.1 Singlet|L**2|11.1 Singlet>     5.999999999969
 !MCSCF expec    <12.1 Singlet|L**2|12.1 Singlet>     5.999999999969
 !MCSCF expec    <13.1 Singlet|L**2|13.1 Singlet>     5.999999999969
 !MCSCF expec    <14.1 Singlet|L**2|14.1 Singlet>     5.999999999969
 !MCSCF expec    <15.1 Singlet|L**2|15.1 Singlet>     0.000000000013
 
 EXTRA SYMMETRY OF MOS IN SYMMETRY 1:   1 2 6 4 3 5 1 1 2 6   4 3 5 1 2 6 4 3 5 1   2 6 4 3 5 1 2 6 4 3   5 2 6 4 3 5 111 7 9
                                        81214151310 2 6 4 5   3 1 1
 EXTRA SYMMETRY OF MOS IN SYMMETRY 2:   3 2 1 1 2 3 1 2 3 3   2 1 5 6 4 810 9 7 3   2 1 5 6 4 810 9 7 5   6 4 810 9 7 3 2 1 5
                                        6 4 810 7 9 3 2 1 5   6 4 810 7 9 3 2 1
 
  NATURAL ORBITALS (STATE AVERAGED)
  =================================

  Orbital  Occupation    Energy    Cen Mu Typ  Coefficients
    1.1     2.00000    -5.97943     1  1  s    1.00466
    2.1     2.00000    -1.42881     1  1  d0   1.00100
    3.1     2.00000    -1.42881     1  1  d1-  1.00100
    4.1     2.00000    -1.42881     1  1  d1+  1.00100
    5.1     2.00000    -1.42881     1  1  d2-  1.00100
    6.1     2.00000    -1.42881     1  1  d2+  1.00100
    7.1     1.95376    -0.59840     1  2  s    1.06756
    1.2     2.00000    -4.16510     1  1  pz   0.99955
    2.2     2.00000    -4.16510     1  1  py   0.99955
    3.2     2.00000    -4.16510     1  1  px   0.99955
    4.2     0.45971    -0.12442     1  2  px   1.11188
    5.2     0.45971    -0.12442     1  2  py   1.11188
    6.2     0.45971    -0.12442     1  2  pz   1.11188
    7.2     0.22237     0.01201     1  7  px   0.64525    1  8  px   0.57251
    8.2     0.22237     0.01201     1  7  py   0.64525    1  8  py   0.57251
    9.2     0.22237     0.01201     1  7  pz   0.64525    1  8  pz   0.57251
 
 Natural orbital dump (state averaged) at molpro section 2140.2 (Orbital set 2)
 
 Transform the CI vectors
 
 CI Coefficients of symmetry 1 (Triplet)
 =======================================

 State:              1               2               3               4               5               6               7
 2 a0a000       0.00000000      0.00000000      0.98317787     -0.00000000     -0.00000009     -0.00000000      0.00000000
 2 aa0000       0.98317787     -0.00001453     -0.00000000      0.00000000      0.00000000     -0.00000011      0.00000000
 2 0aa000       0.00001453      0.98317786     -0.00000000      0.00000000      0.00000000      0.00000000      0.00000002
 2 0a00a0      -0.00000000      0.00000000     -0.00000000     -0.00177083      0.00000003      0.00004113      0.00005364
 2 a00a00      -0.00000000     -0.00000000      0.00000000      0.69911318     -0.00001221      0.00001958     -0.00006084
 2 00aa00      -0.00000000     -0.00000000     -0.09396562      0.00001220      0.69822945      0.00000000      0.00000000
 2 a0000a       0.00000000      0.00000000      0.09396575      0.00001220      0.69822945     -0.00000000      0.00000000
 2 00a0a0      -0.00000139     -0.09396577      0.00000000      0.00003393     -0.00000000      0.00334841      0.69822145
 2 a000a0       0.09396577     -0.00000139     -0.00000000     -0.00004023      0.00000000      0.69822145     -0.00334841
 2 0a0a00      -0.09396562      0.00000139      0.00000000     -0.00004023      0.00000000      0.69822140     -0.00334841
 2 0a000a       0.00000139      0.09396575     -0.00000000      0.00003393     -0.00000000      0.00334841      0.69822140
 2 00a00a      -0.00000000      0.00000000     -0.00000000     -0.69734235      0.00001218     -0.00006071      0.00000719
 0 aa2000      -0.12066973      0.00000178      0.00000000     -0.00000000     -0.00000000      0.00000001     -0.00000000
 0 a2a000      -0.00000000     -0.00000000     -0.12066973      0.00000000      0.00000001     -0.00000000      0.00000000
 0 2aa000      -0.00000178     -0.12066973      0.00000000     -0.00000000     -0.00000000     -0.00000000     -0.00000000
 0 2a00a0       0.00000000     -0.00000000      0.00000000     -0.00029698      0.00000001     -0.00000465     -0.00000600
 0 0a20a0       0.00000000     -0.00000000      0.00000000      0.00069463     -0.00000001     -0.00000459     -0.00000605
 0 a20a00       0.00000000      0.00000000     -0.00000000     -0.07874194      0.00000138     -0.00000223      0.00000681
 0 02aa00       0.00000000      0.00000000      0.00979970     -0.00000137     -0.07864366     -0.00000000     -0.00000000
 0 a2000a      -0.00000000     -0.00000000     -0.00979972     -0.00000137     -0.07864366      0.00000000     -0.00000000
 0 a020a0      -0.00979972      0.00000014      0.00000000      0.00000453     -0.00000000     -0.07864276      0.00037714
 0 20a0a0       0.00000014      0.00979972     -0.00000000     -0.00000382      0.00000000     -0.00037714     -0.07864275
 0 0a2a00       0.00979970     -0.00000014     -0.00000000      0.00000453     -0.00000000     -0.07864275      0.00037714
 0 2a000a      -0.00000014     -0.00979972      0.00000000     -0.00000382      0.00000000     -0.00037714     -0.07864275
 0 02a00a       0.00000000     -0.00000000      0.00000000      0.07854500     -0.00000137      0.00000681     -0.00000085
 0 a02a00       0.00000000      0.00000000     -0.00000000     -0.07824801      0.00000137     -0.00000216      0.00000685
 0 20aa00       0.00000000      0.00000000      0.01929291     -0.00000137     -0.07814785     -0.00000000     -0.00000000
 0 a0200a      -0.00000000     -0.00000000     -0.01929291     -0.00000137     -0.07814785      0.00000000     -0.00000000
 0 02a0a0       0.00000029      0.01929291     -0.00000000     -0.00000380      0.00000000     -0.00037476     -0.07814695
 0 a200a0      -0.01929291      0.00000029      0.00000000      0.00000450     -0.00000000     -0.07814695      0.00037476
 0 0a200a      -0.00000029     -0.01929291      0.00000000     -0.00000380      0.00000000     -0.00037476     -0.07814695
 0 2a0a00       0.01929291     -0.00000029     -0.00000000      0.00000450     -0.00000000     -0.07814695      0.00037476
 0 20a00a       0.00000000     -0.00000000      0.00000000      0.07804730     -0.00000136      0.00000682     -0.00000077
 
 Energy:     -213.34039292   -213.34039292   -213.34039292   -213.17058137   -213.17058137   -213.17058137   -213.17058137

 State:              8               9              10              11              12
 2 a0a000      -0.00000000     -0.13434544     -0.00000000     -0.00000000      0.00000000
 2 aa0000       0.00000000      0.00000000      0.00002721     -0.13434545      0.00000000
 2 0aa000      -0.00000000      0.00000000     -0.13434554     -0.00002721      0.00000000
 2 0a00a0       0.80624396     -0.00000000      0.00000000      0.00000000      0.56997892
 2 a00a00      -0.40158843      0.00000000      0.00000000      0.00000000      0.56997887
 2 00aa00      -0.00000000     -0.69192254      0.00000000     -0.00000000     -0.00000000
 2 a0000a      -0.00000000      0.69192252      0.00000000     -0.00000000     -0.00000000
 2 00a0a0      -0.00004655      0.00000000     -0.69192248     -0.00014014      0.00000000
 2 a000a0      -0.00003548      0.00000000     -0.00014014      0.69192248     -0.00000000
 2 0a0a00      -0.00003548      0.00000000      0.00014014     -0.69192255      0.00000000
 2 0a000a      -0.00004655     -0.00000000      0.69192253      0.00014014     -0.00000000
 2 00a00a      -0.40465559     -0.00000000      0.00000000      0.00000000      0.56997887
 0 aa2000      -0.00000000     -0.00000000     -0.00000399      0.01969594     -0.00000000
 0 a2a000       0.00000000      0.01969594      0.00000000      0.00000000      0.00000000
 0 2aa000       0.00000000     -0.00000000      0.01969595      0.00000399     -0.00000000
 0 2a00a0      -0.09052448      0.00000000     -0.00000000     -0.00000000     -0.06455488
 0 0a20a0      -0.09052231      0.00000000     -0.00000000     -0.00000000     -0.06455488
 0 a20a00       0.04465959     -0.00000000     -0.00000000     -0.00000000     -0.06455487
 0 02aa00       0.00000000      0.07804908     -0.00000000      0.00000000      0.00000000
 0 a2000a       0.00000000     -0.07804908     -0.00000000      0.00000000      0.00000000
 0 a020a0       0.00000400     -0.00000000      0.00001581     -0.07804908      0.00000000
 0 20a0a0       0.00000524     -0.00000000      0.07804907      0.00001581     -0.00000000
 0 0a2a00       0.00000400     -0.00000000     -0.00001581      0.07804908     -0.00000000
 0 2a000a       0.00000524      0.00000000     -0.07804908     -0.00001581      0.00000000
 0 02a00a       0.04500505      0.00000000     -0.00000000     -0.00000000     -0.06455487
 0 a02a00       0.04551944     -0.00000000     -0.00000000     -0.00000000     -0.06455488
 0 20aa00       0.00000000      0.07532175     -0.00000000      0.00000000      0.00000000
 0 a0200a       0.00000000     -0.07532175     -0.00000000      0.00000000      0.00000000
 0 02a0a0       0.00000521     -0.00000000      0.07532175      0.00001526     -0.00000000
 0 a200a0       0.00000397     -0.00000000      0.00001526     -0.07532175      0.00000000
 0 0a200a       0.00000521      0.00000000     -0.07532175     -0.00001526      0.00000000
 0 2a0a00       0.00000397     -0.00000000     -0.00001526      0.07532175     -0.00000000
 0 20a00a       0.04586273      0.00000000     -0.00000000     -0.00000000     -0.06455487
 
 Energy:     -213.17058137   -213.16737740   -213.16737740   -213.16737740   -213.16542792
 
 
 CI Coefficients of symmetry 1 (Singlet)
 =======================================

 State:              1               2               3               4               5               6               7
 2 020000       0.79365306      0.00000090      0.00000043      0.00000003     -0.03321334      0.54284327      0.00000000
 2 002000      -0.36806291     -0.00000046     -0.00000028     -0.00000001      0.70393036      0.54284333      0.00000000
 2 a0b000      -0.00000002     -0.00000001      0.00000001      0.68792530      0.00000000      0.00000000     -0.00000006
 2 b0a000       0.00000002      0.00000001     -0.00000001     -0.68792530     -0.00000000     -0.00000000      0.00000006
 2 ab0000      -0.00000078      0.68792530     -0.00001103      0.00000001      0.00000004     -0.00000000     -0.00000000
 2 ba0000       0.00000078     -0.68792530      0.00001103     -0.00000001     -0.00000004      0.00000000      0.00000000
 2 0ba000       0.00000037     -0.00001103     -0.68792529      0.00000001     -0.00000008     -0.00000000     -0.00000000
 2 0ab000      -0.00000037      0.00001103      0.68792529     -0.00000001      0.00000008      0.00000000      0.00000000
 2 200000      -0.42559010     -0.00000044     -0.00000015     -0.00000001     -0.67071706      0.54284335      0.00000000
 2 00a00b      -0.05179351     -0.00000006     -0.00000004     -0.00000000      0.09905651      0.10521743      0.00000000
 2 00b00a       0.05179351      0.00000006      0.00000004      0.00000000     -0.09905651     -0.10521743     -0.00000000
 2 0b00a0      -0.11168223     -0.00000013     -0.00000006     -0.00000000      0.00467375     -0.10521743     -0.00000000
 2 0a00b0       0.11168223      0.00000013      0.00000006      0.00000000     -0.00467375      0.10521743      0.00000000
 2 b000a0       0.00000011     -0.09680430      0.00000155     -0.00000000     -0.00000001      0.00000000     -0.00000001
 2 a000b0      -0.00000011      0.09680430     -0.00000155      0.00000000      0.00000001     -0.00000000      0.00000001
 2 00b0a0       0.00000005     -0.00000155     -0.09680430      0.00000000     -0.00000001     -0.00000000      0.00000000
 2 00a0b0      -0.00000005      0.00000155      0.09680430     -0.00000000      0.00000001      0.00000000     -0.00000000
 2 b0000a       0.00000000      0.00000000     -0.00000000     -0.09680429      0.00000000      0.00000000     -0.49379068
 2 a0000b      -0.00000000     -0.00000000      0.00000000      0.09680429     -0.00000000     -0.00000000      0.49379068
 2 00ab00      -0.00000000     -0.00000000      0.00000000      0.09680420     -0.00000000      0.00000000     -0.49379068
 2 00ba00       0.00000000      0.00000000     -0.00000000     -0.09680420      0.00000000     -0.00000000      0.49379068
 2 0a000b      -0.00000005      0.00000155      0.09680429     -0.00000000      0.00000001     -0.00000000      0.00000000
 2 0b000a       0.00000005     -0.00000155     -0.09680429      0.00000000     -0.00000001      0.00000000     -0.00000000
 2 0a0b00      -0.00000011      0.09680420     -0.00000155      0.00000000      0.00000001      0.00000000     -0.00000001
 2 0b0a00       0.00000011     -0.09680420      0.00000155     -0.00000000     -0.00000001     -0.00000000      0.00000001
 2 b00a00       0.05988864      0.00000006      0.00000002      0.00000000      0.09438267     -0.10521736     -0.00000000
 2 a00b00      -0.05988864     -0.00000006     -0.00000002     -0.00000000     -0.09438267      0.10521736      0.00000000
 0 202000       0.09727383      0.00000011      0.00000005      0.00000000     -0.00407078     -0.12770314     -0.00000000
 0 220000      -0.04511152     -0.00000006     -0.00000003     -0.00000000      0.08627700     -0.12770314     -0.00000000
 0 022000      -0.05216232     -0.00000005     -0.00000002     -0.00000000     -0.08220622     -0.12770313     -0.00000000
 0 ba2000      -0.00000010      0.08431534     -0.00000135      0.00000000      0.00000000     -0.00000000     -0.00000000
 0 ab2000       0.00000010     -0.08431534      0.00000135     -0.00000000     -0.00000000      0.00000000      0.00000000
 0 b2a000      -0.00000000     -0.00000000      0.00000000      0.08431534      0.00000000     -0.00000000     -0.00000001
 0 a2b000       0.00000000      0.00000000     -0.00000000     -0.08431534     -0.00000000      0.00000000      0.00000001
 0 2ab000       0.00000005     -0.00000135     -0.08431534      0.00000000     -0.00000001     -0.00000000     -0.00000000
 0 2ba000      -0.00000005      0.00000135      0.08431534     -0.00000000      0.00000001      0.00000000      0.00000000
 0 02b00a      -0.01326113     -0.00000002     -0.00000001     -0.00000000      0.01092379      0.00638010      0.00000000
 0 02a00b       0.01326113      0.00000002      0.00000001      0.00000000     -0.01092379     -0.00638010     -0.00000000
 0 20b00a      -0.00140393     -0.00000000     -0.00000000     -0.00000000      0.01712354      0.00638009      0.00000000
 0 20a00b       0.00140393      0.00000000      0.00000000      0.00000000     -0.01712354     -0.00638009     -0.00000000
 0 0b20a0       0.01553139      0.00000002      0.00000001      0.00000000     -0.00734593      0.00638010      0.00000000
 0 0a20b0      -0.01553139     -0.00000002     -0.00000001     -0.00000000      0.00734593     -0.00638010     -0.00000000
 0 2b00a0       0.01609084      0.00000002      0.00000001      0.00000000      0.00602258      0.00638010      0.00000000
 0 2a00b0      -0.01609084     -0.00000002     -0.00000001     -0.00000000     -0.00602258     -0.00638010     -0.00000000
 0 b020a0      -0.00000001      0.01035976     -0.00000017      0.00000000      0.00000000     -0.00000000      0.00000000
 0 a020b0       0.00000001     -0.01035976      0.00000017     -0.00000000     -0.00000000      0.00000000     -0.00000000
 0 0a2b00       0.00000001     -0.01035975      0.00000017     -0.00000000     -0.00000000      0.00000000      0.00000000
 0 0b2a00      -0.00000001      0.01035975     -0.00000017      0.00000000      0.00000000     -0.00000000     -0.00000000
 0 a2000b       0.00000000      0.00000000     -0.00000000     -0.01035976      0.00000000      0.00000000     -0.05564845
 0 b2000a      -0.00000000     -0.00000000      0.00000000      0.01035976     -0.00000000     -0.00000000      0.05564845
 0 02ab00       0.00000000      0.00000000     -0.00000000     -0.01035975      0.00000000      0.00000000      0.05564845
 0 02ba00      -0.00000000     -0.00000000      0.00000000      0.01035975     -0.00000000     -0.00000000     -0.05564845
 0 20b0a0      -0.00000001      0.00000017      0.01035976     -0.00000000      0.00000000      0.00000000     -0.00000000
 0 20a0b0       0.00000001     -0.00000017     -0.01035976      0.00000000     -0.00000000     -0.00000000      0.00000000
 0 2a000b       0.00000001     -0.00000017     -0.01035976      0.00000000     -0.00000000      0.00000000     -0.00000000
 0 2b000a      -0.00000001      0.00000017      0.01035976     -0.00000000      0.00000000     -0.00000000      0.00000000
 0 0a200b       0.00000001     -0.00000027     -0.01704987      0.00000000     -0.00000000      0.00000000     -0.00000000
 0 0b200a      -0.00000001      0.00000027      0.01704987     -0.00000000      0.00000000     -0.00000000      0.00000000
 0 a0200b       0.00000000      0.00000000     -0.00000000     -0.01704987     -0.00000000      0.00000000     -0.05460936
 0 b0200a      -0.00000000     -0.00000000      0.00000000      0.01704987      0.00000000     -0.00000000      0.05460936
 0 20ab00       0.00000000      0.00000000     -0.00000000     -0.01704987      0.00000000     -0.00000000      0.05460936
 0 20ba00      -0.00000000     -0.00000000      0.00000000      0.01704987     -0.00000000      0.00000000     -0.05460936
 0 02a0b0       0.00000001     -0.00000027     -0.01704987      0.00000000     -0.00000000     -0.00000000      0.00000000
 0 02b0a0      -0.00000001      0.00000027      0.01704987     -0.00000000      0.00000000      0.00000000     -0.00000000
 0 2b0a00      -0.00000002      0.01704987     -0.00000027      0.00000000      0.00000000     -0.00000000     -0.00000000
 0 2a0b00       0.00000002     -0.01704987      0.00000027     -0.00000000     -0.00000000      0.00000000      0.00000000
 0 a200b0       0.00000002     -0.01704987      0.00000027     -0.00000000     -0.00000000      0.00000000     -0.00000000
 0 b200a0      -0.00000002      0.01704987     -0.00000027      0.00000000      0.00000000     -0.00000000      0.00000000
 
 Energy:     -213.30437549   -213.30437549   -213.30437549   -213.30437549   -213.30437549   -213.27437871   -213.17401974

 State:              8               9              10              11              12              13              14
 2 020000       0.00000000     -0.00000000      0.05085513     -0.00000011     -0.00000013     -0.00000800     -0.15122139
 2 002000       0.00000000      0.00000000     -0.15638912      0.00000033     -0.00000222      0.00000282      0.03156886
 2 a0b000       0.00000000      0.00000000     -0.00000029     -0.13816871     -0.00000006     -0.00000000     -0.00000000
 2 b0a000      -0.00000000     -0.00000000      0.00000029      0.13816871      0.00000006      0.00000000      0.00000000
 2 ab0000      -0.00000007      0.00000000     -0.00000109      0.00000000      0.00000029     -0.13816872      0.00000695
 2 ba0000       0.00000007     -0.00000000      0.00000109     -0.00000000     -0.00000029      0.13816872     -0.00000695
 2 0ba000      -0.00000000     -0.00000001     -0.00000213     -0.00000006      0.13816878      0.00000029     -0.00000084
 2 0ab000       0.00000000      0.00000001      0.00000213      0.00000006     -0.13816878     -0.00000029      0.00000084
 2 200000       0.00000000      0.00000000      0.10553389     -0.00000022      0.00000235      0.00000519      0.11965241
 2 00a00b      -0.00000000      0.00000000      0.54796753     -0.00000114      0.00000778     -0.00000987     -0.11061325
 2 00b00a       0.00000000     -0.00000000     -0.54796753      0.00000114     -0.00000778      0.00000987      0.11061325
 2 0b00a0       0.00000000     -0.00000000      0.17818987     -0.00000037     -0.00000046     -0.00002804     -0.52986042
 2 0a00b0      -0.00000000      0.00000000     -0.17818987      0.00000037      0.00000046      0.00002804      0.52986042
 2 b000a0      -0.49379068      0.00002504     -0.00000380      0.00000000      0.00000103     -0.48412578      0.00002435
 2 a000b0       0.49379068     -0.00002504      0.00000380     -0.00000000     -0.00000103      0.48412578     -0.00002435
 2 00b0a0       0.00002504      0.49379068      0.00000746      0.00000021     -0.48412578     -0.00000103      0.00000293
 2 00a0b0      -0.00002504     -0.49379068     -0.00000746     -0.00000021      0.48412578      0.00000103     -0.00000293
 2 b0000a       0.00000001      0.00000000     -0.00000101     -0.48412579     -0.00000021     -0.00000000     -0.00000000
 2 a0000b      -0.00000001     -0.00000000      0.00000101      0.48412579      0.00000021      0.00000000      0.00000000
 2 00ab00       0.00000001      0.00000000      0.00000101      0.48412581      0.00000021      0.00000000      0.00000000
 2 00ba00      -0.00000001     -0.00000000     -0.00000101     -0.48412581     -0.00000021     -0.00000000     -0.00000000
 2 0a000b       0.00002504      0.49379068     -0.00000746     -0.00000021      0.48412579      0.00000103     -0.00000293
 2 0b000a      -0.00002504     -0.49379068      0.00000746      0.00000021     -0.48412579     -0.00000103      0.00000293
 2 0a0b00      -0.49379068      0.00002504      0.00000380     -0.00000000     -0.00000103      0.48412581     -0.00002435
 2 0b0a00       0.49379068     -0.00002504     -0.00000380      0.00000000      0.00000103     -0.48412581      0.00002435
 2 b00a00       0.00000000      0.00000000      0.36977766     -0.00000077      0.00000824      0.00001818      0.41924719
 2 a00b00      -0.00000000     -0.00000000     -0.36977766      0.00000077     -0.00000824     -0.00001818     -0.41924719
 0 202000      -0.00000000     -0.00000000      0.00704423     -0.00000001     -0.00000002     -0.00000111     -0.02094649
 0 220000      -0.00000000     -0.00000000     -0.02166231      0.00000005     -0.00000031      0.00000039      0.00437279
 0 022000      -0.00000000     -0.00000000      0.01461809     -0.00000003      0.00000033      0.00000072      0.01657373
 0 ba2000      -0.00000001      0.00000000     -0.00000015      0.00000000      0.00000004     -0.01913851      0.00000096
 0 ab2000       0.00000001     -0.00000000      0.00000015     -0.00000000     -0.00000004      0.01913851     -0.00000096
 0 b2a000       0.00000000     -0.00000000     -0.00000004     -0.01913851     -0.00000001     -0.00000000     -0.00000000
 0 a2b000      -0.00000000      0.00000000      0.00000004      0.01913851      0.00000001      0.00000000      0.00000000
 0 2ab000      -0.00000000     -0.00000000     -0.00000030     -0.00000001      0.01913852      0.00000004     -0.00000012
 0 2ba000       0.00000000      0.00000000      0.00000030      0.00000001     -0.01913852     -0.00000004      0.00000012
 0 02b00a      -0.00000000      0.00000000      0.06120428     -0.00000013      0.00000088     -0.00000102     -0.01067239
 0 02a00b       0.00000000     -0.00000000     -0.06120428      0.00000013     -0.00000088      0.00000102      0.01067239
 0 20b00a      -0.00000000      0.00000000      0.06055167     -0.00000013      0.00000085     -0.00000118     -0.01390539
[...]
 13  1     1    1  |1 0>          0.00%    0.00%    0.00%    0.00%    0.00%    0.00%    0.00%    0.00%
 14  1     2    1  |1 0>          0.00%    0.00%    0.01%    0.00%    0.00%    0.00%    0.00%    0.00%
 15  1     3    1  |1 0>          0.00%    0.00%    0.00%    0.00%    0.00%    0.00%    0.00%    0.00%
 16  1     4    1  |1 0>          0.00%    0.00%    0.00%    5.41%    0.00%    0.00%    0.00%   41.08%
 17  1     5    1  |1 0>          0.00%    0.00%    0.00%    0.00%    2.37%    0.00%   42.04%    0.00%
 18  1     6    1  |1 0>         19.15%   24.08%    0.00%    0.00%    0.00%    0.00%    0.00%    0.00%
 19  1     7    1  |1 0>          0.00%    0.00%    0.00%    0.00%    4.84%    0.00%    2.76%    0.00%
 20  1     8    1  |1 0>          0.00%    0.00%    0.00%    0.00%    0.00%    5.41%    0.00%    0.00%
 21  1     9    1  |1 0>          0.00%    0.00%    0.00%   15.66%    0.00%    0.00%    0.00%    0.00%
 22  1    10    1  |1 0>          5.97%    4.75%   28.88%    0.00%    0.00%    0.00%    0.00%    0.00%
 23  1    11    1  |1 0>          0.00%    0.00%    0.00%    0.00%    0.00%   15.66%    0.00%    0.00%
 24  1    12    1  |1 0>          0.00%    0.00%    0.00%    0.00%    3.06%    0.00%    0.00%    0.00%
 25  1     1    1  |1 1>-         0.00%    0.00%    0.01%    0.00%    0.00%    0.00%    0.00%    0.00%
 26  1     2    1  |1 1>-         0.00%    0.00%    0.00%    0.00%    0.00%    0.00%    0.00%    0.00%
 27  1     3    1  |1 1>-         0.00%    0.00%    0.00%    0.00%    0.00%    0.00%    0.00%    0.00%
 28  1     4    1  |1 1>-        41.45%    1.79%    0.00%    0.00%    0.00%    0.00%    0.00%    0.00%
 29  1     5    1  |1 1>-         0.00%    0.00%    0.00%    0.00%    0.00%    1.29%    0.00%    0.00%
 30  1     6    1  |1 1>-         0.00%    0.00%    0.00%    5.41%    0.00%    0.00%    0.00%    3.19%
 31  1     7    1  |1 1>-         0.00%    0.00%    0.00%    0.00%    0.00%    5.93%    0.00%    0.00%
 32  1     8    1  |1 1>-         0.00%    0.00%    0.00%    0.00%    5.41%    0.00%    2.04%    0.00%
 33  1     9    1  |1 1>-         0.44%   10.28%   28.88%    0.00%    0.00%    0.00%    0.00%    0.00%
 34  1    10    1  |1 1>-         0.00%    0.00%    0.00%   15.66%    0.00%    0.00%    0.00%    0.00%
 35  1    11    1  |1 1>-         0.00%    0.00%    0.00%    0.00%   15.66%    0.00%    0.00%    0.00%
 36  1    12    1  |1 1>-         0.00%    0.00%    0.00%    0.00%    0.00%    3.06%    0.00%    0.00%
 37  1     1    1  |0 0>          0.00%    0.00%    0.00%    0.00%    0.00%    0.00%    0.00%    0.00%
 38  1     2    1  |0 0>          0.00%    0.00%    0.00%    0.00%    0.00%    0.00%    0.00%    0.00%
 39  1     3    1  |0 0>          0.00%    0.00%    0.00%    0.00%    0.00%    0.00%    0.00%    0.00%
 40  1     4    1  |0 0>          0.01%    0.01%    0.00%    0.00%    0.00%    0.00%    0.00%    0.00%
 41  1     5    1  |0 0>          0.01%    0.01%    0.00%    0.00%    0.00%    0.00%    0.00%    0.00%
 42  1     6    1  |0 0>          0.00%    0.00%    0.02%    0.00%    0.00%    0.00%    0.00%    0.00%
 43  1     7    1  |0 0>          0.00%    0.00%    0.00%   47.58%    0.00%    0.00%    0.00%    0.00%
 44  1     8    1  |0 0>          0.00%    0.00%    0.00%    0.00%    0.00%   47.58%    0.00%    0.00%
 45  1     9    1  |0 0>          0.00%    0.00%    0.00%    0.00%   47.58%    0.00%    0.00%    0.00%
 46  1    10    1  |0 0>          0.00%    0.00%    0.00%    0.00%    0.00%    0.00%    0.00%    0.00%
 47  1    11    1  |0 0>          0.00%    0.00%    0.00%    0.00%    0.00%    0.00%    0.00%    0.00%
 48  1    12    1  |0 0>          0.00%    0.00%    0.00%    0.00%    0.00%    0.00%    0.00%    0.00%
 49  1    13    1  |0 0>          5.43%   13.62%    0.00%    0.00%    0.00%    0.00%    0.00%    0.00%
 50  1    14    1  |0 0>         13.62%    5.43%    0.00%    0.00%    0.00%    0.00%    0.00%    0.00%
 51  1    15    1  |0 0>          0.00%    0.00%   13.32%    0.00%    0.00%    0.00%    0.00%    0.00%

   Total
 Nr Sym  State Sym Spin / Nr.     33       34       35       36       37       38       39       40

  1  1     1    1  |1 1>+         0.00%    0.00%    0.00%    0.00%    0.00%    0.00%    0.00%    0.00%
  2  1     2    1  |1 1>+         0.00%    0.00%    0.00%    0.00%    0.00%    0.00%    0.00%    0.00%
  3  1     3    1  |1 1>+         0.00%    0.00%    0.00%    0.00%    0.00%    0.00%    0.00%    0.00%
  4  1     4    1  |1 1>+         0.00%    0.00%    0.00%    0.00%    0.17%    0.00%    4.92%    0.00%
  5  1     5    1  |1 1>+         0.00%    0.00%    6.90%    0.00%    0.00%    0.15%    0.00%    0.00%
  6  1     6    1  |1 1>+        53.32%    0.00%    0.00%    0.02%    0.00%    0.00%    0.00%    4.92%
  7  1     7    1  |1 1>+         0.00%    0.00%   30.70%    0.00%    0.00%   19.54%    0.00%    0.00%
  8  1     8    1  |1 1>+         0.00%   33.33%    0.00%    0.00%    0.00%    0.00%    0.00%    0.00%
  9  1     9    1  |1 1>+         0.00%    0.00%    0.00%    0.00%    0.00%    0.00%   31.47%    0.00%
 10  1    10    1  |1 1>+         0.00%    0.00%    0.00%    0.00%    0.00%    0.00%    0.00%   31.47%
 11  1    11    1  |1 1>+         0.00%    0.00%    0.00%    0.00%    0.00%    0.00%    0.00%    0.00%
 12  1    12    1  |1 1>+         0.00%    0.00%    0.00%    0.00%    0.00%    0.00%    0.00%    0.00%
 13  1     1    1  |1 0>          0.00%    0.00%    0.00%    0.00%    0.00%    0.00%    0.00%    0.00%
 14  1     2    1  |1 0>          0.00%    0.00%    0.00%    0.00%    0.00%    0.00%    0.00%    0.00%
 15  1     3    1  |1 0>          0.00%    0.00%    0.00%    0.00%    0.00%    0.00%    0.00%    0.00%
 16  1     4    1  |1 0>          0.00%    0.00%   12.26%    0.00%    0.00%    4.92%    0.00%    0.00%
 17  1     5    1  |1 0>          0.00%    0.00%    0.00%    0.00%    0.06%    0.00%   13.21%    0.00%
 18  1     6    1  |1 0>          0.00%   33.33%    0.00%    0.00%    0.00%    0.00%    0.00%    0.00%
 19  1     7    1  |1 0>          0.00%    0.00%    0.00%    0.00%   48.47%    0.00%    6.48%    0.00%
 20  1     8    1  |1 0>          3.79%    0.00%    0.00%   49.55%    0.00%    0.00%    0.00%    4.92%
 21  1     9    1  |1 0>          0.00%    0.00%    0.00%    0.00%    0.00%   31.47%    0.00%    0.00%
 22  1    10    1  |1 0>          0.00%    0.00%    0.00%    0.00%    0.00%    0.00%    0.00%    0.00%
 23  1    11    1  |1 0>          0.00%    0.00%    0.00%    0.00%    0.00%    0.00%    0.00%   31.47%
 24  1    12    1  |1 0>          0.00%    0.00%    0.00%    0.00%    0.00%    0.00%    0.00%    0.00%
 25  1     1    1  |1 1>-         0.00%    0.00%    0.00%    0.00%    0.00%    0.00%    0.00%    0.00%
 26  1     2    1  |1 1>-         0.00%    0.00%    0.00%    0.00%    0.00%    0.00%    0.00%    0.00%
 27  1     3    1  |1 1>-         0.00%    0.00%    0.00%    0.00%    0.00%    0.00%    0.00%    0.00%
 28  1     4    1  |1 1>-         0.00%   33.34%    0.00%    0.00%    0.00%    0.00%    0.00%    0.00%
 29  1     5    1  |1 1>-        37.84%    0.00%    0.00%    0.26%    0.00%    0.00%    0.00%   16.17%
 30  1     6    1  |1 1>-         0.00%    0.00%   50.14%    0.00%    0.00%    4.92%    0.00%    0.00%
 31  1     7    1  |1 1>-         5.06%    0.00%    0.00%   50.18%    0.00%    0.00%    0.00%    3.51%
 32  1     8    1  |1 1>-         0.00%    0.00%    0.00%    0.00%   51.30%    0.00%    4.92%    0.00%
 33  1     9    1  |1 1>-         0.00%    0.00%    0.00%    0.00%    0.00%    0.00%    0.00%    0.00%
 34  1    10    1  |1 1>-         0.00%    0.00%    0.00%    0.00%    0.00%   31.47%    0.00%    0.00%
 35  1    11    1  |1 1>-         0.00%    0.00%    0.00%    0.00%    0.00%    0.00%   31.47%    0.00%
 36  1    12    1  |1 1>-         0.00%    0.00%    0.00%    0.00%    0.00%    0.00%    0.00%    0.00%
 37  1     1    1  |0 0>          0.00%    0.00%    0.00%    0.00%    0.00%    0.02%    0.00%    0.00%
 38  1     2    1  |0 0>          0.00%    0.00%    0.00%    0.00%    0.00%    0.00%    0.00%    0.02%
 39  1     3    1  |0 0>          0.00%    0.00%    0.00%    0.00%    0.00%    0.00%    0.02%    0.00%
 40  1     4    1  |0 0>          0.00%    0.00%    0.00%    0.00%    0.00%    0.00%    0.00%    0.00%
 41  1     5    1  |0 0>          0.00%    0.00%    0.00%    0.00%    0.00%    0.00%    0.00%    0.00%
 42  1     6    1  |0 0>          0.00%    0.00%    0.00%    0.00%    0.00%    0.00%    0.00%    0.00%
 43  1     7    1  |0 0>          0.00%    0.00%    0.00%    0.00%    0.00%    0.00%    0.00%    0.00%
 44  1     8    1  |0 0>          0.00%    0.00%    0.00%    0.00%    0.00%    0.00%    0.00%    0.00%
 45  1     9    1  |0 0>          0.00%    0.00%    0.00%    0.00%    0.00%    0.00%    0.00%    0.00%
 46  1    10    1  |0 0>          0.00%    0.00%    0.00%    0.00%    0.00%    7.51%    0.00%    0.00%
 47  1    11    1  |0 0>          0.00%    0.00%    0.00%    0.00%    0.00%    0.00%    0.00%    7.51%
 48  1    12    1  |0 0>          0.00%    0.00%    0.00%    0.00%    0.00%    0.00%    7.51%    0.00%
 49  1    13    1  |0 0>          0.00%    0.00%    0.00%    0.00%    0.00%    0.00%    0.00%    0.00%
 50  1    14    1  |0 0>          0.00%    0.00%    0.00%    0.00%    0.00%    0.00%    0.00%    0.00%
 51  1    15    1  |0 0>          0.00%    0.00%    0.00%    0.00%    0.00%    0.00%    0.00%    0.00%

   Total
 Nr Sym  State Sym Spin / Nr.     41       42       43       44       45       46       47       48

  1  1     1    1  |1 1>+         0.00%    0.00%    0.00%    0.01%    0.00%    0.00%    0.00%    0.01%
  2  1     2    1  |1 1>+         0.00%    0.00%    0.00%    0.00%    0.01%    0.00%    0.01%    0.00%
  3  1     3    1  |1 1>+         0.00%    0.00%    0.00%    0.00%    0.00%    0.00%    0.00%    0.00%
  4  1     4    1  |1 1>+         0.00%    0.00%    0.00%    0.03%    0.00%    0.00%    0.00%    0.93%
  5  1     5    1  |1 1>+         0.00%    0.00%    0.04%    0.00%    0.00%    0.03%    0.00%    0.00%
  6  1     6    1  |1 1>+         0.00%    0.00%    0.00%    0.00%    0.03%    0.00%    0.93%    0.00%
  7  1     7    1  |1 1>+         0.00%    0.00%    0.00%    0.00%    0.00%    3.70%    0.00%    0.00%
  8  1     8    1  |1 1>+         2.62%   17.06%    0.00%    0.00%    0.00%    0.00%    0.00%    0.00%
  9  1     9    1  |1 1>+         0.00%    0.00%    0.00%   11.08%    0.00%    0.00%    0.00%   10.48%
 10  1    10    1  |1 1>+         0.00%    0.00%    0.00%    0.00%   11.08%    0.00%   10.48%    0.00%
 11  1    11    1  |1 1>+        36.37%    5.59%    0.00%    0.00%    0.00%    0.00%    0.00%    0.00%
 12  1    12    1  |1 1>+         0.00%    0.00%   74.33%    0.00%    0.00%    0.00%    0.00%    0.00%
 13  1     1    1  |1 0>          0.00%    0.00%    0.01%    0.00%    0.00%    0.01%    0.00%    0.00%
 14  1     2    1  |1 0>          0.00%    0.00%    0.00%    0.00%    0.00%    0.00%    0.00%    0.00%
 15  1     3    1  |1 0>          0.00%    0.00%    0.00%    0.00%    0.01%    0.00%    0.01%    0.00%
 16  1     4    1  |1 0>          0.00%    0.00%    0.03%    0.00%    0.00%    0.93%    0.00%    0.00%
 17  1     5    1  |1 0>          0.00%    0.00%    0.00%    0.01%    0.00%    0.00%    0.00%    2.50%
 18  1     6    1  |1 0>          7.66%   12.02%    0.00%    0.00%    0.00%    0.00%    0.00%    0.00%
 19  1     7    1  |1 0>          0.00%    0.00%    0.00%    0.03%    0.00%    0.00%    0.00%    1.23%
 20  1     8    1  |1 0>          0.00%    0.00%    0.00%    0.00%    0.03%    0.00%    0.93%    0.00%
 21  1     9    1  |1 0>          0.00%    0.00%   11.08%    0.00%    0.00%   10.48%    0.00%    0.00%
 22  1    10    1  |1 0>         25.64%   16.33%    0.00%    0.00%    0.00%    0.00%    0.00%    0.00%
 23  1    11    1  |1 0>          0.00%    0.00%    0.00%    0.00%   11.08%    0.00%   10.48%    0.00%
 24  1    12    1  |1 0>          0.00%    0.00%    0.00%   74.33%    0.00%    0.00%    0.00%    0.00%
 25  1     1    1  |1 1>-         0.00%    0.00%    0.00%    0.00%    0.00%    0.00%    0.00%    0.00%
 26  1     2    1  |1 1>-         0.00%    0.00%    0.01%    0.00%    0.00%    0.01%    0.00%    0.00%
 27  1     3    1  |1 1>-         0.00%    0.00%    0.00%    0.01%    0.00%    0.00%    0.00%    0.01%
 28  1     4    1  |1 1>-        19.24%    0.44%    0.00%    0.00%    0.00%    0.00%    0.00%    0.00%
 29  1     5    1  |1 1>-         0.00%    0.00%    0.00%    0.00%    0.01%    0.00%    3.06%    0.00%
 30  1     6    1  |1 1>-         0.00%    0.00%    0.03%    0.00%    0.00%    0.93%    0.00%    0.00%
 31  1     7    1  |1 1>-         0.00%    0.00%    0.00%    0.00%    0.04%    0.00%    0.67%    0.00%
 32  1     8    1  |1 1>-         0.00%    0.00%    0.00%    0.03%    0.00%    0.00%    0.00%    0.93%
 33  1     9    1  |1 1>-         0.94%   41.03%    0.00%    0.00%    0.00%    0.00%    0.00%    0.00%
 34  1    10    1  |1 1>-         0.00%    0.00%   11.08%    0.00%    0.00%   10.48%    0.00%    0.00%
 35  1    11    1  |1 1>-         0.00%    0.00%    0.00%   11.08%    0.00%    0.00%    0.00%   10.48%
 36  1    12    1  |1 1>-         0.00%    0.00%    0.00%    0.00%   74.33%    0.00%    0.00%    0.00%
 37  1     1    1  |0 0>          0.00%    0.00%    0.00%    0.00%    0.00%    0.00%    0.00%    0.00%
 38  1     2    1  |0 0>          0.00%    0.00%    0.00%    0.00%    0.00%    0.00%    0.00%    0.00%
 39  1     3    1  |0 0>          0.00%    0.00%    0.00%    0.00%    0.00%    0.00%    0.00%    0.00%
 40  1     4    1  |0 0>          0.01%    0.01%    0.00%    0.00%    0.00%    0.00%    0.00%    0.00%
 41  1     5    1  |0 0>          0.01%    0.01%    0.00%    0.00%    0.00%    0.00%    0.00%    0.00%
 42  1     6    1  |0 0>          0.00%    0.00%    0.00%    0.00%    0.00%    0.00%    0.00%    0.00%
 43  1     7    1  |0 0>          0.00%    0.00%    3.39%    0.00%    0.00%    0.00%    0.00%    0.00%
 44  1     8    1  |0 0>          0.00%    0.00%    0.00%    0.00%    3.39%    0.00%    0.00%    0.00%
 45  1     9    1  |0 0>          0.00%    0.00%    0.00%    3.39%    0.00%    0.00%    0.00%    0.00%
 46  1    10    1  |0 0>          0.00%    0.00%    0.00%    0.00%    0.00%   73.44%    0.00%    0.00%
 47  1    11    1  |0 0>          0.00%    0.00%    0.00%    0.00%    0.00%    0.00%   73.44%    0.00%
 48  1    12    1  |0 0>          0.00%    0.00%    0.00%    0.00%    0.00%    0.00%    0.00%   73.44%
 49  1    13    1  |0 0>          2.52%    4.98%    0.00%    0.00%    0.00%    0.00%    0.00%    0.00%
 50  1    14    1  |0 0>          4.99%    2.52%    0.00%    0.00%    0.00%    0.00%    0.00%    0.00%
 51  1    15    1  |0 0>          0.00%    0.00%    0.00%    0.00%    0.00%    0.00%    0.00%    0.00%

   Total
 Nr Sym  State Sym Spin / Nr.     49       50       51

  1  1     1    1  |1 1>+         0.00%    0.00%    0.00%
  2  1     2    1  |1 1>+         0.00%    0.00%    0.00%
  3  1     3    1  |1 1>+         0.00%    0.01%    0.01%
  4  1     4    1  |1 1>+         0.00%    0.00%    0.00%
  5  1     5    1  |1 1>+         0.00%    0.00%    0.00%
  6  1     6    1  |1 1>+         0.00%    0.00%    0.00%
  7  1     7    1  |1 1>+         0.00%    0.00%    0.00%
  8  1     8    1  |1 1>+         3.61%    0.12%    0.00%
  9  1     9    1  |1 1>+         0.00%    0.00%    0.00%
 10  1    10    1  |1 1>+         0.00%    0.00%    0.00%
 11  1    11    1  |1 1>+         0.43%   13.54%    4.44%
 12  1    12    1  |1 1>+         0.00%    0.00%    0.00%
 13  1     1    1  |1 0>          0.00%    0.00%    0.00%
 14  1     2    1  |1 0>          0.01%    0.00%    0.01%
 15  1     3    1  |1 0>          0.00%    0.00%    0.00%
 16  1     4    1  |1 0>          0.00%    0.00%    0.00%
 17  1     5    1  |1 0>          0.00%    0.00%    0.00%
 18  1     6    1  |1 0>          0.43%    3.29%    0.00%
 19  1     7    1  |1 0>          0.00%    0.00%    0.00%
 20  1     8    1  |1 0>          0.00%    0.00%    0.00%
 21  1     9    1  |1 0>          0.00%    0.00%    0.00%
 22  1    10    1  |1 0>         12.36%    1.61%    4.44%
 23  1    11    1  |1 0>          0.00%    0.00%    0.00%
 24  1    12    1  |1 0>          0.00%    0.00%    0.00%
 25  1     1    1  |1 1>-         0.01%    0.00%    0.01%
 26  1     2    1  |1 1>-         0.00%    0.00%    0.00%
 27  1     3    1  |1 1>-         0.00%    0.00%    0.00%
 28  1     4    1  |1 1>-         1.55%    2.18%    0.00%
 29  1     5    1  |1 1>-         0.00%    0.00%    0.00%
 30  1     6    1  |1 1>-         0.00%    0.00%    0.00%
 31  1     7    1  |1 1>-         0.00%    0.00%    0.00%
 32  1     8    1  |1 1>-         0.00%    0.00%    0.00%
 33  1     9    1  |1 1>-         8.17%    5.81%    4.44%
 34  1    10    1  |1 1>-         0.00%    0.00%    0.00%
 35  1    11    1  |1 1>-         0.00%    0.00%    0.00%
 36  1    12    1  |1 1>-         0.00%    0.00%    0.00%
 37  1     1    1  |0 0>          0.00%    0.00%    0.00%
 38  1     2    1  |0 0>          0.00%    0.00%    0.00%
 39  1     3    1  |0 0>          0.00%    0.00%    0.00%
 40  1     4    1  |0 0>          0.00%    0.00%    0.00%
 41  1     5    1  |0 0>          0.00%    0.00%    0.00%
 42  1     6    1  |0 0>          0.00%    0.00%    0.00%
 43  1     7    1  |0 0>          0.00%    0.00%    0.00%
 44  1     8    1  |0 0>          0.00%    0.00%    0.00%
 45  1     9    1  |0 0>          0.00%    0.00%    0.00%
 46  1    10    1  |0 0>          0.00%    0.00%    0.00%
 47  1    11    1  |0 0>          0.00%    0.00%    0.00%
 48  1    12    1  |0 0>          0.00%    0.00%    0.00%
 49  1    13    1  |0 0>         73.10%    0.33%    0.00%
 50  1    14    1  |0 0>          0.33%   73.11%    0.00%
 51  1    15    1  |0 0>          0.00%    0.00%   86.64%


 No matrix element <i|DMX|i> larger than 5E-7
 No matrix element <i|DMX|1> larger than 5E-7

 No matrix element <i|DMY|i> larger than 5E-7
 No matrix element <i|DMY|1> larger than 5E-7

 No matrix element <i|DMZ|i> larger than 5E-7
 No matrix element <i|DMZ|1> larger than 5E-7


 **********************************************************************************************************************************
 DATASETS  * FILE   NREC   LENGTH (MB)   RECORD NAMES
              1      21       39.05       500      610      700      900      950      970     1000      129      960     1100   
                                          VAR    BASINP    GEOM    SYMINP    ZMAT    AOBASIS   BASIS     P2S    ABASIS      S 
                                         1400     1410     1420     1200     1210     1080     1700     1600     1650     1380   
                                           T        V       ECP      H0       H01     AOSYM    OPER      SMH    MOLCAS    JKOP   
                                         1700(1)
                                         OPER   

              2       7     1931.38       700     1000      520     2100     2140     5201     5101   
                                         GEOM     BASIS   MCVARS     RHF     MCSCF    MRCI     MRCI   

 PROGRAMS   *        TOTAL        CI        CI        CI     MULTI   RHF-SCF       INT
 CPU TIMES  *     87979.94  81183.30   3397.75   3395.56      2.12      0.12      0.81
 REAL TIME  *     89081.14 SEC
 DISK USED  *         1.92 GB (local),       30.87 GB (total)
 SF USED    *        10.28 GB
 GA USED    *         0.00 MB       (max)       0.00 MB       (current)
 **********************************************************************************************************************************

 CI/USERDEF energy=   -213.863252658738

              CI              CI           MULTI         RHF-SCF
   -213.81239223   -213.82449273   -213.15979562   -213.37364695
 **********************************************************************************************************************************
 Molpro calculation terminated with 1 warning(s)
