
 Working directory              : /wrk/irikura/molpro.PvXs3PI63y/
 Global scratch directory       : /wrk/irikura/molpro.PvXs3PI63y/
 Wavefunction directory         : /home/irikura/wfu/
 Main file repository           : /wrk/irikura/molpro.PvXs3PI63y/

 id        : nistki

 Nodes            nprocs
 pn112695.nist.gov   12
 GA implementation: MPI file
 GA implementation (serial work in mppx): MPI file

 Using customized tuning parameters: mindgm=1; mindgv=20; mindgc=4; mindgr=1; noblas=0; minvec=7
 default implementation of scratch files=sf  


 Variables initialized (1042), CPU time= 0.01 sec
 ***,Sn SO-CI
 memory,1500,M;
 
 gprint,orbitals,civector;
 
 symmetry,xyz
 geometry={Sn};
 
 basis=aug-cc-pwCVQZ-PP
 
                                                                                 ! spherical anion orbitals (4S odd)
 {rhf; wf,nelec=23,sym=2,spin=3}
 
 NTRIP=12
 NSING=15
 
 w = [99,99,99]
 DO i=4,NTRIP
   w(i) = 1
 ENDDO
 
                                                                                 ! add 6p to active space
 {multi
     closed,6,3
     occ,7,9
     wf,nelec=22,sym=1,spin=2;state,NTRIP;
 weight,w
     wf,nelec=22,sym=1,spin=0;state,NSING;
 weight,all,1
     expec2,lxx,lyy,lzz;
 }
 table, energy, ll
 title, Energies and &lt;L**2&gt; values
 
 core,0,0
 
 {ci;wf,sym=1,spin=2;state,NTRIP; save,5201.2}
 hlsdiag = energd4
 {ci;wf,sym=1,spin=0;state,NSING; save,5101.2}
 hlsdiag(NTRIP+1) = energd4
 
 table,hlsdiag
 
 {ci;hlsmat,ecp,5201.2,5101.2;print,vls=0,hls=0}                                 !compute and diagonalize SO matrix
 Commands initialized (847), CPU time= 0.01 sec, 718 directives.
 Default parameters read. Elapsed time= 0.11 sec

 Checking input...
 Passed
1


                                         ***  PROGRAM SYSTEM MOLPRO  ***
                                       Copyright, TTI GmbH Stuttgart, 2015
                                    Version 2024.1 linked Wed Jan 31 05:42:09 2024


 **********************************************************************************************************************************
 LABEL *   Sn SO-CI                                                                                                                                                      
  (32 PROC) 64 bit mpp version                                                           DATE: 03-May-24          TIME: 10:47:14  
 **********************************************************************************************************************************

 SHA1:             675817fde4514a4a933b69e420913a90cee4ef91
 **********************************************************************************************************************************

 Memory per process:      1500 MW
 Total memory per node:  18000 MW

 GA preallocation disabled
 GA check disabled

 Variable memory set to 1500.0 MW


 ZSYMEL=XYZ

 SETTING BASIS          =    AUG-CC-PWCVQZ-PP


 Recomputing integrals since basis changed


 Using spherical harmonics

 Library entry Sn   ECP ECP28MDF                 selected for group  1
 Library entry SN     S aug-cc-pwCVQZ-PP     selected for orbital group  1
 Library entry SN     P aug-cc-pwCVQZ-PP     selected for orbital group  1
 Library entry SN     D aug-cc-pwCVQZ-PP     selected for orbital group  1
 Library entry SN     F aug-cc-pwCVQZ-PP     selected for orbital group  1
 Library entry SN     G aug-cc-pwCVQZ-PP     selected for orbital group  1
 Library entry SN     H aug-cc-pwCVQZ-PP     selected for orbital group  1


 PROGRAM * SEWARD (Integral evaluation for generally contracted gaussian basis sets)     Author: Roland Lindh, 1990

 Geometry written to block  1 of record 700

 Orientation using atomic masses  
 Molecule type: Atom
 User-specified symmetry elements: XYZ
 Symmetry elements: XYZ
 Rotational constants:       0.0000000      0.0000000      0.0000000 GHz  (calculated with average atomic masses)

 Point group  Ci  



 ATOMIC COORDINATES

 NR  ATOM    CHARGE       X              Y              Z

   1  SN     22.00    0.000000000    0.000000000    0.000000000

 NUCLEAR CHARGE:                   22
 NUMBER OF PRIMITIVE AOS:         300
 NUMBER OF SYMMETRY AOS:          232
 NUMBER OF CONTRACTIONS:          169   (   86Ag  +   83Au  )
 NUMBER OF INNER CORE ORBITALS:     0   (    0Ag  +    0Au  )
 NUMBER OF OUTER CORE ORBITALS:     9   (    6Ag  +    3Au  )
 NUMBER OF VALENCE ORBITALS:        4   (    1Ag  +    3Au  )


 LX: Ag           LY: Ag           LZ: Ag 


 NUCLEAR REPULSION ENERGY    0.00000000

 EXTRA SYMMETRY OF AOS IN SYMMETRY 1:   1 1 1 1 1 1 1 1 1 1   2 3 4 5 6 2 3 4 5 6   2 3 4 5 6 2 3 4 5 6   2 3 4 5 6 2 3 4 5 6
                                        2 3 4 5 6 2 3 4 5 6   7 8 9101112131415 7   8 9101112131415 7 8   9101112131415 7 8 9
                                       101112131415
 EXTRA SYMMETRY OF AOS IN SYMMETRY 2:   1 2 3 1 2 3 1 2 3 1   2 3 1 2 3 1 2 3 1 2   3 1 2 3 1 2 3 1 2 3   4 5 6 7 8 910 4 5 6
                                        7 8 910 4 5 6 7 8 9  10 4 5 6 7 8 910 4 5   6 7 8 910 4 5 6 7 8   9101112131415161718
                                       192021


 Eigenvalues of metric

         1 0.521E-04 0.521E-04 0.521E-04 0.521E-04 0.521E-04 0.124E-03 0.143E-02 0.627E-02
         2 0.171E-04 0.171E-04 0.171E-04 0.308E-02 0.308E-02 0.308E-02 0.107E-01 0.107E-01


 Contracted 2-electron integrals neglected if value below      1.0D-12
 AO integral compression algorithm  1   Integral accuracy      1.0D-12

     111.935 MB (compressed) written to integral file ( 15.1%)

     Node minimum: 3.670 MB, node maximum: 13.107 MB


 NUMBER OF SORTED TWO-ELECTRON INTEGRALS:    4343202.     BUFFER LENGTH:  32768
 NUMBER OF SEGMENTS:   1  SEGMENT LENGTH:    4343202      RECORD LENGTH: 524288

 Memory used in sort:       4.90 MW

 SORT1 READ    92659037. AND WROTE      765407. INTEGRALS IN      3 RECORDS. CPU TIME:     0.38 SEC, REAL TIME:     0.40 SEC
 SORT2 READ     9613375. AND WROTE    52200630. INTEGRALS IN    264 RECORDS. CPU TIME:     0.10 SEC, REAL TIME:     0.11 SEC

 Node minimum:     4342000.  Node maximum:     4358043. integrals

 OPERATOR DM      FOR CENTER  0  COORDINATES:    0.000000    0.000000    0.000000


 **********************************************************************************************************************************
 DATASETS  * FILE   NREC   LENGTH (MB)   RECORD NAMES
              1      19       29.37       500      610      700      900      950      970     1000      129      960     1100   
                                          VAR    BASINP    GEOM    SYMINP    ZMAT    AOBASIS   BASIS     P2S    ABASIS      S 
                                         1400     1410     1420     1200     1210     1080     1700     1600     1650   
                                           T        V       ECP      H0       H01     AOSYM    OPER      SMH    MOLCAS    

 PROGRAMS   *        TOTAL       INT
 CPU TIMES  *         1.96      1.74
 REAL TIME  *         2.83 SEC
 DISK USED  *        29.74 MB (local),      574.44 MB (total)
 GA USED    *         0.00 MB       (max)       0.00 MB       (current)
 **********************************************************************************************************************************


 Program * Restricted Hartree-Fock

 Orbital guess generated from atomic densities.

 Initial alpha occupancy:   7   6
 Initial beta  occupancy:   7   3

 NELEC=   23   SYM=2   MS2= 3   THRE=1.0D-08   THRD=3.2D-06   THRG=3.2D-06  HFMA2=F  DIIS_START=2   DIIS_MAX=10   DIIS_INCORE=F

 Level shifts:    0.00 (CLOSED)    0.00 (OPEN)    0.30 (GAP_MIN)

 ITER           ETOT              DE          GRAD        DDIFF     DIIS  NEXP   TIME(IT)  TIME(TOT)  DIAG
   1     -213.37056066    -213.37056066     0.00D+00     0.74D-01     0     0       0.03      0.06    start
   2     -213.37337525      -0.00281459     0.97D-03     0.21D-02     1     0       0.03      0.09    diag2
   3     -213.37367843      -0.00030317     0.53D-03     0.54D-03     2     0       0.02      0.11    diag2
   4     -213.37376959      -0.00009116     0.17D-03     0.38D-03     3     0       0.03      0.14    diag2
   5     -213.37377989      -0.00001031     0.46D-04     0.11D-03     4     0       0.03      0.17    diag2
   6     -213.37378080      -0.00000090     0.94D-05     0.47D-04     5     0       0.02      0.19    diag2
   7     -213.37378088      -0.00000008     0.25D-05     0.21D-04     6     0       0.03      0.22    diag2
   8     -213.37378088      -0.00000000     0.41D-06     0.45D-05     7     0       0.03      0.25    fixocc
   9     -213.37378088      -0.00000000     0.12D-06     0.90D-06     8     0       0.02      0.27    diag2
  10     -213.37378088      -0.00000000     0.58D-07     0.20D-06     0     0       0.03      0.30    diag/orth

 Final alpha occupancy:   7   6
 Final beta  occupancy:   7   3

 !RHF STATE 1.2 Energy               -213.373780882667
  RHF One-electron energy            -381.083775115745
  RHF Two-electron energy             167.709994233078
  RHF Kinetic energy                   82.648116881720
  RHF Nuclear energy                    0.000000000000
  RHF Virial quotient                  -2.581713763521

 !RHF STATE 1.2 Dipole moment           0.00000000     0.00000000     0.00000000
 Dipole moment /Debye                   0.00000000     0.00000000     0.00000000

 ELECTRON ORBITALS
 =================

  Orbital  Occupation    Energy    Cen Mu Typ  Coefficients
    1.1     2.00000    -5.62713     1  1  s    0.99984
    2.1     2.00000    -1.07698     1  1  d0   0.99946
    3.1     2.00000    -1.07698     1  1  d1+  0.43290    1  1  d2+  0.53331    1  1  d1-  0.72563
    4.1     2.00000    -1.07698     1  1  d2- -0.43615    1  1  d1+ -0.47694    1  1  d2+ -0.44005    1  1  d1-  0.62256
    5.1     2.00000    -1.07698     1  1  d2-  0.84216    1  1  d1+ -0.48123
    6.1     2.00000    -1.07698     1  1  d2- -0.31448    1  1  d1+ -0.59371    1  1  d2+  0.72126
    7.1     2.00000    -0.29349     1  1  s   -0.34485    1  4  s    0.43574    1  5  s    0.55699    1  6  s    0.25435
    1.2     2.00000    -3.81344     1  1  py   0.70783    1  1  pz  -0.70671
    2.2     2.00000    -3.81344     1  1  px   1.00008
    3.2     2.00000    -3.81344     1  1  py   0.70674    1  1  pz   0.70765
    4.2     1.00000    -0.05737     1  4  py   0.34517    1  5  py   0.40231    1  6  py   0.27279
    5.2     1.00000    -0.05737     1  4  px   0.34595    1  5  px   0.40321    1  6  px   0.27340
    6.2     1.00000    -0.05737     1  4  pz   0.34517    1  5  pz   0.40231    1  6  pz   0.27279


 HOMO      6.2    -0.057367 =      -1.5610eV
 LUMO      7.2     0.130561 =       3.5527eV
 LUMO-HOMO         0.187928 =       5.1138eV

 Orbitals saved in record  2100.2


 **********************************************************************************************************************************
 DATASETS  * FILE   NREC   LENGTH (MB)   RECORD NAMES
              1      19       29.37       500      610      700      900      950      970     1000      129      960     1100   
                                          VAR    BASINP    GEOM    SYMINP    ZMAT    AOBASIS   BASIS     P2S    ABASIS      S 
                                         1400     1410     1420     1200     1210     1080     1700     1600     1650   
                                           T        V       ECP      H0       H01     AOSYM    OPER      SMH    MOLCAS    

              2       4        0.84       700     1000      520     2100   
                                         GEOM     BASIS   MCVARS     RHF  

 PROGRAMS   *        TOTAL   RHF-SCF       INT
 CPU TIMES  *         2.30      0.34      1.74
 REAL TIME  *         4.01 SEC
 DISK USED  *        32.19 MB (local),      603.84 MB (total)
 GA USED    *         0.00 MB       (max)       0.00 MB       (current)
 **********************************************************************************************************************************
 SETTING NTRIP          =        12.00000000                                  
 SETTING NSING          =        15.00000000                                  
 SETTING W(1)           =        99.00000000                                  
 SETTING W(2)           =        99.00000000                                  
 SETTING W(3)           =        99.00000000                                  

 DO I                   =         4.00000000   
 SETTING W(4)           =         1.00000000                                  

 DO I                   =         5.00000000   
 SETTING W(5)           =         1.00000000                                  

 DO I                   =         6.00000000   
 SETTING W(6)           =         1.00000000                                  

 DO I                   =         7.00000000   
 SETTING W(7)           =         1.00000000                                  

 DO I                   =         8.00000000   
 SETTING W(8)           =         1.00000000                                  

 DO I                   =         9.00000000   
 SETTING W(9)           =         1.00000000                                  

 DO I                   =        10.00000000   
 SETTING W(10)          =         1.00000000                                  

 DO I                   =        11.00000000   
 SETTING W(11)          =         1.00000000                                  

 DO I                   =        12.00000000   
 SETTING W(12)          =         1.00000000                                  

 PROGRAM * MULTI (Direct Multiconfiguration SCF)       Authors: P.J. Knowles, H.-J. Werner (1984)
                                                                D.A. Kreplin, P.J. Knowles, H.-J. Werner (2019)

 Number of closed-shell orbitals:   9 (    6    3)
 Number of active  orbitals:        7 (    1    6)
 Number of external orbitals:     153 (   79   74)

 State symmetry 1

 Number of active electrons:   4    Spin symmetry=Triplet   Space symmetry=1
 Number of states:            12
 Number of CSFs:             120   (135 determinants, 245 intermediate states)

 State symmetry 2

 Number of active electrons:   4    Spin symmetry=Singlet   Space symmetry=1
 Number of states:            15
 Number of CSFs:             126   (261 determinants, 441 intermediate states)

 Molecular orbitals read from record     2100.2  Type=RHF/CANONICAL  
 *** IN SYMMETRY 1 ORBITAL  2 SYMMETRY CONTAMINATION OF 0.988D-02 HAS BEEN REMOVED
 *** IN SYMMETRY 1 ORBITAL  3 SYMMETRY CONTAMINATION OF 0.578D+00 HAS BEEN REMOVED
 *** IN SYMMETRY 1 ORBITAL  4 SYMMETRY CONTAMINATION OF 0.759D+00 HAS BEEN REMOVED
 *** IN SYMMETRY 1 ORBITAL  5 SYMMETRY CONTAMINATION OF 0.470D+00 HAS BEEN REMOVED
 *** IN SYMMETRY 1 ORBITAL  6 SYMMETRY CONTAMINATION OF 0.599D+00 HAS BEEN REMOVED

 EXTRA SYMMETRY OF MOS IN SYMMETRY 1:   1 2 6 4 3 5 1 1 6 4   3 5 2 1 6 4 5 3 2 5   3 4 6 2 1 7 9111310  12 81514 5 3 4 6 212
                                        81310 9111514 7 1 2   3 5 6 41310 812 711   91514 1 2 5 3 6 4 8  12 711 914151310 1 2
                                        6 4 5 3 1 1
 *** IN SYMMETRY 2 ORBITAL  1 SYMMETRY CONTAMINATION OF 0.503D+00 HAS BEEN REMOVED
 *** IN SYMMETRY 2 ORBITAL  2 SYMMETRY CONTAMINATION OF 0.240D-01 HAS BEEN REMOVED
 *** IN SYMMETRY 2 ORBITAL  3 SYMMETRY CONTAMINATION OF 0.506D+00 HAS BEEN REMOVED
 *** IN SYMMETRY 2 ORBITAL  4 SYMMETRY CONTAMINATION OF 0.628D-01 HAS BEEN REMOVED
 *** IN SYMMETRY 2 ORBITAL  6 SYMMETRY CONTAMINATION OF 0.628D-01 HAS BEEN REMOVED
 *** IN SYMMETRY 2 ORBITAL  7 SYMMETRY CONTAMINATION OF 0.606D-04 HAS BEEN REMOVED
 *** IN SYMMETRY 2 ORBITAL  9 SYMMETRY CONTAMINATION OF 0.606D-04 HAS BEEN REMOVED
 EXTRA SYMMETRY OF MOS IN SYMMETRY 2:   2 1 3 2 1 3 3 1 2 3   1 2 810 9 7 6 5 4 3   1 210 8 6 7 9 5 410   8 6 4 5 9 7 3 1 2 7
                                        9 810 5 4 6 3 1 219  16142113111215171820   6 5 4 7 910 8 3 2 1   7 9 5 4 6 810 3 1 2
                                        3 1 2

 Wavefunction dump at record             2140.2

 Convergence thresholds  0.10E-04 (gradient)  0.10E-05 (energy)

 Weight factors for state symmetry  1:    0.30841   0.30841   0.30841   0.00312   0.00312   0.00312   0.00312   0.00312
                                          0.00312   0.00312   0.00312   0.00312
 Weight factors for state symmetry  2:    0.00312   0.00312   0.00312   0.00312   0.00312   0.00312   0.00312   0.00312
                                          0.00312   0.00312   0.00312   0.00312   0.00312   0.00312   0.00312
 
 Number of orbital rotations:  1243  ( 24 closed/active, 696 closed/virtual, 0 active/active, 523 active/virtual )
 Total number of variables:    6778
 
 Second-order MCSCF: L-BFGS accelerated
 
 ITER  MIC  NCI  NEG     ENERGY(VAR)    ENERGY(PROJ) ENERGY CHANGE       GRAD(0)  GRAD(ORB)   GRAD(CI)      STEP      TIME
   1   22   30    0   -213.31392156    -213.33248612   -0.01856456    0.11413961 0.00038259 0.00000000  0.89E+00      1.41
   2    9   16    0   -213.33288389    -213.33507853   -0.00219464    0.10506747 0.00020518 0.00000000  0.60E+00      2.55
   3    7   12    0   -213.33508231    -213.33508243   -0.00000012    0.00076977 0.00000032 0.00000000  0.14E-02      3.54
   4    2    4    0   -213.33508243    -213.33508243    0.00000000    0.00000005 0.00000001 0.00000000  0.20E-06      4.04

 CONVERGENCE REACHED!  Final gradient:    0.00000000 ( 0.46E-08)
                       Final energy:   -213.33508243
 
 Results for state 1.1 Triplet
 =============================
 !MCSCF STATE 1.1 Triplet Energy              -213.347856117964
 Nuclear energy                                  0.00000000
 Kinetic energy                                 82.59710348
 One electron energy                          -376.03712197
 Two electron energy                           162.68926585
 Virial ratio                                    3.58299440
 
 !MCSCF STATE 1.1 Triplet Dipole moment          0.00000000     0.00000000     0.00000000
 Dipole moment /Debye                            0.00000000     0.00000000     0.00000000
 
 Results for state 2.1 Triplet
 =============================
 !MCSCF STATE 2.1 Triplet Energy              -213.347856117875
 Nuclear energy                                  0.00000000
 Kinetic energy                                 82.59710348
 One electron energy                          -376.03712198
 Two electron energy                           162.68926586
 Virial ratio                                    3.58299440
 
 !MCSCF STATE 2.1 Triplet Dipole moment          0.00000000     0.00000000     0.00000000
 Dipole moment /Debye                            0.00000000     0.00000000     0.00000000
 
 Results for state 3.1 Triplet
 =============================
 !MCSCF STATE 3.1 Triplet Energy              -213.347856117815
 Nuclear energy                                  0.00000000
 Kinetic energy                                 82.59710348
 One electron energy                          -376.03712199
 Two electron energy                           162.68926587
 Virial ratio                                    3.58299440
 
 !MCSCF STATE 3.1 Triplet Dipole moment          0.00000000     0.00000000     0.00000000
 Dipole moment /Debye                            0.00000000     0.00000000     0.00000000
 
 Results for state 4.1 Triplet
 =============================
 !MCSCF STATE 4.1 Triplet Energy              -213.148260429204
 Nuclear energy                                  0.00000000
 Kinetic energy                                 82.36903934
 One electron energy                          -372.63383134
 Two electron energy                           159.48557092
 Virial ratio                                    3.58772303
 
 !MCSCF STATE 4.1 Triplet Dipole moment          0.00000000     0.00000000     0.00000000
 Dipole moment /Debye                            0.00000000     0.00000000     0.00000000
 
 Results for state 5.1 Triplet
 =============================
 !MCSCF STATE 5.1 Triplet Energy              -213.148260429084
 Nuclear energy                                  0.00000000
 Kinetic energy                                 82.36903934
 One electron energy                          -372.63383135
 Two electron energy                           159.48557092
 Virial ratio                                    3.58772303
 
 !MCSCF STATE 5.1 Triplet Dipole moment          0.00000000     0.00000000     0.00000000
 Dipole moment /Debye                            0.00000000     0.00000000     0.00000000
 
 Results for state 6.1 Triplet
 =============================
 !MCSCF STATE 6.1 Triplet Energy              -213.148260428724
 Nuclear energy                                  0.00000000
 Kinetic energy                                 82.36903934
 One electron energy                          -372.63383135
 Two electron energy                           159.48557092
 Virial ratio                                    3.58772303
 
 !MCSCF STATE 6.1 Triplet Dipole moment          0.00000000     0.00000000     0.00000000
 Dipole moment /Debye                            0.00000000     0.00000000     0.00000000
 
 Results for state 7.1 Triplet
 =============================
 !MCSCF STATE 7.1 Triplet Energy              -213.148260428128
 Nuclear energy                                  0.00000000
 Kinetic energy                                 82.36903935
 One electron energy                          -372.63383136
 Two electron energy                           159.48557094
 Virial ratio                                    3.58772303
 
 !MCSCF STATE 7.1 Triplet Dipole moment          0.00000000     0.00000000     0.00000000
 Dipole moment /Debye                            0.00000000     0.00000000     0.00000000
 
 Results for state 8.1 Triplet
 =============================
 !MCSCF STATE 8.1 Triplet Energy              -213.148260428089
 Nuclear energy                                  0.00000000
 Kinetic energy                                 82.36903935
 One electron energy                          -372.63383136
 Two electron energy                           159.48557094
 Virial ratio                                    3.58772303
 
 !MCSCF STATE 8.1 Triplet Dipole moment          0.00000000     0.00000000     0.00000000
 Dipole moment /Debye                            0.00000000     0.00000000     0.00000000
 
 Results for state 9.1 Triplet
 =============================
 !MCSCF STATE 9.1 Triplet Energy              -213.137354740630
 Nuclear energy                                  0.00000000
 Kinetic energy                                 82.36899811
 One electron energy                          -372.63097914
 Two electron energy                           159.49362440
 Virial ratio                                    3.58759193
 
 !MCSCF STATE 9.1 Triplet Dipole moment          0.00000000     0.00000000     0.00000000
 Dipole moment /Debye                            0.00000000     0.00000000     0.00000000
 
 Results for state 10.1 Triplet
 ==============================
 !MCSCF STATE 10.1 Triplet Energy             -213.132348607317
 Nuclear energy                                  0.00000000
 Kinetic energy                                 82.52011697
 One electron energy                          -373.34010962
 Two electron energy                           160.20776101
 Virial ratio                                    3.58279261
 
 !MCSCF STATE 10.1 Triplet Dipole moment         0.00000000     0.00000000     0.00000000
 Dipole moment /Debye                            0.00000000     0.00000000     0.00000000
 
 Results for state 11.1 Triplet
 ==============================
 !MCSCF STATE 11.1 Triplet Energy             -213.132348606954
 Nuclear energy                                  0.00000000
 Kinetic energy                                 82.52011697
 One electron energy                          -373.34010963
 Two electron energy                           160.20776102
 Virial ratio                                    3.58279261
 
 !MCSCF STATE 11.1 Triplet Dipole moment         0.00000000     0.00000000     0.00000000
 Dipole moment /Debye                            0.00000000     0.00000000     0.00000000
 
 Results for state 12.1 Triplet
 ==============================
 !MCSCF STATE 12.1 Triplet Energy             -213.132348606362
 Nuclear energy                                  0.00000000
 Kinetic energy                                 82.52011697
 One electron energy                          -373.34010963
 Two electron energy                           160.20776103
 Virial ratio                                    3.58279261
 
 !MCSCF STATE 12.1 Triplet Dipole moment         0.00000000     0.00000000     0.00000000
 Dipole moment /Debye                            0.00000000     0.00000000     0.00000000
 
 Results for state 1.1 Singlet
 =============================
 !MCSCF STATE 1.1 Singlet Energy              -213.314021928222
 Nuclear energy                                  0.00000000
 Kinetic energy                                 82.53794474
 One electron energy                          -375.72665986
 Two electron energy                           162.41263793
 Virial ratio                                    3.58443583
 
 !MCSCF STATE 1.1 Singlet Dipole moment          0.00000000     0.00000000     0.00000000
 Dipole moment /Debye                            0.00000000     0.00000000     0.00000000
 
 Results for state 2.1 Singlet
 =============================
 !MCSCF STATE 2.1 Singlet Energy              -213.314021928215
 Nuclear energy                                  0.00000000
 Kinetic energy                                 82.53794474
 One electron energy                          -375.72665986
 Two electron energy                           162.41263793
 Virial ratio                                    3.58443583
 
 !MCSCF STATE 2.1 Singlet Dipole moment          0.00000000     0.00000000     0.00000000
 Dipole moment /Debye                            0.00000000     0.00000000     0.00000000
 
 Results for state 3.1 Singlet
 =============================
 !MCSCF STATE 3.1 Singlet Energy              -213.314021928124
 Nuclear energy                                  0.00000000
 Kinetic energy                                 82.53794474
 One electron energy                          -375.72665986
 Two electron energy                           162.41263794
 Virial ratio                                    3.58443583
 
 !MCSCF STATE 3.1 Singlet Dipole moment          0.00000000     0.00000000     0.00000000
 Dipole moment /Debye                            0.00000000     0.00000000     0.00000000
 
 Results for state 4.1 Singlet
 =============================
 !MCSCF STATE 4.1 Singlet Energy              -213.314021928067
 Nuclear energy                                  0.00000000
 Kinetic energy                                 82.53794474
 One electron energy                          -375.72665987
 Two electron energy                           162.41263794
 Virial ratio                                    3.58443583
 
 !MCSCF STATE 4.1 Singlet Dipole moment          0.00000000     0.00000000     0.00000000
 Dipole moment /Debye                            0.00000000     0.00000000     0.00000000
 
 Results for state 5.1 Singlet
 =============================
 !MCSCF STATE 5.1 Singlet Energy              -213.314021928051
 Nuclear energy                                  0.00000000
 Kinetic energy                                 82.53794474
 One electron energy                          -375.72665987
 Two electron energy                           162.41263794
 Virial ratio                                    3.58443583
 
 !MCSCF STATE 5.1 Singlet Dipole moment          0.00000000     0.00000000     0.00000000
 Dipole moment /Debye                            0.00000000     0.00000000     0.00000000
 
 Results for state 6.1 Singlet
 =============================
 !MCSCF STATE 6.1 Singlet Energy              -213.284580352586
 Nuclear energy                                  0.00000000
 Kinetic energy                                 82.49562615
 One electron energy                          -375.42825031
 Two electron energy                           162.14366996
 Virial ratio                                    3.58540471
 
 !MCSCF STATE 6.1 Singlet Dipole moment          0.00000000     0.00000000     0.00000000
 Dipole moment /Debye                            0.00000000     0.00000000     0.00000000
 
 Results for state 7.1 Singlet
 =============================
 !MCSCF STATE 7.1 Singlet Energy              -213.155545763410
 Nuclear energy                                  0.00000000
 Kinetic energy                                 82.36905863
 One electron energy                          -372.63552941
 Two electron energy                           159.47998365
 Virial ratio                                    3.58781088
 
 !MCSCF STATE 7.1 Singlet Dipole moment          0.00000000     0.00000000     0.00000000
 Dipole moment /Debye                            0.00000000     0.00000000     0.00000000
 
 Results for state 8.1 Singlet
 =============================
 !MCSCF STATE 8.1 Singlet Energy              -213.155545763087
 Nuclear energy                                  0.00000000
 Kinetic energy                                 82.36905863
 One electron energy                          -372.63552942
 Two electron energy                           159.47998365
 Virial ratio                                    3.58781088
 
 !MCSCF STATE 8.1 Singlet Dipole moment          0.00000000     0.00000000     0.00000000
 Dipole moment /Debye                            0.00000000     0.00000000     0.00000000
 
 Results for state 9.1 Singlet
 =============================
 !MCSCF STATE 9.1 Singlet Energy              -213.155545762557
 Nuclear energy                                  0.00000000
 Kinetic energy                                 82.36905863
 One electron energy                          -372.63552943
 Two electron energy                           159.47998366
 Virial ratio                                    3.58781088
 
 !MCSCF STATE 9.1 Singlet Dipole moment          0.00000000     0.00000000     0.00000000
 Dipole moment /Debye                            0.00000000     0.00000000     0.00000000
 
 Results for state 10.1 Singlet
 ==============================
 !MCSCF STATE 10.1 Singlet Energy             -213.112571584455
 Nuclear energy                                  0.00000000
 Kinetic energy                                 82.58618994
 One electron energy                          -373.67608009
 Two electron energy                           160.56350850
 Virial ratio                                    3.58048678
 
 !MCSCF STATE 10.1 Singlet Dipole moment         0.00000000     0.00000000     0.00000000
 Dipole moment /Debye                            0.00000000     0.00000000     0.00000000
 
 Results for state 11.1 Singlet
 ==============================
 !MCSCF STATE 11.1 Singlet Energy             -213.112571584317
 Nuclear energy                                  0.00000000
 Kinetic energy                                 82.58618994
 One electron energy                          -373.67608009
 Two electron energy                           160.56350850
 Virial ratio                                    3.58048678
 
 !MCSCF STATE 11.1 Singlet Dipole moment         0.00000000     0.00000000     0.00000000
 Dipole moment /Debye                            0.00000000     0.00000000     0.00000000
 
 Results for state 12.1 Singlet
 ==============================
 !MCSCF STATE 12.1 Singlet Energy             -213.112571583894
 Nuclear energy                                  0.00000000
 Kinetic energy                                 82.58618994
 One electron energy                          -373.67608009
 Two electron energy                           160.56350851
 Virial ratio                                    3.58048678
 
 !MCSCF STATE 12.1 Singlet Dipole moment         0.00000000     0.00000000     0.00000000
 Dipole moment /Debye                            0.00000000     0.00000000     0.00000000
 
 Results for state 13.1 Singlet
 ==============================
 !MCSCF STATE 13.1 Singlet Energy             -213.112571583192
 Nuclear energy                                  0.00000000
 Kinetic energy                                 82.58618994
 One electron energy                          -373.67608009
 Two electron energy                           160.56350851
 Virial ratio                                    3.58048678
 
 !MCSCF STATE 13.1 Singlet Dipole moment         0.00000000     0.00000000     0.00000000
 Dipole moment /Debye                            0.00000000     0.00000000     0.00000000
 
 Results for state 14.1 Singlet
 ==============================
 !MCSCF STATE 14.1 Singlet Energy             -213.112571583143
 Nuclear energy                                  0.00000000
 Kinetic energy                                 82.58618994
 One electron energy                          -373.67608009
 Two electron energy                           160.56350851
 Virial ratio                                    3.58048678
 
 !MCSCF STATE 14.1 Singlet Dipole moment         0.00000000     0.00000000     0.00000000
 Dipole moment /Debye                            0.00000000     0.00000000     0.00000000
 
 Results for state 15.1 Singlet
 ==============================
 !MCSCF STATE 15.1 Singlet Energy             -213.088306234536
 Nuclear energy                                  0.00000000
 Kinetic energy                                 82.64299913
 One electron energy                          -373.92538071
 Two electron energy                           160.83707447
 Virial ratio                                    3.57841933
 
 !MCSCF STATE 15.1 Singlet Dipole moment         0.00000000     0.00000000     0.00000000
 Dipole moment /Debye                            0.00000000     0.00000000     0.00000000
 
 State-averaged charge density matrix saved on record 2140.2 (density set 1)
 
 No non-zero expectation values
 
 Expectation values for two-electron operators:
 
 ? Warning
 ? Transition properties are only calculated between states of the same symmetry
 ? The problem occurs in mu_properties_expec2

 !MCSCF expec      <1.1 Triplet|LXLX|1.1 Triplet>     0.999999999999
 !MCSCF expec      <2.1 Triplet|LXLX|2.1 Triplet>    -0.000000000000
 !MCSCF expec      <3.1 Triplet|LXLX|3.1 Triplet>     1.000000000000
 !MCSCF expec      <4.1 Triplet|LXLX|4.1 Triplet>     2.282823788910
 !MCSCF expec      <5.1 Triplet|LXLX|5.1 Triplet>     1.000000000418
 !MCSCF expec      <6.1 Triplet|LXLX|6.1 Triplet>     4.000000000000
 !MCSCF expec      <7.1 Triplet|LXLX|7.1 Triplet>     1.000000033335
 !MCSCF expec      <8.1 Triplet|LXLX|8.1 Triplet>     1.717172212929
 !MCSCF expec      <9.1 Triplet|LXLX|9.1 Triplet>    -0.000000000000
 !MCSCF expec    <10.1 Triplet|LXLX|10.1 Triplet>     1.000000000000
 !MCSCF expec    <11.1 Triplet|LXLX|11.1 Triplet>    -0.000000000000
 !MCSCF expec    <12.1 Triplet|LXLX|12.1 Triplet>     1.000000000000
 !MCSCF expec      <1.1 Singlet|LXLX|1.1 Singlet>     1.729435894701
 !MCSCF expec      <2.1 Singlet|LXLX|2.1 Singlet>     1.000000034338
 !MCSCF expec      <3.1 Singlet|LXLX|3.1 Singlet>     4.000000000000
 !MCSCF expec      <4.1 Singlet|LXLX|4.1 Singlet>     1.000000005296
 !MCSCF expec      <5.1 Singlet|LXLX|5.1 Singlet>     2.270594815360
 !MCSCF expec      <6.1 Singlet|LXLX|6.1 Singlet>    -0.000000000000
 !MCSCF expec      <7.1 Singlet|LXLX|7.1 Singlet>     1.000000000000
 !MCSCF expec      <8.1 Singlet|LXLX|8.1 Singlet>    -0.000000000000
 !MCSCF expec      <9.1 Singlet|LXLX|9.1 Singlet>     1.000000000000
 !MCSCF expec    <10.1 Singlet|LXLX|10.1 Singlet>     2.282673967761
 !MCSCF expec    <11.1 Singlet|LXLX|11.1 Singlet>     1.000000000133
 !MCSCF expec    <12.1 Singlet|LXLX|12.1 Singlet>     4.000000000000
 !MCSCF expec    <13.1 Singlet|LXLX|13.1 Singlet>     1.000000000134
 !MCSCF expec    <14.1 Singlet|LXLX|14.1 Singlet>     1.717327694014
 !MCSCF expec    <15.1 Singlet|LXLX|15.1 Singlet>    -0.000000000000
 
 !MCSCF expec      <1.1 Triplet|LYLY|1.1 Triplet>     0.000000000004
 !MCSCF expec      <2.1 Triplet|LYLY|2.1 Triplet>     1.000000000000
 !MCSCF expec      <3.1 Triplet|LYLY|3.1 Triplet>     0.999999999997
 !MCSCF expec      <4.1 Triplet|LYLY|4.1 Triplet>     0.143942944630
 !MCSCF expec      <5.1 Triplet|LYLY|5.1 Triplet>     0.999999999763
 !MCSCF expec      <6.1 Triplet|LYLY|6.1 Triplet>     1.000000000000
 !MCSCF expec      <7.1 Triplet|LYLY|7.1 Triplet>     3.999999993793
 !MCSCF expec      <8.1 Triplet|LYLY|8.1 Triplet>     3.856058549816
 !MCSCF expec      <9.1 Triplet|LYLY|9.1 Triplet>    -0.000000000000
 !MCSCF expec    <10.1 Triplet|LYLY|10.1 Triplet>     0.999999999988
 !MCSCF expec    <11.1 Triplet|LYLY|11.1 Triplet>     1.000000000000
 !MCSCF expec    <12.1 Triplet|LYLY|12.1 Triplet>     0.000000000011
 !MCSCF expec      <1.1 Singlet|LYLY|1.1 Singlet>     3.851410338268
 !MCSCF expec      <2.1 Singlet|LYLY|2.1 Singlet>     3.999999971595
 !MCSCF expec      <3.1 Singlet|LYLY|3.1 Singlet>     1.000000000000
 !MCSCF expec      <4.1 Singlet|LYLY|4.1 Singlet>     1.000000016177
 !MCSCF expec      <5.1 Singlet|LYLY|5.1 Singlet>     0.148577936476
 !MCSCF expec      <6.1 Singlet|LYLY|6.1 Singlet>    -0.000000000000
 !MCSCF expec      <7.1 Singlet|LYLY|7.1 Singlet>     0.999999999997
 !MCSCF expec      <8.1 Singlet|LYLY|8.1 Singlet>     1.000000000000
 !MCSCF expec      <9.1 Singlet|LYLY|9.1 Singlet>     0.000000000005
 !MCSCF expec    <10.1 Singlet|LYLY|10.1 Singlet>     0.143999325787
 !MCSCF expec    <11.1 Singlet|LYLY|11.1 Singlet>     0.999999999909
 !MCSCF expec    <12.1 Singlet|LYLY|12.1 Singlet>     1.000000000000
 !MCSCF expec    <13.1 Singlet|LYLY|13.1 Singlet>     3.999999999950
 !MCSCF expec    <14.1 Singlet|LYLY|14.1 Singlet>     3.856000048796
 !MCSCF expec    <15.1 Singlet|LYLY|15.1 Singlet>    -0.000000000000
 
 !MCSCF expec      <1.1 Triplet|LZLZ|1.1 Triplet>     0.999999999996
 !MCSCF expec      <2.1 Triplet|LZLZ|2.1 Triplet>     1.000000000000
 !MCSCF expec      <3.1 Triplet|LZLZ|3.1 Triplet>     0.000000000003
 !MCSCF expec      <4.1 Triplet|LZLZ|4.1 Triplet>     3.573233266459
 !MCSCF expec      <5.1 Triplet|LZLZ|5.1 Triplet>     3.999999999818
 !MCSCF expec      <6.1 Triplet|LZLZ|6.1 Triplet>     1.000000000000
 !MCSCF expec      <7.1 Triplet|LZLZ|7.1 Triplet>     0.999999972872
 !MCSCF expec      <8.1 Triplet|LZLZ|8.1 Triplet>     0.426769237256
 !MCSCF expec      <9.1 Triplet|LZLZ|9.1 Triplet>    -0.000000000000
 !MCSCF expec    <10.1 Triplet|LZLZ|10.1 Triplet>     0.000000000012
 !MCSCF expec    <11.1 Triplet|LZLZ|11.1 Triplet>     1.000000000000
 !MCSCF expec    <12.1 Triplet|LZLZ|12.1 Triplet>     0.999999999989
 !MCSCF expec      <1.1 Singlet|LZLZ|1.1 Singlet>     0.419153767031
 !MCSCF expec      <2.1 Singlet|LZLZ|2.1 Singlet>     0.999999994067
 !MCSCF expec      <3.1 Singlet|LZLZ|3.1 Singlet>     1.000000000000
 !MCSCF expec      <4.1 Singlet|LZLZ|4.1 Singlet>     3.999999978527
 !MCSCF expec      <5.1 Singlet|LZLZ|5.1 Singlet>     3.580827248163
 !MCSCF expec      <6.1 Singlet|LZLZ|6.1 Singlet>    -0.000000000000
 !MCSCF expec      <7.1 Singlet|LZLZ|7.1 Singlet>     0.000000000003
 !MCSCF expec      <8.1 Singlet|LZLZ|8.1 Singlet>     1.000000000000
 !MCSCF expec      <9.1 Singlet|LZLZ|9.1 Singlet>     0.999999999995
 !MCSCF expec    <10.1 Singlet|LZLZ|10.1 Singlet>     3.573326706452
 !MCSCF expec    <11.1 Singlet|LZLZ|11.1 Singlet>     3.999999999958
 !MCSCF expec    <12.1 Singlet|LZLZ|12.1 Singlet>     1.000000000000
 !MCSCF expec    <13.1 Singlet|LZLZ|13.1 Singlet>     0.999999999915
 !MCSCF expec    <14.1 Singlet|LZLZ|14.1 Singlet>     0.426672257190
 !MCSCF expec    <15.1 Singlet|LZLZ|15.1 Singlet>    -0.000000000000
 
 !MCSCF expec      <1.1 Triplet|L**2|1.1 Triplet>     2.000000000000
 !MCSCF expec      <2.1 Triplet|L**2|2.1 Triplet>     2.000000000000
 !MCSCF expec      <3.1 Triplet|L**2|3.1 Triplet>     2.000000000000
 !MCSCF expec      <4.1 Triplet|L**2|4.1 Triplet>     6.000000000000
 !MCSCF expec      <5.1 Triplet|L**2|5.1 Triplet>     6.000000000000
 !MCSCF expec      <6.1 Triplet|L**2|6.1 Triplet>     6.000000000000
 !MCSCF expec      <7.1 Triplet|L**2|7.1 Triplet>     6.000000000000
 !MCSCF expec      <8.1 Triplet|L**2|8.1 Triplet>     6.000000000000
 !MCSCF expec      <9.1 Triplet|L**2|9.1 Triplet>    -0.000000000000
 !MCSCF expec    <10.1 Triplet|L**2|10.1 Triplet>     2.000000000000
 !MCSCF expec    <11.1 Triplet|L**2|11.1 Triplet>     2.000000000000
 !MCSCF expec    <12.1 Triplet|L**2|12.1 Triplet>     2.000000000000
 !MCSCF expec      <1.1 Singlet|L**2|1.1 Singlet>     6.000000000000
 !MCSCF expec      <2.1 Singlet|L**2|2.1 Singlet>     6.000000000000
 !MCSCF expec      <3.1 Singlet|L**2|3.1 Singlet>     6.000000000000
 !MCSCF expec      <4.1 Singlet|L**2|4.1 Singlet>     6.000000000000
 !MCSCF expec      <5.1 Singlet|L**2|5.1 Singlet>     6.000000000000
 !MCSCF expec      <6.1 Singlet|L**2|6.1 Singlet>    -0.000000000000
 !MCSCF expec      <7.1 Singlet|L**2|7.1 Singlet>     2.000000000000
 !MCSCF expec      <8.1 Singlet|L**2|8.1 Singlet>     2.000000000000
 !MCSCF expec      <9.1 Singlet|L**2|9.1 Singlet>     2.000000000000
 !MCSCF expec    <10.1 Singlet|L**2|10.1 Singlet>     6.000000000000
 !MCSCF expec    <11.1 Singlet|L**2|11.1 Singlet>     6.000000000000
 !MCSCF expec    <12.1 Singlet|L**2|12.1 Singlet>     6.000000000000
 !MCSCF expec    <13.1 Singlet|L**2|13.1 Singlet>     6.000000000000
 !MCSCF expec    <14.1 Singlet|L**2|14.1 Singlet>     6.000000000000
 !MCSCF expec    <15.1 Singlet|L**2|15.1 Singlet>    -0.000000000000
 
 EXTRA SYMMETRY OF MOS IN SYMMETRY 1:   1 3 5 4 2 6 1 1 3 5   4 2 6 1 5 3 4 2 6 5   3 4 2 6 113101415 9   812 711 3 5 4 2 613
                                       10 91415 812 711 1 5   3 4 2 61310 91415 8  12 711 1 3 5 4 2 613  101514 9 812 711 1 2
                                        3 4 6 5 1 1
 EXTRA SYMMETRY OF MOS IN SYMMETRY 2:   1 3 2 3 2 1 1 2 3 3   1 2 7 9 4 810 6 5 1   3 2 7 9 4 810 6 5 9   7 4 810 6 5 1 2 3 9
                                        7 4 810 6 5 1 2 318  20151711141621131912   7 9 4 810 6 5 1 2 3   7 9 4 810 6 5 1 2 3
                                        1 2 3
 
  NATURAL ORBITALS (STATE AVERAGED)
  =================================

  Orbital  Occupation    Energy    Cen Mu Typ  Coefficients
    1.1     2.00000    -5.86730     1  1  s    0.99992
    2.1     2.00000    -1.31703     1  1  d2-  0.99995
    3.1     2.00000    -1.31703     1  1  d2+  0.99995
    4.1     2.00000    -1.31703     1  1  d1+ -0.99995
    5.1     2.00000    -1.31703     1  1  d0   0.99995
    6.1     2.00000    -1.31703     1  1  d1-  0.99995
    7.1     1.96452    -0.50935     1  1  s   -0.36055    1  4  s    0.47418    1  5  s    0.63536
    1.2     2.00000    -4.05325     1  1  px   1.00006
    2.2     2.00000    -4.05325     1  1  pz   1.00006
    3.2     2.00000    -4.05325     1  1  py   1.00006
    4.2     0.65737    -0.07078     1  1  pz  -0.25745    1  4  pz   0.43767    1  5  pz   0.44454
    5.2     0.65737    -0.07078     1  1  py  -0.25745    1  4  py   0.43767    1  5  py   0.44454
    6.2     0.65737    -0.07078     1  1  px  -0.25745    1  4  px   0.43767    1  5  px   0.44454
    7.2     0.02112     0.11607     1  4  px  -0.46007    1  6  px   0.65770    1 10  px   0.52081
    8.2     0.02112     0.11607     1  4  py  -0.46007    1  6  py   0.65770    1 10  py   0.52081
    9.2     0.02112     0.11607     1  4  pz  -0.46007    1  6  pz   0.65770    1 10  pz   0.52081
 
 Natural orbital dump (state averaged) at molpro section 2140.2 (Orbital set 2)
 
 Transform the CI vectors
 
 CI Coefficients of symmetry 1 (Triplet)
 =======================================

 State:              1               2               3               4               5               6               7
 2 aa0000      -0.00000073      0.99087379      0.00000000     -0.00000000     -0.00000000     -0.00000000     -0.00000000
 2 0aa000       0.00000186      0.00000000      0.99087379      0.00000000     -0.00000000      0.00000000      0.00000000
 2 a0a000       0.99087379      0.00000073     -0.00000186      0.00000000     -0.00000000      0.00000000     -0.00000000
 2 0a00a0       0.00000000      0.00000000     -0.00000000      0.79081617      0.00001152     -0.00000016     -0.00003115
 2 a0000a       0.00000000     -0.00000000     -0.00000000     -0.26308677     -0.00000445      0.00000005      0.00017075
 2 a000a0      -0.00000001      0.00867138     -0.00000000      0.00000014      0.00000040      0.69753250     -0.00000000
 2 00a0a0      -0.00000002     -0.00000000     -0.00867138     -0.00001004      0.69753248     -0.00000040     -0.00000191
 2 a00a00       0.00867138      0.00000001     -0.00000002     -0.00000295      0.00000191      0.00000000      0.69753246
 2 0a0a00       0.00000002      0.00000000      0.00867138     -0.00001004      0.69753244     -0.00000040     -0.00000191
 2 00a00a      -0.00867138     -0.00000001      0.00000002     -0.00000295      0.00000191      0.00000000      0.69753243
 2 0a000a       0.00000001     -0.00867138      0.00000000      0.00000014      0.00000040      0.69753242     -0.00000000
 2 00aa00      -0.00000000      0.00000000      0.00000000     -0.52772929     -0.00000707      0.00000011     -0.00013960
 2 0000aa      -0.00000002      0.03021789      0.00000000      0.00000000      0.00000000      0.00000001      0.00000000
 2 000aa0       0.00000006      0.00000000      0.03021789      0.00000000     -0.00000000      0.00000000      0.00000000
 2 000a0a       0.03021789      0.00000002     -0.00000006     -0.00000000      0.00000000      0.00000000      0.00000001
 0 a2a000      -0.11251703     -0.00000008      0.00000021     -0.00000000      0.00000000     -0.00000000      0.00000000
 0 aa2000       0.00000008     -0.11251703     -0.00000000     -0.00000000      0.00000000      0.00000000     -0.00000000
 0 2aa000      -0.00000021     -0.00000000     -0.11251703     -0.00000000     -0.00000000      0.00000000     -0.00000000
 0 2a00a0      -0.00000000      0.00000000      0.00000000     -0.08517970     -0.00000124      0.00000002      0.00000310
 0 0a20a0      -0.00000000     -0.00000000      0.00000000     -0.08475065     -0.00000124      0.00000002      0.00000360
 0 a2000a      -0.00000000      0.00000000      0.00000000      0.02719715      0.00000046     -0.00000001     -0.00001843
 0 a0200a      -0.00000000      0.00000000      0.00000000      0.02933486      0.00000049     -0.00000001     -0.00001826
 0 0a200a       0.00000000     -0.00117263     -0.00000000     -0.00000001     -0.00000004     -0.07550822      0.00000000
 0 2a0a00       0.00000000      0.00000000      0.00117263      0.00000109     -0.07550822      0.00000004      0.00000021
 0 02a00a      -0.00117263     -0.00000000      0.00000000      0.00000032     -0.00000021     -0.00000000     -0.07550822
 0 a20a00       0.00117263      0.00000000     -0.00000000      0.00000032     -0.00000021     -0.00000000     -0.07550823
 0 20a0a0      -0.00000000     -0.00000000     -0.00117263      0.00000109     -0.07550823      0.00000004      0.00000021
 0 a020a0      -0.00000000      0.00117263      0.00000000     -0.00000001     -0.00000004     -0.07550823      0.00000000
 0 a200a0       0.00000002     -0.03077394      0.00000000     -0.00000001     -0.00000004     -0.07437735      0.00000000
 0 02a0a0       0.00000006      0.00000000      0.03077394      0.00000107     -0.07437735      0.00000004      0.00000020
 0 a02a00      -0.03077394     -0.00000002      0.00000006      0.00000031     -0.00000020     -0.00000000     -0.07437735
 0 0a2a00      -0.00000006     -0.00000000     -0.03077394      0.00000107     -0.07437734      0.00000004      0.00000020
 0 20a00a       0.03077394      0.00000002     -0.00000006      0.00000031     -0.00000020     -0.00000000     -0.07437734
 0 2a000a      -0.00000002      0.03077394      0.00000000     -0.00000001     -0.00000004     -0.07437734      0.00000000
 0 02aa00       0.00000000      0.00000000     -0.00000000      0.05584483      0.00000075     -0.00000001      0.00001516
 0 20aa00       0.00000000      0.00000000     -0.00000000      0.05755348      0.00000077     -0.00000001      0.00001484
 
 Energy:     -213.34785612   -213.34785612   -213.34785612   -213.14826043   -213.14826043   -213.14826043   -213.14826043

 State:              8               9              10              11              12
 2 aa0000       0.00000000     -0.00000000     -0.00000000     -0.01995923      0.00000000
 2 0aa000       0.00000000     -0.00000000     -0.01995923      0.00000000      0.00000007
 2 a0a000       0.00000000      0.00000000     -0.00000007      0.00000000     -0.01995923
 2 0a00a0      -0.15279145      0.56923342     -0.00000000      0.00000000      0.00000000
 2 a0000a       0.76126253      0.56923352     -0.00000000      0.00000000      0.00000000
 2 a000a0       0.00000000     -0.00000000      0.00000008      0.69160302      0.00000000
 2 00a0a0       0.00000061     -0.00000000     -0.69160304      0.00000008      0.00000238
 2 a00a00      -0.00015747     -0.00000000      0.00000238     -0.00000000      0.69160304
 2 0a0a00       0.00000061      0.00000000      0.69160308     -0.00000008     -0.00000238
 2 00a00a      -0.00015747      0.00000000     -0.00000238      0.00000000     -0.69160307
 2 0a000a       0.00000000      0.00000000     -0.00000008     -0.69160310     -0.00000000
 2 00aa00      -0.60847116      0.56923348     -0.00000000     -0.00000000      0.00000000
 2 0000aa      -0.00000000     -0.00000000      0.00000001      0.13255739     -0.00000000
 2 000aa0       0.00000000      0.00000000      0.13255738     -0.00000001     -0.00000046
 2 000a0a      -0.00000000     -0.00000000      0.00000046     -0.00000000      0.13255738
 0 a2a000      -0.00000000     -0.00000000      0.00000003     -0.00000000      0.00836128
 0 aa2000       0.00000000     -0.00000000      0.00000000      0.00836128      0.00000000
 0 2aa000       0.00000000      0.00000000      0.00836128     -0.00000000     -0.00000003
 0 2a00a0       0.01530554     -0.06243724      0.00000000     -0.00000000     -0.00000000
 0 0a20a0       0.01752624     -0.06243724      0.00000000     -0.00000000     -0.00000000
 0 a2000a      -0.08215932     -0.06243726      0.00000000     -0.00000000     -0.00000000
 0 a0200a      -0.08142055     -0.06243726      0.00000000     -0.00000000     -0.00000000
 0 0a200a      -0.00000000      0.00000000      0.00000001      0.07565922      0.00000000
 0 2a0a00      -0.00000007     -0.00000000     -0.07565922      0.00000001      0.00000026
 0 02a00a       0.00001705     -0.00000000      0.00000026     -0.00000000      0.07565922
 0 a20a00       0.00001705      0.00000000     -0.00000026      0.00000000     -0.07565921
 0 20a0a0      -0.00000007      0.00000000      0.07565921     -0.00000001     -0.00000026
 0 a020a0      -0.00000000      0.00000000     -0.00000001     -0.07565921     -0.00000000
 0 a200a0      -0.00000000      0.00000000     -0.00000001     -0.07172856      0.00000000
 0 02a0a0      -0.00000006      0.00000000      0.07172856     -0.00000001     -0.00000025
 0 a02a00       0.00001679      0.00000000     -0.00000025      0.00000000     -0.07172856
 0 0a2a00      -0.00000006     -0.00000000     -0.07172856      0.00000001      0.00000025
 0 20a00a       0.00001679     -0.00000000      0.00000025     -0.00000000      0.07172856
 0 2a000a      -0.00000000     -0.00000000      0.00000001      0.07172857     -0.00000000
 0 02aa00       0.06611501     -0.06243725      0.00000000      0.00000000     -0.00000000
 0 20aa00       0.06463309     -0.06243725      0.00000000      0.00000000     -0.00000000
 
 Energy:     -213.14826043   -213.13735474   -213.13234861   -213.13234861   -213.13234861
 
 
 CI Coefficients of symmetry 1 (Singlet)
 =======================================

 State:              1               2               3               4               5               6               7
 2 020000      -0.15538820      0.00002306     -0.00000000     -0.00005685      0.79110409      0.55838220     -0.00000000
 2 200000       0.76281034     -0.00008445      0.00000000      0.00001264     -0.26098192      0.55838220      0.00000000
 2 ba0000       0.00000000     -0.00000046     -0.69820727     -0.00000000     -0.00000000     -0.00000000      0.00000000
 2 ab0000      -0.00000000      0.00000046      0.69820727      0.00000000      0.00000000      0.00000000     -0.00000000
 2 0ab000       0.00000600      0.00005713     -0.00000000      0.69820726      0.00005135      0.00000000     -0.00000000
 2 0ba000      -0.00000600     -0.00005713      0.00000000     -0.69820726     -0.00005135     -0.00000000      0.00000000
 2 a0b000       0.00007540      0.69820726     -0.00000046     -0.00005713     -0.00000555      0.00000000      0.00000000
 2 b0a000      -0.00007540     -0.69820726      0.00000046      0.00005713      0.00000555     -0.00000000     -0.00000000
 2 002000      -0.60742214      0.00006139     -0.00000000      0.00004421     -0.53012218      0.55838220     -0.00000000
 2 0a00b0      -0.00780638      0.00000116     -0.00000000     -0.00000286      0.03974341      0.04632738      0.00000000
 2 0b00a0       0.00780638     -0.00000116      0.00000000      0.00000286     -0.03974341     -0.04632738     -0.00000000
 2 a0000b       0.03832199     -0.00000424      0.00000000      0.00000064     -0.01311118      0.04632737     -0.00000000
 2 b0000a      -0.03832199      0.00000424     -0.00000000     -0.00000064      0.01311118     -0.04632737      0.00000000
 2 b000a0       0.00000000     -0.00000002     -0.03507647     -0.00000000     -0.00000000     -0.00000000      0.00000011
 2 a000b0      -0.00000000      0.00000002      0.03507647      0.00000000      0.00000000      0.00000000     -0.00000011
 2 00a0b0       0.00000030      0.00000287     -0.00000000      0.03507647      0.00000258     -0.00000000     -0.49338555
 2 00b0a0      -0.00000030     -0.00000287      0.00000000     -0.03507647     -0.00000258      0.00000000      0.49338555
 2 b00a00      -0.00000379     -0.03507647      0.00000002      0.00000287      0.00000028      0.00000000     -0.00000080
 2 a00b00       0.00000379      0.03507647     -0.00000002     -0.00000287     -0.00000028     -0.00000000      0.00000080
 2 00b00a      -0.00000379     -0.03507647      0.00000002      0.00000287      0.00000028      0.00000000      0.00000080
 2 00a00b       0.00000379      0.03507647     -0.00000002     -0.00000287     -0.00000028     -0.00000000     -0.00000080
 2 0a0b00       0.00000030      0.00000287     -0.00000000      0.03507647      0.00000258      0.00000000      0.49338554
 2 0b0a00      -0.00000030     -0.00000287      0.00000000     -0.03507647     -0.00000258     -0.00000000     -0.49338554
 2 0a000b      -0.00000000      0.00000002      0.03507647      0.00000000      0.00000000      0.00000000      0.00000011
 2 0b000a       0.00000000     -0.00000002     -0.03507647     -0.00000000     -0.00000000     -0.00000000     -0.00000011
 2 00ab00      -0.03051562      0.00000308     -0.00000000      0.00000222     -0.02663223      0.04632738     -0.00000000
 2 00ba00       0.03051562     -0.00000308      0.00000000     -0.00000222      0.02663223     -0.04632738      0.00000000
 0 022000       0.08638730     -0.00000956      0.00000000      0.00000143     -0.02955587     -0.12202898      0.00000000
 0 220000      -0.06878979      0.00000695     -0.00000000      0.00000501     -0.06003566     -0.12202898     -0.00000000
 0 202000      -0.01759752      0.00000261     -0.00000000     -0.00000644      0.08959153     -0.12202898      0.00000000
 2 000020       0.00771165     -0.00000114      0.00000000      0.00000282     -0.03926113     -0.03918481      0.00000000
 2 000002      -0.03785696      0.00000419     -0.00000000     -0.00000063      0.01295208     -0.03918481      0.00000000
 2 0000ab       0.00000000     -0.00000002     -0.03465082     -0.00000000     -0.00000000     -0.00000000     -0.00000000
 2 0000ba      -0.00000000      0.00000002      0.03465082      0.00000000      0.00000000      0.00000000      0.00000000
 2 000ab0      -0.00000030     -0.00000284      0.00000000     -0.03465082     -0.00000255      0.00000000     -0.00000000
 2 000ba0       0.00000030      0.00000284     -0.00000000      0.03465082      0.00000255     -0.00000000      0.00000000
 2 000a0b      -0.00000374     -0.03465082      0.00000002      0.00000284      0.00000028      0.00000000      0.00000000
 2 000b0a       0.00000374      0.03465082     -0.00000002     -0.00000284     -0.00000028     -0.00000000     -0.00000000
 2 000200       0.03014531     -0.00000305      0.00000000     -0.00000219      0.02630905     -0.03918481      0.00000000
 0 ab2000       0.00000000     -0.00000005     -0.07907109     -0.00000000     -0.00000000      0.00000000      0.00000000
 0 ba2000      -0.00000000      0.00000005      0.07907109      0.00000000      0.00000000     -0.00000000     -0.00000000
 0 b2a000       0.00000854      0.07907109     -0.00000005     -0.00000647     -0.00000063      0.00000000     -0.00000000
 0 a2b000      -0.00000854     -0.07907109      0.00000005      0.00000647      0.00000063     -0.00000000      0.00000000
 0 2ab000      -0.00000068     -0.00000647      0.00000000     -0.07907109     -0.00000582     -0.00000000      0.00000000
 0 2ba000       0.00000068      0.00000647     -0.00000000      0.07907109      0.00000582      0.00000000     -0.00000000
 0 2b00a0      -0.02543532      0.00000284     -0.00000000     -0.00000060      0.01117114     -0.01344936     -0.00000000
 0 2a00b0       0.02543532     -0.00000284      0.00000000      0.00000060     -0.01117114      0.01344936      0.00000000
 0 0b20a0       0.01932017     -0.00000193      0.00000000     -0.00000163      0.01996199     -0.01344936      0.00000000
 0 0a20b0      -0.01932017      0.00000193     -0.00000000      0.00000163     -0.01996199      0.01344936     -0.00000000
 0 b2000a       0.00762750     -0.00000104      0.00000000      0.00000190     -0.02671275     -0.01344936     -0.00000000
 0 a2000b      -0.00762750      0.00000104     -0.00000000     -0.00000190      0.02671275      0.01344936      0.00000000
 0 a0200b      -0.02239215      0.00000229     -0.00000000      0.00000140     -0.01644206      0.01344936      0.00000000
 0 b0200a       0.02239215     -0.00000229      0.00000000     -0.00000140      0.01644206     -0.01344936     -0.00000000
 0 b020a0      -0.00000000      0.00000000      0.00233596      0.00000000      0.00000000      0.00000000     -0.00000001
 0 a020b0       0.00000000     -0.00000000     -0.00233596     -0.00000000     -0.00000000     -0.00000000      0.00000001
 0 20a0b0      -0.00000002     -0.00000019      0.00000000     -0.00233596     -0.00000017      0.00000000      0.05348971
 0 20b0a0       0.00000002      0.00000019     -0.00000000      0.00233596      0.00000017     -0.00000000     -0.05348971
 0 b20a00       0.00000025      0.00233596     -0.00000000     -0.00000019     -0.00000002     -0.00000000      0.00000009
 0 a20b00      -0.00000025     -0.00233596      0.00000000      0.00000019      0.00000002      0.00000000     -0.00000009
 0 02a00b      -0.00000025     -0.00233596      0.00000000      0.00000019      0.00000002      0.00000000      0.00000009
 0 02b00a       0.00000025      0.00233596     -0.00000000     -0.00000019     -0.00000002     -0.00000000     -0.00000009
 0 2b0a00       0.00000002      0.00000019     -0.00000000      0.00233596      0.00000017      0.00000000      0.05348970
 0 2a0b00      -0.00000002     -0.00000019      0.00000000     -0.00233596     -0.00000017     -0.00000000     -0.05348970
 0 0b200a      -0.00000000      0.00000000      0.00233596      0.00000000      0.00000000      0.00000000      0.00000001
 0 0a200b       0.00000000     -0.00000000     -0.00233596     -0.00000000     -0.00000000     -0.00000000     -0.00000001
 0 b200a0      -0.00000000      0.00000002      0.02514130      0.00000000      0.00000000      0.00000000     -0.00000001
 0 a200b0       0.00000000     -0.00000002     -0.02514130     -0.00000000     -0.00000000     -0.00000000      0.00000001
 0 02b0a0       0.00000022      0.00000206     -0.00000000      0.02514130      0.00000185     -0.00000000     -0.05116066
 0 02a0b0      -0.00000022     -0.00000206      0.00000000     -0.02514130     -0.00000185      0.00000000      0.05116066
 0 b02a00       0.00000272      0.02514130     -0.00000002     -0.00000206     -0.00000020     -0.00000000      0.00000008
 0 a02b00      -0.00000272     -0.02514130      0.00000002      0.00000206      0.00000020      0.00000000     -0.00000008
 0 20b00a       0.00000272      0.02514130     -0.00000002     -0.00000206     -0.00000020     -0.00000000     -0.00000008
 0 20a00b      -0.00000272     -0.02514130      0.00000002      0.00000206      0.00000020      0.00000000      0.00000008
 0 0b2a00       0.00000022      0.00000206     -0.00000000      0.02514130      0.00000185      0.00000000      0.05116066
 0 0a2b00      -0.00000022     -0.00000206      0.00000000     -0.02514130     -0.00000185     -0.00000000     -0.05116066
 0 2a000b       0.00000000     -0.00000002     -0.02514130     -0.00000000     -0.00000000      0.00000000     -0.00000001
 0 2b000a      -0.00000000      0.00000002      0.02514130      0.00000000      0.00000000     -0.00000000      0.00000001
 
 Energy:     -213.31402193   -213.31402193   -213.31402193   -213.31402193   -213.31402193   -213.28458035   -213.15554576

 State:              8               9              10              11              12              13              14
 2 020000      -0.00000000      0.00000000     -0.06451933      0.00000020     -0.00000000     -0.00000018      0.01246814
 2 200000      -0.00000000      0.00000000      0.02146194      0.00000007      0.00000000      0.00000078     -0.06210944
 2 ba0000       0.00000000      0.00000000     -0.00000000      0.00000001      0.05690913      0.00000000      0.00000000
 2 ab0000      -0.00000000     -0.00000000      0.00000000     -0.00000001     -0.05690913     -0.00000000     -0.00000000
 2 0ab000      -0.00000000      0.00000000     -0.00000020     -0.05690913      0.00000001      0.00000014     -0.00000013
 2 0ba000       0.00000000     -0.00000000      0.00000020      0.05690913     -0.00000001     -0.00000014      0.00000013
 2 a0b000       0.00000000     -0.00000000      0.00000002     -0.00000014      0.00000000     -0.05690913     -0.00000071
 2 b0a000      -0.00000000      0.00000000     -0.00000002      0.00000014     -0.00000000      0.05690913      0.00000071
 2 002000      -0.00000000     -0.00000000      0.04305739     -0.00000027      0.00000000     -0.00000060      0.04964131
 2 0a00b0       0.00000000     -0.00000000      0.55243883     -0.00000173      0.00000003      0.00000154     -0.10675689
 2 0b00a0      -0.00000000      0.00000000     -0.55243883      0.00000173     -0.00000003     -0.00000154      0.10675689
 2 a0000b       0.00000000     -0.00000000     -0.18376523     -0.00000057     -0.00000001     -0.00000667      0.53180448
 2 b0000a      -0.00000000      0.00000000      0.18376523      0.00000057      0.00000001      0.00000667     -0.53180448
 2 b000a0      -0.49338556      0.00000000      0.00000002     -0.00000005     -0.48727738     -0.00000000     -0.00000000
 2 a000b0       0.49338556     -0.00000000     -0.00000002      0.00000005      0.48727738      0.00000000      0.00000000
 2 00a0b0      -0.00000011      0.00000080      0.00000174      0.48727739     -0.00000005     -0.00000120      0.00000112
 2 00b0a0       0.00000011     -0.00000080     -0.00000174     -0.48727739      0.00000005      0.00000120     -0.00000112
 2 b00a00      -0.00000000     -0.49338555      0.00000019     -0.00000120      0.00000000     -0.48727739     -0.00000604
 2 a00b00       0.00000000      0.49338555     -0.00000019      0.00000120     -0.00000000      0.48727739      0.00000604
 2 00b00a       0.00000000      0.49338554      0.00000019     -0.00000120      0.00000000     -0.48727740     -0.00000604
 2 00a00b      -0.00000000     -0.49338554     -0.00000019      0.00000120     -0.00000000      0.48727740      0.00000604
 2 0a0b00       0.00000011     -0.00000080      0.00000174      0.48727740     -0.00000005     -0.00000120      0.00000112
 2 0b0a00      -0.00000011      0.00000080     -0.00000174     -0.48727740      0.00000005      0.00000120     -0.00000112
 2 0a000b      -0.49338554      0.00000000     -0.00000002      0.00000005      0.48727740      0.00000000      0.00000000
 2 0b000a       0.49338554     -0.00000000      0.00000002     -0.00000005     -0.48727740     -0.00000000     -0.00000000
 2 00ab00       0.00000000      0.00000000     -0.36867356      0.00000230     -0.00000002      0.00000513     -0.42504762
 2 00ba00      -0.00000000     -0.00000000      0.36867356     -0.00000230      0.00000002     -0.00000513      0.42504762
 0 022000       0.00000000      0.00000000      0.00402349      0.00000001      0.00000000      0.00000015     -0.01164371
 0 220000       0.00000000     -0.00000000      0.00807200     -0.00000005      0.00000000     -0.00000011      0.00930629
 0 202000       0.00000000      0.00000000     -0.01209549      0.00000004     -0.00000000     -0.00000003      0.00233741
 2 000020      -0.00000000      0.00000000     -0.10863269      0.00000034     -0.00000000     -0.00000030      0.02099289
 2 000002      -0.00000000      0.00000000      0.03613597      0.00000011      0.00000000      0.00000131     -0.10457511
 2 0000ab      -0.00000000     -0.00000000      0.00000000     -0.00000001     -0.09581921     -0.00000000     -0.00000000
 2 0000ba       0.00000000      0.00000000     -0.00000000      0.00000001      0.09581921      0.00000000      0.00000000
 2 000ab0       0.00000000     -0.00000000     -0.00000034     -0.09581921      0.00000001      0.00000024     -0.00000022
 2 000ba0      -0.00000000      0.00000000      0.00000034      0.09581921     -0.00000001     -0.00000024      0.00000022
 2 000a0b      -0.00000000     -0.00000000      0.00000004     -0.00000024      0.00000000     -0.09581921     -0.00000119
 2 000b0a       0.00000000      0.00000000     -0.00000004      0.00000024     -0.00000000      0.09581921      0.00000119
 2 000200      -0.00000000      0.00000000      0.07249671     -0.00000045      0.00000000     -0.00000101      0.08358222
 0 ab2000       0.00000000      0.00000000     -0.00000000      0.00000000      0.01066880      0.00000000      0.00000000
 0 ba2000      -0.00000000     -0.00000000      0.00000000     -0.00000000     -0.01066880     -0.00000000     -0.00000000
 0 b2a000       0.00000000     -0.00000000      0.00000000     -0.00000003      0.00000000     -0.01066880     -0.00000013
 0 a2b000      -0.00000000      0.00000000     -0.00000000      0.00000003     -0.00000000      0.01066880      0.00000013
 0 2ab000       0.00000000     -0.00000000      0.00000004      0.01066880     -0.00000000     -0.00000003      0.00000002
 0 2ba000      -0.00000000      0.00000000     -0.00000004     -0.01066880      0.00000000      0.00000003     -0.00000002
 0 2b00a0       0.00000000      0.00000000      0.05946205     -0.00000019      0.00000000      0.00000013     -0.00888558
 0 2a00b0      -0.00000000     -0.00000000     -0.05946205      0.00000019     -0.00000000     -0.00000013      0.00888558
 0 0b20a0       0.00000000      0.00000000      0.05849139     -0.00000018      0.00000000      0.00000020     -0.01390851
 0 0a20b0      -0.00000000     -0.00000000     -0.05849139      0.00000018     -0.00000000     -0.00000020      0.01390851
 0 b2000a       0.00000000     -0.00000000     -0.01720057     -0.00000007     -0.00000000     -0.00000072      0.05760928
 0 a2000b      -0.00000000      0.00000000      0.01720057      0.00000007      0.00000000      0.00000072     -0.05760928
 0 a0200b      -0.00000000     -0.00000000      0.02203588      0.00000005      0.00000000      0.00000070     -0.05593844
 0 b0200a       0.00000000      0.00000000     -0.02203588     -0.00000005     -0.00000000     -0.00000070      0.05593844
 0 b020a0       0.05348971     -0.00000000     -0.00000000      0.00000001      0.05329925      0.00000000      0.00000000
 0 a020b0      -0.05348971      0.00000000      0.00000000     -0.00000001     -0.05329925     -0.00000000     -0.00000000
 0 20a0b0       0.00000001     -0.00000009     -0.00000019     -0.05329925      0.00000001      0.00000013     -0.00000012
 0 20b0a0      -0.00000001      0.00000009      0.00000019      0.05329925     -0.00000001     -0.00000013      0.00000012
 0 b20a00       0.00000000      0.05348971     -0.00000002      0.00000013     -0.00000000      0.05329925      0.00000066
 0 a20b00      -0.00000000     -0.05348971      0.00000002     -0.00000013      0.00000000     -0.05329925     -0.00000066
 0 02a00b       0.00000000      0.05348970      0.00000002     -0.00000013      0.00000000     -0.05329925     -0.00000066
 0 02b00a      -0.00000000     -0.05348970     -0.00000002      0.00000013     -0.00000000      0.05329925      0.00000066
 0 2b0a00       0.00000001     -0.00000009      0.00000019      0.05329925     -0.00000001     -0.00000013      0.00000012
 0 2a0b00      -0.00000001      0.00000009     -0.00000019     -0.05329925      0.00000001      0.00000013     -0.00000012
 0 0b200a      -0.05348970      0.00000000     -0.00000000      0.00000001      0.05329925      0.00000000      0.00000000
 0 0a200b       0.05348970     -0.00000000      0.00000000     -0.00000001     -0.05329925     -0.00000000     -0.00000000
 0 b200a0       0.05116066     -0.00000000     -0.00000000      0.00000001      0.05074132      0.00000000      0.00000000
 0 a200b0      -0.05116066      0.00000000      0.00000000     -0.00000001     -0.05074132     -0.00000000     -0.00000000
 0 02b0a0      -0.00000001      0.00000008      0.00000018      0.05074132     -0.00000001     -0.00000012      0.00000012
 0 02a0b0       0.00000001     -0.00000008     -0.00000018     -0.05074132      0.00000001      0.00000012     -0.00000012
 0 b02a00       0.00000000      0.05116066     -0.00000002      0.00000012     -0.00000000      0.05074132      0.00000063
 0 a02b00      -0.00000000     -0.05116066      0.00000002     -0.00000012      0.00000000     -0.05074132     -0.00000063
 0 20b00a      -0.00000000     -0.05116066     -0.00000002      0.00000012     -0.00000000      0.05074132      0.00000063
 0 20a00b       0.00000000      0.05116066      0.00000002     -0.00000012      0.00000000     -0.05074132     -0.00000063
 0 0b2a00       0.00000001     -0.00000008      0.00000018      0.05074132     -0.00000001     -0.00000012      0.00000012
 0 0a2b00      -0.00000001      0.00000008     -0.00000018     -0.05074132      0.00000001      0.00000012     -0.00000012
 0 2a000b       0.05116066     -0.00000000      0.00000000     -0.00000001     -0.05074132     -0.00000000     -0.00000000
 0 2b000a      -0.05116066      0.00000000     -0.00000000      0.00000001      0.05074132      0.00000000      0.00000000
 
 Energy:     -213.15554576   -213.15554576   -213.11257158   -213.11257158   -213.11257158   -213.11257158   -213.11257158

 State:             15
 2 020000      -0.06409917
 2 200000      -0.06409918
 2 ba0000      -0.00000000
 2 ab0000       0.00000000
 2 0ab000      -0.00000000
 2 0ba000       0.00000000
 2 a0b000       0.00000000
 2 b0a000      -0.00000000
 2 002000      -0.06409918
 2 0a00b0       0.39414569
 2 0b00a0      -0.39414569
 2 a0000b       0.39414573
 2 b0000a      -0.39414573
 2 b000a0       0.00000000
 2 a000b0      -0.00000000
 2 00a0b0       0.00000000
 2 00b0a0      -0.00000000
 2 b00a00      -0.00000000
 2 a00b00       0.00000000
 2 00b00a      -0.00000000
 2 00a00b       0.00000000
 2 0a0b00       0.00000000
 2 0b0a00      -0.00000000
 2 0a000b       0.00000000
 2 0b000a      -0.00000000
 2 00ab00       0.39414572
 2 00ba00      -0.39414572
 0 022000       0.01647044
 0 220000       0.01647044
 0 202000       0.01647044
 2 000020      -0.08301643
 2 000002      -0.08301644
 2 0000ab      -0.00000000
 2 0000ba       0.00000000
 2 000ab0      -0.00000000
 2 000ba0       0.00000000
 2 000a0b      -0.00000000
 2 000b0a       0.00000000
 2 000200      -0.08301643
 0 ab2000       0.00000000
 0 ba2000      -0.00000000
 0 b2a000       0.00000000
 0 a2b000      -0.00000000
 0 2ab000      -0.00000000
 0 2ba000       0.00000000
 0 2b00a0       0.04487592
 0 2a00b0      -0.04487592
 0 0b20a0       0.04487592
 0 0a20b0      -0.04487592
 0 b2000a       0.04487593
 0 a2000b      -0.04487593
 0 a0200b      -0.04487593
 0 b0200a       0.04487593
 0 b020a0      -0.00000000
 0 a020b0       0.00000000
 0 20a0b0      -0.00000000
 0 20b0a0       0.00000000
 0 b20a00       0.00000000
 0 a20b00      -0.00000000
 0 02a00b      -0.00000000
 0 02b00a       0.00000000
 0 2b0a00       0.00000000
 0 2a0b00      -0.00000000
 0 0b200a      -0.00000000
 0 0a200b       0.00000000
 0 b200a0      -0.00000000
 0 a200b0       0.00000000
 0 02b0a0      -0.00000000
 0 02a0b0       0.00000000
 0 b02a00       0.00000000
 0 a02b00      -0.00000000
 0 20b00a       0.00000000
 0 20a00b      -0.00000000
 0 0b2a00       0.00000000
 0 0a2b00      -0.00000000
 0 2a000b       0.00000000
 0 2b000a      -0.00000000
 
 Energy:     -213.08830623
 


 **********************************************************************************************************************************
 DATASETS  * FILE   NREC   LENGTH (MB)   RECORD NAMES
              1      21       52.36       500      610      700      900      950      970     1000      129      960     1100   
                                          VAR    BASINP    GEOM    SYMINP    ZMAT    AOBASIS   BASIS     P2S    ABASIS      S 
                                         1400     1410     1420     1200     1210     1080     1700     1600     1650     1380   
                                           T        V       ECP      H0       H01     AOSYM    OPER      SMH    MOLCAS    JKOP   
                                         1700(1)
                                         OPER   

              2       5        1.44       700     1000      520     2100     2140   
                                         GEOM     BASIS   MCVARS     RHF     MCSCF   

 PROGRAMS   *        TOTAL     MULTI   RHF-SCF       INT
 CPU TIMES  *         6.12      3.81      0.34      1.74
 REAL TIME  *         8.65 SEC
 DISK USED  *        53.90 MB (local),      864.39 MB (total)
 SF USED    *        60.53 MB
 GA USED    *         0.00 MB       (max)       0.00 MB       (current)
 **********************************************************************************************************************************

 Energies and &lt;L**2&gt; values

         ENERGY     LL
    -213.3478561   2.0
    -213.3478561   2.0
    -213.3478561   2.0
    -213.1482604   6.0
    -213.1482604   6.0
    -213.1482604   6.0
    -213.1482604   6.0
    -213.1482604   6.0
    -213.1373547  -0.0
    -213.1323486   2.0
    -213.1323486   2.0
    -213.1323486   2.0
    -213.3140219   6.0
    -213.3140219   6.0
    -213.3140219   6.0
    -213.3140219   6.0
    -213.3140219   6.0
    -213.2845804  -0.0
    -213.1555458   2.0
    -213.1555458   2.0
    -213.1555458   2.0
    -213.1125716   6.0
    -213.1125716   6.0
    -213.1125716   6.0
    -213.1125716   6.0
    -213.1125716   6.0
    -213.0883062  -0.0
                                                  


 PROGRAM * CI (Multireference internally contracted CI)     Authors: H.-J. Werner, P.J. Knowles, 1987


 Convergence thresholds:  THRVAR = 1.00D-08  THRDEN = 1.00D-06

 Number of optimized states: 12  Roots:   1   2   3   4   5   6   7   8   9  10  11  12
 Number of reference states: 12  Roots:   1   2   3   4   5   6   7   8   9  10  11  12

 Reference symmetry:                   1   Triplet 
 Number of electrons:                 22
 Maximum number of shells:             5
 Maximum number of spin couplings:    90

 Reference space:       90 conf      120 CSFs
 N elec internal:    18284 conf    76944 CSFs
 N-1 el internal:    12821 conf    88545 CSFs
 N-2 el internal:     4717 conf    46537 CSFs

 Number of electrons in valence space:                     22
 Maximum number of open shell orbitals in reference space:  4
 Maximum number of open shell orbitals in internal spaces: 10


 Number of closed-shell orbitals:   9 (   6   3 )
 Number of active  orbitals:        7 (   1   6 )
 Number of external orbitals:     153 (  79  74 )

 Molecular orbitals read from record     2140.2  Type=MCSCF/NATURAL (state averaged)

 Valence orbitals related to previous ones by unitary transformation. Operators transformed.


 Number of p-space configurations:  15

 Reference wavefunction optimized for reference space (refopt=1)

 State     Reference Energy 
     1      -213.34785612
     2      -213.34785612
     3      -213.34785612
     4      -213.14826043
     5      -213.14826043
     6      -213.14826043
     7      -213.14826043
     8      -213.14826043
     9      -213.13735474
    10      -213.13234861
    11      -213.13234861
    12      -213.13234861

 Number of blocks in overlap matrix:  1143   Smallest eigenvalue:  0.52D-06
 Number of N-2 electron functions:    2548
 Number of N-1 electron functions:   88545

 Number of internal configurations:                38406
 Number of singly external configurations:       6772860
 Number of doubly external configurations:      14916787
 Total number of contracted configurations:     21728053
 Total number of uncontracted configurations:  278531653

 Diagonal Coupling coefficients finished.               Storage:  25472232 words, CPU-Time:     80.70 seconds.
 Energy denominators for pairs finished in 1 passes.    Storage:   2176606 words, CPU-time:      2.13 seconds.

  ITER. STATE  ROOT     SQ.NORM     CORR.ENERGY   TOTAL ENERGY   ENERGY CHANGE       DEN1      VAR(S)    VAR(P)      TIME
    1     1     1     1.00000000     0.00000000  -213.34785612     0.00000000    -0.97626956  0.47D-01  0.11D+00    97.57
    1     2     2     1.00000000     0.00000000  -213.34785612    -0.00000000    -0.97614218  0.48D-01  0.11D+00    97.57
    1     3     3     1.00000000     0.00000000  -213.34785612     0.00000000    -0.97613266  0.47D-01  0.11D+00    97.57
    1     4     4     1.00000000     0.00000000  -213.14826043    -0.00000000    -0.96177783  0.65D-01  0.10D+00    97.57
    1     5     5     1.00000000     0.00000000  -213.14826043     0.00000000    -0.96152824  0.65D-01  0.10D+00    97.57
    1     6     6     1.00000000     0.00000000  -213.14826043     0.00000000    -0.96162101  0.65D-01  0.10D+00    97.57
    1     7     7     1.00000000     0.00000000  -213.14826043    -0.00000000    -0.96155867  0.65D-01  0.10D+00    97.57
    1     8     8     1.00000000     0.00000000  -213.14826043    -0.00000000    -0.96169952  0.65D-01  0.10D+00    97.57
    1     9     9     1.00000000     0.00000000  -213.13735474    -0.00000000    -0.96536519  0.74D-01  0.10D+00    97.57
    1    10    10     1.00000000     0.00000000  -213.13234861     0.00000000    -0.97818209  0.86D-01  0.11D+00    97.57
    1    11    11     1.00000000     0.00000000  -213.13234861     0.00000000    -0.97835681  0.86D-01  0.11D+00    97.57
    1    12    12     1.00000000     0.00000000  -213.13234861    -0.00000000    -0.97820732  0.86D-01  0.11D+00    97.57
    2     1     1     1.10040718    -0.78306680  -214.13092292    -0.78306680    -0.02369932  0.39D-02  0.16D-02  1230.18
    2     2     2     1.10052043    -0.78298021  -214.13083632    -0.78298021    -0.02379149  0.40D-02  0.16D-02  1230.18
[...]
 13  1     1    1  |1 0>          0.01%    0.00%    0.01%    0.00%    0.00%    0.00%    0.00%    0.00%
 14  1     2    1  |1 0>          0.01%    0.00%    0.01%    0.00%    0.00%    0.00%    0.00%    0.00%
 15  1     3    1  |1 0>          0.00%    0.00%    0.00%    0.00%    0.01%    0.00%    0.00%    0.00%
 16  1     4    1  |1 0>          0.00%    0.00%    0.00%    0.00%    0.00%    0.57%    0.00%    0.00%
 17  1     5    1  |1 0>          0.00%    0.00%    0.00%    0.00%    0.00%    3.10%    0.00%    0.00%
 18  1     6    1  |1 0>         15.39%   43.42%    0.00%    0.00%    0.00%    0.00%    0.00%    0.00%
 19  1     7    1  |1 0>          0.00%    0.00%    0.00%    0.00%    2.75%    0.00%   19.84%    0.00%
 20  1     8    1  |1 0>          0.00%    0.00%    0.00%    2.75%    0.00%    0.00%    0.00%   17.77%
 21  1     9    1  |1 0>          0.00%    0.00%    0.00%    0.00%    0.00%    7.96%    0.00%    0.00%
 22  1    10    1  |1 0>          3.05%    1.08%   30.67%    0.00%    0.00%    0.00%    0.00%    0.00%
 23  1    11    1  |1 0>          0.00%    0.00%    0.00%    0.01%   30.47%    0.00%    0.00%    0.00%
 24  1    12    1  |1 0>          0.00%    0.00%    0.00%   30.47%    0.01%    0.00%    0.00%    0.00%
 25  1     1    1  |1 1>-         0.00%    0.00%    0.00%    0.00%    0.00%    0.00%    0.00%    0.00%
 26  1     2    1  |1 1>-         0.00%    0.00%    0.00%    0.00%    0.00%    0.00%    0.00%    0.00%
 27  1     3    1  |1 1>-         0.01%    0.00%    0.02%    0.00%    0.00%    0.00%    0.00%    0.00%
 28  1     4    1  |1 1>-         0.00%    0.00%    0.00%    1.32%    0.00%    0.00%    0.00%   23.41%
 29  1     5    1  |1 1>-         0.00%    0.00%    0.00%    2.35%    0.00%    0.00%    0.00%   36.53%
 30  1     6    1  |1 1>-         0.00%    0.00%    0.00%    0.00%    2.75%    0.00%   20.16%    0.00%
 31  1     7    1  |1 1>-        14.03%   44.78%    0.00%    0.00%    0.00%    0.00%    0.00%    0.00%
 32  1     8    1  |1 1>-         0.00%    0.00%    0.00%    0.00%    0.00%    2.75%    0.00%    0.00%
 33  1     9    1  |1 1>-         0.00%    0.00%    0.00%    7.95%    0.00%    0.00%    0.00%    0.00%
 34  1    10    1  |1 1>-         0.00%    0.00%    0.00%    0.01%   30.47%    0.00%    0.00%    0.00%
 35  1    11    1  |1 1>-         3.14%    0.99%   30.67%    0.00%    0.00%    0.00%    0.00%    0.00%
 36  1    12    1  |1 1>-         0.00%    0.00%    0.00%    0.00%    0.00%   30.48%    0.00%    0.00%
 37  1     1    1  |0 0>          0.00%    0.00%    0.00%    0.00%    0.00%    0.00%    0.00%    0.00%
 38  1     2    1  |0 0>          0.05%    0.03%    0.00%    0.00%    0.00%    0.00%    0.00%    0.00%
 39  1     3    1  |0 0>          0.00%    0.00%    0.00%    0.00%    0.00%    0.00%    0.00%    0.00%
 40  1     4    1  |0 0>          0.00%    0.00%    0.00%    0.00%    0.00%    0.00%    0.00%    0.00%
 41  1     5    1  |0 0>          0.03%    0.05%    0.00%    0.00%    0.00%    0.00%    0.00%    0.00%
 42  1     6    1  |0 0>          0.00%    0.00%    0.08%    0.00%    0.00%    0.00%    0.00%    0.00%
 43  1     7    1  |0 0>          0.00%    0.00%    0.00%    0.00%   21.91%    0.00%    0.00%    0.00%
 44  1     8    1  |0 0>          0.00%    0.00%    0.00%   21.91%    0.00%    0.00%    0.00%    0.00%
 45  1     9    1  |0 0>          0.00%    0.00%    0.00%    0.00%    0.00%   21.91%    0.00%    0.00%
 46  1    10    1  |0 0>          0.00%    0.00%    0.00%    0.00%    0.00%    0.00%    0.00%    0.00%
 47  1    11    1  |0 0>          5.44%    0.05%    0.00%    0.00%    0.00%    0.00%    0.00%    0.00%
 48  1    12    1  |0 0>          0.00%    0.00%    0.00%    0.00%    0.00%    0.00%    0.00%    0.00%
 49  1    13    1  |0 0>          0.00%    0.00%    0.00%    0.00%    0.00%    0.00%    0.00%    0.00%
 50  1    14    1  |0 0>          0.05%    5.44%    0.00%    0.00%    0.00%    0.00%    0.00%    0.00%
 51  1    15    1  |0 0>          0.00%    0.00%    7.86%    0.00%    0.00%    0.00%    0.00%    0.00%

   Total
 Nr Sym  State Sym Spin / Nr.     33       34       35       36       37       38       39       40

  1  1     1    1  |1 1>+         0.00%    0.00%    0.00%    0.00%    0.00%    0.00%    0.00%    0.00%
  2  1     2    1  |1 1>+         0.00%    0.00%    0.00%    0.00%    0.00%    0.00%    0.00%    0.00%
  3  1     3    1  |1 1>+         0.00%    0.00%    0.00%    0.00%    0.00%    0.00%    0.00%    0.00%
  4  1     4    1  |1 1>+         0.00%    0.00%    0.00%    0.44%    0.00%    0.00%    0.00%    0.10%
  5  1     5    1  |1 1>+         0.00%    0.00%    0.03%   32.86%    0.00%    0.00%    0.00%    7.07%
  6  1     6    1  |1 1>+         0.00%    0.00%   31.02%    0.03%    0.00%    0.00%    1.79%    0.00%
  7  1     7    1  |1 1>+        22.20%   31.14%    0.00%    0.00%    0.00%    0.00%    0.00%    0.00%
  8  1     8    1  |1 1>+         0.00%    0.00%    0.00%    0.00%   33.33%    7.12%    0.00%    0.00%
  9  1     9    1  |1 1>+         0.00%    0.00%    0.00%    0.00%    0.00%    0.00%    0.00%    0.00%
 10  1    10    1  |1 1>+         0.00%    0.00%    0.00%    0.00%    0.00%    0.00%   35.88%    0.00%
 11  1    11    1  |1 1>+         0.00%    0.00%    0.00%    0.00%    0.00%    0.00%    0.00%    0.00%
 12  1    12    1  |1 1>+         0.00%    0.00%    0.00%    0.00%    0.00%    0.37%    0.00%    0.00%
 13  1     1    1  |1 0>          0.00%    0.00%    0.00%    0.00%    0.00%    0.00%    0.00%    0.00%
 14  1     2    1  |1 0>          0.00%    0.00%    0.00%    0.00%    0.00%    0.00%    0.00%    0.00%
 15  1     3    1  |1 0>          0.00%    0.00%    0.00%    0.00%    0.00%    0.00%    0.00%    0.00%
 16  1     4    1  |1 0>         10.70%   26.77%    0.00%    0.00%    0.00%    0.00%    0.00%    0.00%
 17  1     5    1  |1 0>         49.25%    6.61%    0.00%    0.00%    0.00%    0.00%    0.00%    0.00%
 18  1     6    1  |1 0>          0.00%    0.00%    0.00%    0.00%   33.33%    2.37%    0.00%    0.00%
 19  1     7    1  |1 0>          0.00%    0.00%    0.03%   33.46%    0.00%    0.00%    0.00%    1.79%
 20  1     8    1  |1 0>          0.00%    0.00%   35.53%    0.04%    0.00%    0.00%    1.79%    0.00%
 21  1     9    1  |1 0>          0.00%    0.00%    0.00%    0.00%    0.00%    0.00%    0.00%    0.00%
 22  1    10    1  |1 0>          0.00%    0.00%    0.00%    0.00%    0.00%   32.04%    0.00%    0.00%
 23  1    11    1  |1 0>          0.00%    0.00%    0.00%    0.00%    0.00%    0.00%    0.00%   35.88%
 24  1    12    1  |1 0>          0.00%    0.00%    0.00%    0.00%    0.00%    0.00%   35.88%    0.00%
 25  1     1    1  |1 1>-         0.00%    0.00%    0.00%    0.00%    0.00%    0.00%    0.00%    0.00%
 26  1     2    1  |1 1>-         0.00%    0.00%    0.00%    0.00%    0.00%    0.00%    0.00%    0.00%
 27  1     3    1  |1 1>-         0.00%    0.00%    0.00%    0.00%    0.00%    0.00%    0.00%    0.00%
 28  1     4    1  |1 1>-         0.00%    0.00%   19.47%    0.02%    0.00%    0.00%    4.60%    0.00%
 29  1     5    1  |1 1>-         0.00%    0.00%   13.88%    0.01%    0.00%    0.00%    2.58%    0.00%
 30  1     6    1  |1 1>-         0.00%    0.00%    0.03%   33.14%    0.00%    0.00%    0.00%    1.79%
 31  1     7    1  |1 1>-         0.00%    0.00%    0.00%    0.00%   33.33%    1.27%    0.00%    0.00%
 32  1     8    1  |1 1>-        17.85%   35.48%    0.00%    0.00%    0.00%    0.00%    0.00%    0.00%
 33  1     9    1  |1 1>-         0.00%    0.00%    0.00%    0.00%    0.00%    0.00%    0.00%    0.00%
 34  1    10    1  |1 1>-         0.00%    0.00%    0.00%    0.00%    0.00%    0.00%    0.00%   35.88%
 35  1    11    1  |1 1>-         0.00%    0.00%    0.00%    0.00%    0.00%   39.34%    0.00%    0.00%
 36  1    12    1  |1 1>-         0.00%    0.00%    0.00%    0.00%    0.00%    0.00%    0.00%    0.00%
 37  1     1    1  |0 0>          0.00%    0.00%    0.00%    0.00%    0.00%    0.00%    0.04%    0.00%
 38  1     2    1  |0 0>          0.00%    0.00%    0.00%    0.00%    0.00%    0.03%    0.00%    0.00%
 39  1     3    1  |0 0>          0.00%    0.00%    0.00%    0.00%    0.00%    0.00%    0.00%    0.00%
 40  1     4    1  |0 0>          0.00%    0.00%    0.00%    0.00%    0.00%    0.00%    0.00%    0.04%
 41  1     5    1  |0 0>          0.00%    0.00%    0.00%    0.00%    0.00%    0.01%    0.00%    0.00%
 42  1     6    1  |0 0>          0.00%    0.00%    0.00%    0.00%    0.00%    0.00%    0.00%    0.00%
 43  1     7    1  |0 0>          0.00%    0.00%    0.00%    0.00%    0.00%    0.00%    0.00%    0.00%
 44  1     8    1  |0 0>          0.00%    0.00%    0.00%    0.00%    0.00%    0.00%    0.00%    0.00%
 45  1     9    1  |0 0>          0.00%    0.00%    0.00%    0.00%    0.00%    0.00%    0.00%    0.00%
 46  1    10    1  |0 0>          0.00%    0.00%    0.00%    0.00%    0.00%    0.00%   17.44%    0.00%
 47  1    11    1  |0 0>          0.00%    0.00%    0.00%    0.00%    0.00%   17.44%    0.00%    0.00%
 48  1    12    1  |0 0>          0.00%    0.00%    0.00%    0.00%    0.00%    0.00%    0.00%   17.44%
 49  1    13    1  |0 0>          0.00%    0.00%    0.00%    0.00%    0.00%    0.00%    0.00%    0.00%
 50  1    14    1  |0 0>          0.00%    0.00%    0.00%    0.00%    0.00%    0.01%    0.00%    0.00%
 51  1    15    1  |0 0>          0.00%    0.00%    0.00%    0.00%    0.00%    0.00%    0.00%    0.00%

   Total
 Nr Sym  State Sym Spin / Nr.     41       42       43       44       45       46       47       48

  1  1     1    1  |1 1>+         0.00%    0.00%    0.01%    0.00%    0.00%    0.00%    0.01%    0.00%
  2  1     2    1  |1 1>+         0.00%    0.00%    0.01%    0.00%    0.00%    0.00%    0.01%    0.00%
  3  1     3    1  |1 1>+         0.00%    0.00%    0.00%    0.00%    0.02%    0.00%    0.00%    0.00%
  4  1     4    1  |1 1>+         0.00%    0.00%    0.00%    0.00%    0.00%    0.00%    0.00%    0.01%
  5  1     5    1  |1 1>+         0.00%    0.00%    0.00%    0.00%    0.00%    0.00%    0.00%    0.59%
  6  1     6    1  |1 1>+         0.00%    0.00%    0.00%    0.00%    0.00%    0.00%    0.15%    0.00%
  7  1     7    1  |1 1>+         1.79%    0.00%    0.00%    0.00%    0.00%    0.00%    0.00%    0.00%
  8  1     8    1  |1 1>+         0.00%    0.06%    0.00%    0.00%    0.00%    0.59%    0.00%    0.00%
  9  1     9    1  |1 1>+         0.00%    0.00%    1.64%   74.71%    0.00%    0.00%    0.00%    0.00%
 10  1    10    1  |1 1>+         0.00%    0.00%    9.51%    0.21%    0.00%    0.00%   11.01%    0.00%
 11  1    11    1  |1 1>+        35.88%    0.00%    0.00%    0.00%    9.71%    0.00%    0.00%    0.00%
 12  1    12    1  |1 1>+         0.00%   47.46%    0.00%    0.00%    0.00%    0.21%    0.00%    0.00%
 13  1     1    1  |1 0>          0.00%    0.00%    0.01%    0.00%    0.00%    0.01%    0.01%    0.00%
 14  1     2    1  |1 0>          0.00%    0.00%    0.01%    0.00%    0.00%    0.01%    0.01%    0.00%
 15  1     3    1  |1 0>          0.00%    0.00%    0.00%    0.02%    0.00%    0.00%    0.00%    0.02%
 16  1     4    1  |1 0>          6.06%    0.00%    0.00%    0.00%    0.00%    0.00%    0.00%    0.00%
 17  1     5    1  |1 0>          1.11%    0.00%    0.00%    0.00%    0.00%    0.00%    0.00%    0.00%
 18  1     6    1  |1 0>          0.00%    4.80%    0.00%    0.00%    0.00%    0.21%    0.00%    0.00%
 19  1     7    1  |1 0>          0.00%    0.00%    0.00%    0.00%    0.00%    0.00%    0.00%    0.15%
 20  1     8    1  |1 0>          0.00%    0.00%    0.00%    0.00%    0.00%    0.00%    0.15%    0.00%
 21  1     9    1  |1 0>          0.00%    0.00%    0.00%    0.00%   76.35%    0.00%    0.00%    0.00%
 22  1    10    1  |1 0>          0.00%   15.80%    0.00%    0.00%    0.00%    9.38%    0.00%    0.00%
 23  1    11    1  |1 0>          0.00%    0.00%    0.21%    9.51%    0.00%    0.00%    0.00%   11.01%
 24  1    12    1  |1 0>          0.00%    0.00%    9.51%    0.21%    0.00%    0.00%   11.01%    0.00%
 25  1     1    1  |1 1>-         0.00%    0.00%    0.00%    0.01%    0.01%    0.00%    0.00%    0.01%
 26  1     2    1  |1 1>-         0.00%    0.00%    0.00%    0.01%    0.01%    0.00%    0.00%    0.01%
 27  1     3    1  |1 1>-         0.00%    0.00%    0.00%    0.00%    0.00%    0.02%    0.00%    0.00%
 28  1     4    1  |1 1>-         0.00%    0.00%    0.00%    0.00%    0.00%    0.00%    0.38%    0.00%
 29  1     5    1  |1 1>-         0.00%    0.00%    0.00%    0.00%    0.00%    0.00%    0.21%    0.00%
 30  1     6    1  |1 1>-         0.00%    0.00%    0.00%    0.00%    0.00%    0.00%    0.00%    0.15%
 31  1     7    1  |1 1>-         0.00%    5.90%    0.00%    0.00%    0.00%    0.09%    0.00%    0.00%
 32  1     8    1  |1 1>-         1.79%    0.00%    0.00%    0.00%    0.00%    0.00%    0.00%    0.00%
 33  1     9    1  |1 1>-         0.00%    0.00%   74.71%    1.64%    0.00%    0.00%    0.00%    0.00%
 34  1    10    1  |1 1>-         0.00%    0.00%    0.21%    9.51%    0.00%    0.00%    0.00%   11.01%
 35  1    11    1  |1 1>-         0.00%    8.50%    0.00%    0.00%    0.00%   12.43%    0.00%    0.00%
 36  1    12    1  |1 1>-        35.88%    0.00%    0.00%    0.00%    9.71%    0.00%    0.00%    0.00%
 37  1     1    1  |0 0>          0.00%    0.00%    0.00%    0.00%    0.00%    0.00%    0.00%    0.00%
 38  1     2    1  |0 0>          0.00%    0.01%    0.00%    0.00%    0.00%    0.00%    0.00%    0.00%
 39  1     3    1  |0 0>          0.04%    0.00%    0.00%    0.00%    0.00%    0.00%    0.00%    0.00%
 40  1     4    1  |0 0>          0.00%    0.00%    0.00%    0.00%    0.00%    0.00%    0.00%    0.00%
 41  1     5    1  |0 0>          0.00%    0.03%    0.00%    0.00%    0.00%    0.00%    0.00%    0.00%
 42  1     6    1  |0 0>          0.00%    0.00%    0.00%    0.00%    0.00%    0.00%    0.00%    0.00%
 43  1     7    1  |0 0>          0.00%    0.00%    0.08%    4.10%    0.00%    0.00%    0.00%    0.00%
 44  1     8    1  |0 0>          0.00%    0.00%    4.10%    0.08%    0.00%    0.00%    0.00%    0.00%
 45  1     9    1  |0 0>          0.00%    0.00%    0.00%    0.00%    4.17%    0.00%    0.00%    0.00%
 46  1    10    1  |0 0>          0.00%    0.00%    0.00%    0.00%    0.00%    0.00%   77.04%    0.00%
 47  1    11    1  |0 0>          0.00%    0.01%    0.00%    0.00%    0.00%   77.03%    0.00%    0.00%
 48  1    12    1  |0 0>          0.00%    0.00%    0.00%    0.00%    0.00%    0.00%    0.00%   77.04%
 49  1    13    1  |0 0>         17.44%    0.00%    0.00%    0.00%    0.00%    0.00%    0.00%    0.00%
 50  1    14    1  |0 0>          0.00%   17.44%    0.00%    0.00%    0.00%    0.01%    0.00%    0.00%
 51  1    15    1  |0 0>          0.00%    0.00%    0.00%    0.00%    0.00%    0.00%    0.00%    0.00%

   Total
 Nr Sym  State Sym Spin / Nr.     49       50       51

  1  1     1    1  |1 1>+         0.01%    0.00%    0.01%
  2  1     2    1  |1 1>+         0.01%    0.00%    0.01%
  3  1     3    1  |1 1>+         0.00%    0.02%    0.00%
  4  1     4    1  |1 1>+         0.00%    0.00%    0.00%
  5  1     5    1  |1 1>+         0.00%    0.00%    0.00%
  6  1     6    1  |1 1>+         0.00%    0.00%    0.00%
  7  1     7    1  |1 1>+         0.00%    0.15%    0.00%
  8  1     8    1  |1 1>+         0.01%    0.00%    0.00%
  9  1     9    1  |1 1>+         0.00%    0.00%    0.00%
 10  1    10    1  |1 1>+         0.00%    0.00%    0.00%
 11  1    11    1  |1 1>+         0.00%   11.01%    0.00%
 12  1    12    1  |1 1>+        14.47%    0.00%    2.63%
 13  1     1    1  |1 0>          0.00%    0.00%    0.01%
 14  1     2    1  |1 0>          0.00%    0.00%    0.01%
 15  1     3    1  |1 0>          0.00%    0.00%    0.00%
 16  1     4    1  |1 0>          0.00%    0.50%    0.00%
 17  1     5    1  |1 0>          0.00%    0.09%    0.00%
 18  1     6    1  |1 0>          0.38%    0.00%    0.00%
 19  1     7    1  |1 0>          0.00%    0.00%    0.00%
 20  1     8    1  |1 0>          0.00%    0.00%    0.00%
 21  1     9    1  |1 0>          0.00%    0.00%    0.00%
 22  1    10    1  |1 0>          5.30%    0.00%    2.63%
 23  1    11    1  |1 0>          0.00%    0.00%    0.00%
 24  1    12    1  |1 0>          0.00%    0.00%    0.00%
 25  1     1    1  |1 1>-         0.00%    0.01%    0.00%
 26  1     2    1  |1 1>-         0.00%    0.01%    0.00%
 27  1     3    1  |1 1>-         0.00%    0.00%    0.02%
 28  1     4    1  |1 1>-         0.00%    0.00%    0.00%
 29  1     5    1  |1 1>-         0.00%    0.00%    0.00%
 30  1     6    1  |1 1>-         0.00%    0.00%    0.00%
 31  1     7    1  |1 1>-         0.50%    0.00%    0.00%
 32  1     8    1  |1 1>-         0.00%    0.15%    0.00%
 33  1     9    1  |1 1>-         0.00%    0.00%    0.00%
 34  1    10    1  |1 1>-         0.00%    0.00%    0.00%
 35  1    11    1  |1 1>-         2.25%    0.00%    2.63%
 36  1    12    1  |1 1>-         0.00%   11.01%    0.00%
 37  1     1    1  |0 0>          0.00%    0.00%    0.00%
 38  1     2    1  |0 0>          0.00%    0.00%    0.00%
 39  1     3    1  |0 0>          0.00%    0.00%    0.00%
 40  1     4    1  |0 0>          0.00%    0.00%    0.00%
 41  1     5    1  |0 0>          0.00%    0.00%    0.00%
 42  1     6    1  |0 0>          0.00%    0.00%    0.01%
 43  1     7    1  |0 0>          0.00%    0.00%    0.00%
 44  1     8    1  |0 0>          0.00%    0.00%    0.00%
 45  1     9    1  |0 0>          0.00%    0.00%    0.00%
 46  1    10    1  |0 0>          0.00%    0.00%    0.00%
 47  1    11    1  |0 0>          0.01%    0.00%    0.00%
 48  1    12    1  |0 0>          0.00%    0.00%    0.00%
 49  1    13    1  |0 0>          0.00%   77.05%    0.00%
 50  1    14    1  |0 0>         77.03%    0.00%    0.00%
 51  1    15    1  |0 0>          0.00%    0.00%   92.06%


 No matrix element <i|DMX|i> larger than 5E-7
 No matrix element <i|DMX|1> larger than 5E-7

 No matrix element <i|DMY|i> larger than 5E-7
 No matrix element <i|DMY|1> larger than 5E-7

 No matrix element <i|DMZ|i> larger than 5E-7
 No matrix element <i|DMZ|1> larger than 5E-7


 **********************************************************************************************************************************
 DATASETS  * FILE   NREC   LENGTH (MB)   RECORD NAMES
              1      21       52.36       500      610      700      900      950      970     1000      129      960     1100   
                                          VAR    BASINP    GEOM    SYMINP    ZMAT    AOBASIS   BASIS     P2S    ABASIS      S 
                                         1400     1410     1420     1200     1210     1080     1700     1600     1650     1380   
                                           T        V       ECP      H0       H01     AOSYM    OPER      SMH    MOLCAS    JKOP   
                                         1700(1)
                                         OPER   

              2       7     4398.21       700     1000      520     2100     2140     5201     5101   
                                         GEOM     BASIS   MCVARS     RHF     MCSCF    MRCI     MRCI   

 PROGRAMS   *        TOTAL        CI        CI        CI     MULTI   RHF-SCF       INT
 CPU TIMES  *    132568.79 117078.62   7011.77   8472.25      3.81      0.34      1.74
 REAL TIME  *    134347.95 SEC
 DISK USED  *         4.35 GB (local),       52.37 GB (total)
 SF USED    *        23.38 GB
 GA USED    *         0.00 MB       (max)       0.00 MB       (current)
 **********************************************************************************************************************************

 CI/aug-cc-pWCVQZ-PP energy=   -213.981167308086

              CI              CI           MULTI         RHF-SCF
   -213.90324584   -213.93755745   -213.11257158   -213.37378088
 **********************************************************************************************************************************
 Molpro calculation terminated with 1 warning(s)
