
 Working directory              : /wrk/irikura/molpro.7WRr0yJbnT/
 Global scratch directory       : /wrk/irikura/molpro.7WRr0yJbnT/
 Wavefunction directory         : /home/irikura/wfu/
 Main file repository           : /wrk/irikura/molpro.7WRr0yJbnT/

 id        : nistki

 Nodes            nprocs
 pn112695.nist.gov   16
 GA implementation: MPI file
 GA implementation (serial work in mppx): MPI file

 Using customized tuning parameters: mindgm=1; mindgv=20; mindgc=4; mindgr=1; noblas=0; minvec=7
 default implementation of scratch files=sf  


 Variables initialized (1040), CPU time= 0.02 sec
 ***,Sn SO-CI
                                                                                 ! Heaver weight on the three ground terms
 memory,1500,M;
 
 gprint,orbitals,civector,basis;
 
 symmetry,xyz
 geometry={Sn};
 
 basis={
 ecp,sn,ECP28MDF;
 spdfgh,sn,aug-cc-pwCVQZ-PP;C; spdf,1,even,nprim=1,ratio=3.0;
 }
 
                                                                                 ! spherical anion orbitals (4S)
 {rhf; wf,nelec=23,sym=2,spin=3}
 
 NTRIP=12
 NSING=15
 
                                                                                 ! add 6p to active space
 {multi
     closed,6,3
     occ,7,9
     wf,nelec=22,sym=1,spin=2;state,NTRIP;
 weight,3[5],(NTRIP-3)[1]
     wf,nelec=22,sym=1,spin=0;state,NSING;
 weight,6[5],(NSING-6)[1]
     expec2,lxx,lyy,lzz;
 }
 table, energy, ll
 title, Energies and &lt;L**2&gt; values
 
 core,0,0
 
 {ci;wf,sym=1,spin=2;state,NTRIP; save,5201.2}
 hlsdiag = energd4
 {ci;wf,sym=1,spin=0;state,NSING; save,5101.2}
 hlsdiag(NTRIP+1) = energd4
 
 table,hlsdiag
 
 {ci;hlsmat,ecp,5201.2,5101.2;print,vls=0,hls=0}                                 !compute and diagonalize SO matrix
 Commands initialized (846), CPU time= 0.01 sec, 717 directives.
 Default parameters read. Elapsed time= 0.21 sec

 Checking input...
 Passed
1


                                         ***  PROGRAM SYSTEM MOLPRO  ***
                                       Copyright, TTI GmbH Stuttgart, 2015
                                    Version 2023.2 linked Fri Sep 22 03:27:09 2023


 **********************************************************************************************************************************
 LABEL *   Sn SO-CI                                                                                                                                                      
  (32 PROC) 64 bit mpp version                                                           DATE: 24-Sep-24          TIME: 15:49:16  
 **********************************************************************************************************************************

 SHA1:             3c61bfe44d37c8635c785372c339f5cbdd4e4b59
 **********************************************************************************************************************************

 Memory per process:      1500 MW
 Total memory per node:  24000 MW

 GA preallocation disabled
 GA check disabled

 Variable memory set to 1500.0 MW


 ZSYMEL=XYZ

 SETTING BASIS          =    USERDEF


 Recomputing integrals since basis changed


 Using spherical harmonics

 Library entry Sn   ECP ECP28MDF                 selected for group  1
 Library entry SN     S AUG-CC-PWCVQZ-PP     selected for orbital group  1
 Even tempered Sn S diffuse               selected for group 1    nprim= 1    centre=  0.007    ratio= 3.000    dratio= 1.000
 Library entry SN     P AUG-CC-PWCVQZ-PP     selected for orbital group  1
 Even tempered Sn P diffuse               selected for group 1    nprim= 1    centre=  0.005    ratio= 3.000    dratio= 1.000
 Library entry SN     D AUG-CC-PWCVQZ-PP     selected for orbital group  1
 Even tempered Sn D diffuse               selected for group 1    nprim= 1    centre=  0.011    ratio= 3.000    dratio= 1.000
 Library entry SN     F AUG-CC-PWCVQZ-PP     selected for orbital group  1
 Even tempered Sn F diffuse               selected for group 1    nprim= 1    centre=  0.024    ratio= 3.000    dratio= 1.000
 Library entry SN     G AUG-CC-PWCVQZ-PP     selected for orbital group  1
 Library entry SN     H AUG-CC-PWCVQZ-PP     selected for orbital group  1


 PROGRAM * SEWARD (Integral evaluation for generally contracted gaussian basis sets)     Author: Roland Lindh, 1990

 Geometry written to block  1 of record 700

 Orientation using atomic masses  
 Molecule type: Atom
 User-specified symmetry elements: XYZ
 Symmetry elements: XYZ
 Rotational constants:       0.0000000      0.0000000      0.0000000 GHz  (calculated with average atomic masses)

 Point group  Ci  



 ATOMIC COORDINATES

 NR  ATOM    CHARGE       X              Y              Z

   1  SN     22.00    0.000000000    0.000000000    0.000000000


          SN  CORE POTENTIAL

          g POTENTIAL

 POWERS             2
 EXPONENTIALS   1.000000    
 COEFFICIENTS   0.000000    

          s - g POTENTIAL

 POWERS             2              2
 EXPONENTIALS   17.42041       7.631155    
 COEFFICIENTS   279.9887       62.37781    

          p - g POTENTIAL

 POWERS             2              2              2              2
 EXPONENTIALS   16.13102       15.62808       7.325608       6.942519    
 COEFFICIENTS   66.16252       132.1744       16.33942       32.48896    

          d - g POTENTIAL

 POWERS             2              2              2              2
 EXPONENTIALS   15.51498       15.18816       5.456024       5.363105    
 COEFFICIENTS   36.38744       54.50784       8.696823       12.84021    

          f - g POTENTIAL

 POWERS             2              2
 EXPONENTIALS   12.28235       12.27215    
 COEFFICIENTS  -12.57633      -16.59594    


          SN  SPIN-ORBIT POTENTIAL

          p POTENTIAL

 POWERS             2              2              2              2
 EXPONENTIALS   16.13102       15.62808       7.325608       6.942519    
 COEFFICIENTS  -132.3250       132.1744      -32.67883       32.48896    

          d POTENTIAL

 POWERS             2              2              2              2
 EXPONENTIALS   15.51498       15.18816       5.456024       5.363105    
 COEFFICIENTS  -36.38744       36.33856      -8.696823       8.560139    

          f POTENTIAL

 POWERS             2              2
 EXPONENTIALS   12.28235       12.27215    
 COEFFICIENTS   8.384222      -8.297972    


 BASIS DATA

   Nr Sym  Nuc  Type         Exponents   Contraction coefficients

    1.1 Ag    1  1s       11606.900000     0.000029    0.000000    0.000000    0.000000    0.000000    0.000000
    2.1 Ag                 1754.800000     0.000206    0.000000    0.000000    0.000000    0.000000    0.000000
    3.1 Ag                  397.178000     0.000807    0.000000    0.000000    0.000000    0.000000    0.000000
    4.1 Ag                   90.299000     0.002471    0.000000    0.000000    0.000000    0.000000    0.000000
    5.1 Ag                   31.489000    -0.040025    0.000000    0.000000    0.000000    0.000000    0.000000
    6.1 Ag                   19.668500     0.163152    1.000000    0.000000    0.000000    0.000000    0.000000
                              7.067590    -0.556983    0.000000    0.000000    0.000000    0.000000    0.000000
                              4.414900    -0.169932    0.000000    0.000000    0.000000    0.000000    0.000000
                              2.163560     0.651028    0.000000    0.000000    0.000000    0.000000    0.000000
                              1.142800     0.631685    0.000000    0.000000    0.000000    0.000000    0.000000
                              0.579540     0.130579    0.000000    1.000000    0.000000    0.000000    0.000000
                              0.260787     0.001275    0.000000    0.000000    1.000000    0.000000    0.000000
                              0.118895     0.000700    0.000000    0.000000    0.000000    1.000000    0.000000
                              0.053142    -0.000084    0.000000    0.000000    0.000000    0.000000    1.000000
    7.1 Ag    1  1s           7.882900     1.000000
    8.1 Ag    1  1s           3.099900     1.000000
    9.1 Ag    1  1s           1.219000     1.000000
   10.1 Ag    1  1s           0.021800     1.000000
   11.1 Ag    1  1s           0.007267     1.000000
   12.1 Ag    1  3d0        308.502000     0.000053
                             93.684600     0.000441
                             34.292500     0.002578
                             13.717200    -0.012651
                              6.449470     0.026769
                              3.882720     0.159133
                              2.291350     0.286700
                              1.311270     0.323003
                              0.730210     0.247548
                              0.394411     0.118263
                              0.203180     0.028688
                              0.086600     0.001983
   13.1 Ag    1  3d2-       308.502000     0.000053
                             93.684600     0.000441
                             34.292500     0.002578
                             13.717200    -0.012651
                              6.449470     0.026769
                              3.882720     0.159133
                              2.291350     0.286700
                              1.311270     0.323003
                              0.730210     0.247548
                              0.394411     0.118263
                              0.203180     0.028688
                              0.086600     0.001983
   14.1 Ag    1  3d1+       308.502000     0.000053
                             93.684600     0.000441
                             34.292500     0.002578
                             13.717200    -0.012651
                              6.449470     0.026769
                              3.882720     0.159133
                              2.291350     0.286700
                              1.311270     0.323003
                              0.730210     0.247548
                              0.394411     0.118263
                              0.203180     0.028688
                              0.086600     0.001983
   15.1 Ag    1  3d2+       308.502000     0.000053
                             93.684600     0.000441
                             34.292500     0.002578
                             13.717200    -0.012651
                              6.449470     0.026769
                              3.882720     0.159133
                              2.291350     0.286700
                              1.311270     0.323003
                              0.730210     0.247548
                              0.394411     0.118263
                              0.203180     0.028688
                              0.086600     0.001983
   16.1 Ag    1  3d1-       308.502000     0.000053
                             93.684600     0.000441
                             34.292500     0.002578
                             13.717200    -0.012651
                              6.449470     0.026769
                              3.882720     0.159133
                              2.291350     0.286700
                              1.311270     0.323003
                              0.730210     0.247548
                              0.394411     0.118263
                              0.203180     0.028688
                              0.086600     0.001983
   17.1 Ag    1  3d0        308.502000     0.000000
                             93.684600     0.000000
                             34.292500     0.000000
                             13.717200     0.000000
                              6.449470     0.000000
                              3.882720     0.000000
                              2.291350     0.000000
                              1.311270     0.000000
                              0.730210     0.000000
                              0.394411     1.000000
                              0.203180     0.000000
                              0.086600     0.000000
   18.1 Ag    1  3d2-       308.502000     0.000000
                             93.684600     0.000000
                             34.292500     0.000000
                             13.717200     0.000000
                              6.449470     0.000000
                              3.882720     0.000000
                              2.291350     0.000000
                              1.311270     0.000000
                              0.730210     0.000000
                              0.394411     1.000000
                              0.203180     0.000000
                              0.086600     0.000000
   19.1 Ag    1  3d1+       308.502000     0.000000
                             93.684600     0.000000
                             34.292500     0.000000
                             13.717200     0.000000
                              6.449470     0.000000
                              3.882720     0.000000
                              2.291350     0.000000
                              1.311270     0.000000
                              0.730210     0.000000
                              0.394411     1.000000
                              0.203180     0.000000
                              0.086600     0.000000
   20.1 Ag    1  3d2+       308.502000     0.000000
                             93.684600     0.000000
                             34.292500     0.000000
                             13.717200     0.000000
                              6.449470     0.000000
                              3.882720     0.000000
                              2.291350     0.000000
                              1.311270     0.000000
                              0.730210     0.000000
                              0.394411     1.000000
                              0.203180     0.000000
                              0.086600     0.000000
   21.1 Ag    1  3d1-       308.502000     0.000000
                             93.684600     0.000000
                             34.292500     0.000000
                             13.717200     0.000000
                              6.449470     0.000000
                              3.882720     0.000000
                              2.291350     0.000000
                              1.311270     0.000000
                              0.730210     0.000000
                              0.394411     1.000000
                              0.203180     0.000000
                              0.086600     0.000000
   22.1 Ag    1  3d0        308.502000     0.000000
                             93.684600     0.000000
                             34.292500     0.000000
                             13.717200     0.000000
                              6.449470     0.000000
                              3.882720     0.000000
                              2.291350     0.000000
                              1.311270     0.000000
                              0.730210     0.000000
                              0.394411     0.000000
                              0.203180     1.000000
                              0.086600     0.000000
   23.1 Ag    1  3d2-       308.502000     0.000000
                             93.684600     0.000000
                             34.292500     0.000000
                             13.717200     0.000000
                              6.449470     0.000000
                              3.882720     0.000000
                              2.291350     0.000000
                              1.311270     0.000000
                              0.730210     0.000000
                              0.394411     0.000000
                              0.203180     1.000000
                              0.086600     0.000000
   24.1 Ag    1  3d1+       308.502000     0.000000
                             93.684600     0.000000
                             34.292500     0.000000
                             13.717200     0.000000
                              6.449470     0.000000
                              3.882720     0.000000
                              2.291350     0.000000
                              1.311270     0.000000
                              0.730210     0.000000
                              0.394411     0.000000
                              0.203180     1.000000
                              0.086600     0.000000
   25.1 Ag    1  3d2+       308.502000     0.000000
                             93.684600     0.000000
                             34.292500     0.000000
                             13.717200     0.000000
                              6.449470     0.000000
                              3.882720     0.000000
                              2.291350     0.000000
                              1.311270     0.000000
                              0.730210     0.000000
                              0.394411     0.000000
                              0.203180     1.000000
                              0.086600     0.000000
   26.1 Ag    1  3d1-       308.502000     0.000000
                             93.684600     0.000000
                             34.292500     0.000000
                             13.717200     0.000000
                              6.449470     0.000000
                              3.882720     0.000000
                              2.291350     0.000000
                              1.311270     0.000000
                              0.730210     0.000000
                              0.394411     0.000000
                              0.203180     1.000000
                              0.086600     0.000000
   27.1 Ag    1  3d0        308.502000     0.000000
                             93.684600     0.000000
                             34.292500     0.000000
                             13.717200     0.000000
                              6.449470     0.000000
                              3.882720     0.000000
                              2.291350     0.000000
                              1.311270     0.000000
                              0.730210     0.000000
                              0.394411     0.000000
                              0.203180     0.000000
                              0.086600     1.000000
   28.1 Ag    1  3d2-       308.502000     0.000000
                             93.684600     0.000000
                             34.292500     0.000000
                             13.717200     0.000000
                              6.449470     0.000000
                              3.882720     0.000000
                              2.291350     0.000000
                              1.311270     0.000000
                              0.730210     0.000000
                              0.394411     0.000000
                              0.203180     0.000000
                              0.086600     1.000000
   29.1 Ag    1  3d1+       308.502000     0.000000
                             93.684600     0.000000
                             34.292500     0.000000
                             13.717200     0.000000
                              6.449470     0.000000
                              3.882720     0.000000
                              2.291350     0.000000
                              1.311270     0.000000
                              0.730210     0.000000
                              0.394411     0.000000
                              0.203180     0.000000
                              0.086600     1.000000
   30.1 Ag    1  3d2+       308.502000     0.000000
                             93.684600     0.000000
                             34.292500     0.000000
                             13.717200     0.000000
                              6.449470     0.000000
                              3.882720     0.000000
                              2.291350     0.000000
                              1.311270     0.000000
                              0.730210     0.000000
                              0.394411     0.000000
                              0.203180     0.000000
                              0.086600     1.000000
   31.1 Ag    1  3d1-       308.502000     0.000000
                             93.684600     0.000000
                             34.292500     0.000000
                             13.717200     0.000000
                              6.449470     0.000000
                              3.882720     0.000000
                              2.291350     0.000000
                              1.311270     0.000000
                              0.730210     0.000000
                              0.394411     0.000000
                              0.203180     0.000000
                              0.086600     1.000000
   32.1 Ag    1  3d0          4.520000     1.000000
   33.1 Ag    1  3d2-         4.520000     1.000000
   34.1 Ag    1  3d1+         4.520000     1.000000
   35.1 Ag    1  3d2+         4.520000     1.000000
   36.1 Ag    1  3d1-         4.520000     1.000000
   37.1 Ag    1  3d0          2.041300     1.000000
   38.1 Ag    1  3d2-         2.041300     1.000000
   39.1 Ag    1  3d1+         2.041300     1.000000
   40.1 Ag    1  3d2+         2.041300     1.000000
   41.1 Ag    1  3d1-         2.041300     1.000000
   42.1 Ag    1  3d0          0.921800     1.000000
   43.1 Ag    1  3d2-         0.921800     1.000000
   44.1 Ag    1  3d1+         0.921800     1.000000
   45.1 Ag    1  3d2+         0.921800     1.000000
   46.1 Ag    1  3d1-         0.921800     1.000000
   47.1 Ag    1  3d0          0.033600     1.000000
   48.1 Ag    1  3d2-         0.033600     1.000000
   49.1 Ag    1  3d1+         0.033600     1.000000
   50.1 Ag    1  3d2+         0.033600     1.000000
   51.1 Ag    1  3d1-         0.033600     1.000000
   52.1 Ag    1  3d0          0.011200     1.000000
   53.1 Ag    1  3d2-         0.011200     1.000000
   54.1 Ag    1  3d1+         0.011200     1.000000
   55.1 Ag    1  3d2+         0.011200     1.000000
   56.1 Ag    1  3d1-         0.011200     1.000000
   57.1 Ag    1  5g0          0.377400     1.000000
   58.1 Ag    1  5g2-         0.377400     1.000000
   59.1 Ag    1  5g1+         0.377400     1.000000
   60.1 Ag    1  5g4+         0.377400     1.000000
   61.1 Ag    1  5g1-         0.377400     1.000000
   62.1 Ag    1  5g2+         0.377400     1.000000
   63.1 Ag    1  5g4-         0.377400     1.000000
   64.1 Ag    1  5g3+         0.377400     1.000000
   65.1 Ag    1  5g3-         0.377400     1.000000
   66.1 Ag    1  5g0          3.767400     1.000000
   67.1 Ag    1  5g2-         3.767400     1.000000
   68.1 Ag    1  5g1+         3.767400     1.000000
   69.1 Ag    1  5g4+         3.767400     1.000000
   70.1 Ag    1  5g1-         3.767400     1.000000
   71.1 Ag    1  5g2+         3.767400     1.000000
   72.1 Ag    1  5g4-         3.767400     1.000000
   73.1 Ag    1  5g3+         3.767400     1.000000
   74.1 Ag    1  5g3-         3.767400     1.000000
   75.1 Ag    1  5g0          1.110500     1.000000
   76.1 Ag    1  5g2-         1.110500     1.000000
   77.1 Ag    1  5g1+         1.110500     1.000000
   78.1 Ag    1  5g4+         1.110500     1.000000
   79.1 Ag    1  5g1-         1.110500     1.000000
   80.1 Ag    1  5g2+         1.110500     1.000000
   81.1 Ag    1  5g4-         1.110500     1.000000
   82.1 Ag    1  5g3+         1.110500     1.000000
   83.1 Ag    1  5g3-         1.110500     1.000000
   84.1 Ag    1  5g0          0.172000     1.000000
   85.1 Ag    1  5g2-         0.172000     1.000000
   86.1 Ag    1  5g1+         0.172000     1.000000
   87.1 Ag    1  5g4+         0.172000     1.000000
   88.1 Ag    1  5g1-         0.172000     1.000000
   89.1 Ag    1  5g2+         0.172000     1.000000
   90.1 Ag    1  5g4-         0.172000     1.000000
   91.1 Ag    1  5g3+         0.172000     1.000000
   92.1 Ag    1  5g3-         0.172000     1.000000
    1.2 Au    1  2px        195.495000     0.000258
                             18.256300     0.044341
                             11.409400    -0.109142
                              6.905670    -0.138606
                              2.982060     0.343743
                              1.608430     0.518271
                              0.831767     0.278706
                              0.393731     0.040818
                              0.181801     0.000631
                              0.081850     0.000748
                              0.035993    -0.000086
    2.2 Au    1  2py        195.495000     0.000258
                             18.256300     0.044341
                             11.409400    -0.109142
                              6.905670    -0.138606
                              2.982060     0.343743
                              1.608430     0.518271
                              0.831767     0.278706
                              0.393731     0.040818
                              0.181801     0.000631
                              0.081850     0.000748
                              0.035993    -0.000086
    3.2 Au    1  2pz        195.495000     0.000258
                             18.256300     0.044341
                             11.409400    -0.109142
                              6.905670    -0.138606
                              2.982060     0.343743
                              1.608430     0.518271
                              0.831767     0.278706
                              0.393731     0.040818
                              0.181801     0.000631
                              0.081850     0.000748
                              0.035993    -0.000086
    4.2 Au    1  2px        195.495000     0.000000
                             18.256300     0.000000
                             11.409400     0.000000
                              6.905670     1.000000
                              2.982060     0.000000
                              1.608430     0.000000
                              0.831767     0.000000
                              0.393731     0.000000
                              0.181801     0.000000
                              0.081850     0.000000
                              0.035993     0.000000
    5.2 Au    1  2py        195.495000     0.000000
                             18.256300     0.000000
                             11.409400     0.000000
                              6.905670     1.000000
                              2.982060     0.000000
                              1.608430     0.000000
                              0.831767     0.000000
                              0.393731     0.000000
                              0.181801     0.000000
                              0.081850     0.000000
                              0.035993     0.000000
    6.2 Au    1  2pz        195.495000     0.000000
                             18.256300     0.000000
                             11.409400     0.000000
                              6.905670     1.000000
                              2.982060     0.000000
                              1.608430     0.000000
                              0.831767     0.000000
                              0.393731     0.000000
                              0.181801     0.000000
                              0.081850     0.000000
                              0.035993     0.000000
    7.2 Au    1  2px        195.495000     0.000000
                             18.256300     0.000000
                             11.409400     0.000000
                              6.905670     0.000000
                              2.982060     0.000000
                              1.608430     0.000000
                              0.831767     0.000000
                              0.393731     1.000000
                              0.181801     0.000000
                              0.081850     0.000000
                              0.035993     0.000000
    8.2 Au    1  2py        195.495000     0.000000
                             18.256300     0.000000
                             11.409400     0.000000
                              6.905670     0.000000
                              2.982060     0.000000
                              1.608430     0.000000
                              0.831767     0.000000
                              0.393731     1.000000
                              0.181801     0.000000
                              0.081850     0.000000
                              0.035993     0.000000
    9.2 Au    1  2pz        195.495000     0.000000
                             18.256300     0.000000
                             11.409400     0.000000
                              6.905670     0.000000
                              2.982060     0.000000
                              1.608430     0.000000
                              0.831767     0.000000
                              0.393731     1.000000
                              0.181801     0.000000
                              0.081850     0.000000
                              0.035993     0.000000
   10.2 Au    1  2px        195.495000     0.000000
                             18.256300     0.000000
                             11.409400     0.000000
                              6.905670     0.000000
                              2.982060     0.000000
                              1.608430     0.000000
                              0.831767     0.000000
                              0.393731     0.000000
                              0.181801     1.000000
                              0.081850     0.000000
                              0.035993     0.000000
   11.2 Au    1  2py        195.495000     0.000000
                             18.256300     0.000000
                             11.409400     0.000000
                              6.905670     0.000000
                              2.982060     0.000000
                              1.608430     0.000000
                              0.831767     0.000000
                              0.393731     0.000000
                              0.181801     1.000000
                              0.081850     0.000000
                              0.035993     0.000000
   12.2 Au    1  2pz        195.495000     0.000000
                             18.256300     0.000000
                             11.409400     0.000000
                              6.905670     0.000000
                              2.982060     0.000000
                              1.608430     0.000000
                              0.831767     0.000000
                              0.393731     0.000000
                              0.181801     1.000000
                              0.081850     0.000000
                              0.035993     0.000000
   13.2 Au    1  2px        195.495000     0.000000
                             18.256300     0.000000
                             11.409400     0.000000
                              6.905670     0.000000
                              2.982060     0.000000
                              1.608430     0.000000
                              0.831767     0.000000
                              0.393731     0.000000
                              0.181801     0.000000
                              0.081850     1.000000
                              0.035993     0.000000
   14.2 Au    1  2py        195.495000     0.000000
                             18.256300     0.000000
                             11.409400     0.000000
                              6.905670     0.000000
                              2.982060     0.000000
                              1.608430     0.000000
                              0.831767     0.000000
                              0.393731     0.000000
                              0.181801     0.000000
                              0.081850     1.000000
                              0.035993     0.000000
   15.2 Au    1  2pz        195.495000     0.000000
                             18.256300     0.000000
                             11.409400     0.000000
                              6.905670     0.000000
                              2.982060     0.000000
                              1.608430     0.000000
                              0.831767     0.000000
                              0.393731     0.000000
                              0.181801     0.000000
                              0.081850     1.000000
                              0.035993     0.000000
   16.2 Au    1  2px        195.495000     0.000000
                             18.256300     0.000000
                             11.409400     0.000000
                              6.905670     0.000000
                              2.982060     0.000000
                              1.608430     0.000000
                              0.831767     0.000000
                              0.393731     0.000000
                              0.181801     0.000000
                              0.081850     0.000000
                              0.035993     1.000000
   17.2 Au    1  2py        195.495000     0.000000
                             18.256300     0.000000
                             11.409400     0.000000
                              6.905670     0.000000
                              2.982060     0.000000
                              1.608430     0.000000
                              0.831767     0.000000
                              0.393731     0.000000
                              0.181801     0.000000
                              0.081850     0.000000
                              0.035993     1.000000
   18.2 Au    1  2pz        195.495000     0.000000
                             18.256300     0.000000
                             11.409400     0.000000
                              6.905670     0.000000
                              2.982060     0.000000
                              1.608430     0.000000
                              0.831767     0.000000
                              0.393731     0.000000
                              0.181801     0.000000
                              0.081850     0.000000
                              0.035993     1.000000
   19.2 Au    1  2px          3.675500     1.000000
   20.2 Au    1  2py          3.675500     1.000000
   21.2 Au    1  2pz          3.675500     1.000000
   22.2 Au    1  2px          1.835400     1.000000
   23.2 Au    1  2py          1.835400     1.000000
   24.2 Au    1  2pz          1.835400     1.000000
   25.2 Au    1  2px          0.916600     1.000000
   26.2 Au    1  2py          0.916600     1.000000
   27.2 Au    1  2pz          0.916600     1.000000
   28.2 Au    1  2px          0.014500     1.000000
   29.2 Au    1  2py          0.014500     1.000000
   30.2 Au    1  2pz          0.014500     1.000000
   31.2 Au    1  2px          0.004833     1.000000
   32.2 Au    1  2py          0.004833     1.000000
   33.2 Au    1  2pz          0.004833     1.000000
   34.2 Au    1  4f1+         0.431500     1.000000
   35.2 Au    1  4f1-         0.431500     1.000000
   36.2 Au    1  4f0          0.431500     1.000000
   37.2 Au    1  4f3+         0.431500     1.000000
   38.2 Au    1  4f2-         0.431500     1.000000
   39.2 Au    1  4f3-         0.431500     1.000000
   40.2 Au    1  4f2+         0.431500     1.000000
   41.2 Au    1  4f1+         0.177200     1.000000
   42.2 Au    1  4f1-         0.177200     1.000000
   43.2 Au    1  4f0          0.177200     1.000000
   44.2 Au    1  4f3+         0.177200     1.000000
   45.2 Au    1  4f2-         0.177200     1.000000
   46.2 Au    1  4f3-         0.177200     1.000000
   47.2 Au    1  4f2+         0.177200     1.000000
   48.2 Au    1  4f1+         8.749200     1.000000
   49.2 Au    1  4f1-         8.749200     1.000000
   50.2 Au    1  4f0          8.749200     1.000000
   51.2 Au    1  4f3+         8.749200     1.000000
   52.2 Au    1  4f2-         8.749200     1.000000
   53.2 Au    1  4f3-         8.749200     1.000000
   54.2 Au    1  4f2+         8.749200     1.000000
   55.2 Au    1  4f1+         3.094300     1.000000
   56.2 Au    1  4f1-         3.094300     1.000000
   57.2 Au    1  4f0          3.094300     1.000000
   58.2 Au    1  4f3+         3.094300     1.000000
   59.2 Au    1  4f2-         3.094300     1.000000
   60.2 Au    1  4f3-         3.094300     1.000000
   61.2 Au    1  4f2+         3.094300     1.000000
   62.2 Au    1  4f1+         1.094300     1.000000
   63.2 Au    1  4f1-         1.094300     1.000000
   64.2 Au    1  4f0          1.094300     1.000000
   65.2 Au    1  4f3+         1.094300     1.000000
   66.2 Au    1  4f2-         1.094300     1.000000
   67.2 Au    1  4f3-         1.094300     1.000000
   68.2 Au    1  4f2+         1.094300     1.000000
   69.2 Au    1  4f1+         0.073000     1.000000
   70.2 Au    1  4f1-         0.073000     1.000000
   71.2 Au    1  4f0          0.073000     1.000000
   72.2 Au    1  4f3+         0.073000     1.000000
   73.2 Au    1  4f2-         0.073000     1.000000
   74.2 Au    1  4f3-         0.073000     1.000000
   75.2 Au    1  4f2+         0.073000     1.000000
   76.2 Au    1  4f1+         0.024333     1.000000
   77.2 Au    1  4f1-         0.024333     1.000000
   78.2 Au    1  4f0          0.024333     1.000000
   79.2 Au    1  4f3+         0.024333     1.000000
   80.2 Au    1  4f2-         0.024333     1.000000
   81.2 Au    1  4f3-         0.024333     1.000000
   82.2 Au    1  4f2+         0.024333     1.000000
   83.2 Au    1  6h1+         1.160400     1.000000
   84.2 Au    1  6h1-         1.160400     1.000000
   85.2 Au    1  6h2+         1.160400     1.000000
   86.2 Au    1  6h3+         1.160400     1.000000
   87.2 Au    1  6h4-         1.160400     1.000000
   88.2 Au    1  6h3-         1.160400     1.000000
   89.2 Au    1  6h4+         1.160400     1.000000
   90.2 Au    1  6h5-         1.160400     1.000000
   91.2 Au    1  6h0          1.160400     1.000000
   92.2 Au    1  6h5+         1.160400     1.000000
   93.2 Au    1  6h2-         1.160400     1.000000

 NUCLEAR CHARGE:                   22
 NUMBER OF PRIMITIVE AOS:         320
 NUMBER OF SYMMETRY AOS:          248
 NUMBER OF CONTRACTIONS:          185   (   92Ag  +   93Au  )
 NUMBER OF INNER CORE ORBITALS:     0   (    0Ag  +    0Au  )
 NUMBER OF OUTER CORE ORBITALS:     9   (    6Ag  +    3Au  )
 NUMBER OF VALENCE ORBITALS:        4   (    1Ag  +    3Au  )


 LX: Ag           LY: Ag           LZ: Ag 


 NUCLEAR REPULSION ENERGY    0.00000000

 EXTRA SYMMETRY OF AOS IN SYMMETRY 1:   1 1 1 1 1 1 1 1 1 1   1 2 3 4 5 6 2 3 4 5   6 2 3 4 5 6 2 3 4 5   6 2 3 4 5 6 2 3 4 5
                                        6 2 3 4 5 6 2 3 4 5   6 2 3 4 5 6 7 8 910  1112131415 7 8 91011  12131415 7 8 9101112
                                       131415 7 8 910111213  1415
 EXTRA SYMMETRY OF AOS IN SYMMETRY 2:   1 2 3 1 2 3 1 2 3 1   2 3 1 2 3 1 2 3 1 2   3 1 2 3 1 2 3 1 2 3   1 2 3 4 5 6 7 8 910
                                        4 5 6 7 8 910 4 5 6   7 8 910 4 5 6 7 8 9  10 4 5 6 7 8 910 4 5   6 7 8 910 4 5 6 7 8
                                        9101112131415161718  192021


 Eigenvalues of metric

         1 0.520E-04 0.520E-04 0.520E-04 0.520E-04 0.520E-04 0.123E-03 0.128E-02 0.528E-02
         2 0.171E-04 0.171E-04 0.171E-04 0.301E-02 0.301E-02 0.301E-02 0.976E-02 0.976E-02


 Contracted 2-electron integrals neglected if value below      1.0D-12
 AO integral compression algorithm  1   Integral accuracy      1.0D-12

     155.451 MB (compressed) written to integral file ( 14.5%)

     Node minimum: 5.505 MB, node maximum: 15.466 MB


 NUMBER OF SORTED TWO-ELECTRON INTEGRALS:    4674546.     BUFFER LENGTH:  32768
 NUMBER OF SEGMENTS:   1  SEGMENT LENGTH:    4674546      RECORD LENGTH: 524288

 Memory used in sort:       5.23 MW

 SORT1 READ   134353782. AND WROTE      861811. INTEGRALS IN      3 RECORDS. CPU TIME:     0.68 SEC, REAL TIME:     0.70 SEC
 SORT2 READ    13879585. AND WROTE    74805201. INTEGRALS IN    944 RECORDS. CPU TIME:     0.14 SEC, REAL TIME:     0.15 SEC

 Node minimum:     4669686.  Node maximum:     4689006. integrals

 OPERATOR DM      FOR CENTER  0  COORDINATES:    0.000000    0.000000    0.000000


 **********************************************************************************************************************************
 DATASETS  * FILE   NREC   LENGTH (MB)   RECORD NAMES
              1      19       29.52       500      610      700      900      950      970     1000      129      960     1100   
                                          VAR    BASINP    GEOM    SYMINP    ZMAT    AOBASIS   BASIS     P2S    ABASIS      S 
                                         1400     1410     1420     1200     1210     1080     1700     1600     1650   
                                           T        V       ECP      H0       H01     AOSYM    OPER      SMH    MOLCAS    

 PROGRAMS   *        TOTAL       INT
 CPU TIMES  *         3.28      2.92
 REAL TIME  *         4.26 SEC
 DISK USED  *        29.89 MB (local),      772.00 MB (total)
 GA USED    *         0.00 MB       (max)       0.00 MB       (current)
 **********************************************************************************************************************************


 Program * Restricted Hartree-Fock


   Atom=SN basis=cc-pVTZ-PP        lmin=0  lmax=2

 Orbital guess generated from atomic densities.

 Initial alpha occupancy:   7   6
 Initial beta  occupancy:   7   3

 NELEC=   23   SYM=2   MS2= 3   THRE=1.0D-08   THRD=3.2D-06   THRG=3.2D-06  HFMA2=F  DIIS_START=2   DIIS_MAX=10   DIIS_INCORE=F

 Level shifts:    0.00 (CLOSED)    0.00 (OPEN)    0.30 (GAP_MIN)

 ITER           ETOT              DE          GRAD        DDIFF     DIIS  NEXP   TIME(IT)  TIME(TOT)  DIAG
   1     -213.37056036    -213.37056036     0.00D+00     0.68D-01     0     0       0.02      0.06    start
   2     -213.37337414      -0.00281378     0.93D-03     0.19D-02     1     0       0.03      0.09    diag2
   3     -213.37367711      -0.00030297     0.50D-03     0.49D-03     2     0       0.03      0.12    diag2
   4     -213.37376779      -0.00009068     0.16D-03     0.35D-03     3     0       0.03      0.15    diag2
   5     -213.37377882      -0.00001103     0.43D-04     0.10D-03     4     0       0.03      0.18    diag2
   6     -213.37378050      -0.00000168     0.11D-04     0.44D-04     5     0       0.03      0.21    diag2
   7     -213.37378093      -0.00000043     0.39D-05     0.24D-04     6     0       0.04      0.25    diag2
   8     -213.37378105      -0.00000013     0.16D-05     0.93D-05     7     0       0.03      0.28    fixocc
   9     -213.37378108      -0.00000003     0.74D-06     0.51D-05     8     0       0.03      0.31    diag2
  10     -213.37378108      -0.00000000     0.18D-06     0.21D-05     9     0       0.03      0.34    diag2/orth
  11     -213.37378108      -0.00000000     0.26D-07     0.16D-06     0     0       0.03      0.37    diag

 Final alpha occupancy:   7   6
 Final beta  occupancy:   7   3

 !RHF STATE 1.2 Energy               -213.373781083448
  RHF One-electron energy            -381.083512899685
  RHF Two-electron energy             167.709731816237
  RHF Kinetic energy                   82.648102955983
  RHF Nuclear energy                    0.000000000000
  RHF Virial quotient                  -2.581714200955

 !RHF STATE 1.2 Dipole moment           0.00000000     0.00000000     0.00000000
 Dipole moment /Debye                   0.00000000     0.00000000     0.00000000

 ELECTRON ORBITALS
 =================

  Orbital  Occupation    Energy    Cen Mu Typ  Coefficients
    1.1     2.00000    -5.62715     1  1  s    0.99985
    2.1     2.00000    -1.07699     1  1  d2-  0.51430    1  1  d1+  0.60080    1  1  d2+ -0.39771    1  1  d1- -0.46399
    3.1     2.00000    -1.07699     1  1  d1+  0.39632    1  1  d1-  0.87816
    4.1     2.00000    -1.07699     1  1  d0   0.99946
    5.1     2.00000    -1.07699     1  1  d2-  0.42840    1  1  d2+  0.88514
    6.1     2.00000    -1.07699     1  1  d2-  0.70278    1  1  d1+ -0.67393
    7.1     2.00000    -0.29350     1  1  s   -0.34486    1  4  s    0.43583    1  5  s    0.55686    1  6  s    0.25452
    1.2     2.00000    -3.81345     1  1  pz   0.98525
    2.2     2.00000    -3.81345     1  1  py   0.98525
    3.2     2.00000    -3.81345     1  1  px   1.00027
    4.2     1.00000    -0.05737     1  4  py   0.34607    1  5  py   0.40243    1  6  py   0.27430
    5.2     1.00000    -0.05737     1  4  px   0.34624    1  5  px   0.40262    1  6  px   0.27443
    6.2     1.00000    -0.05737     1  4  pz   0.34607    1  5  pz   0.40243    1  6  pz   0.27430


 HOMO      6.2    -0.057373 =      -1.5612eV
 LUMO      7.2     0.068821 =       1.8727eV
 LUMO-HOMO         0.126194 =       3.4339eV

 Orbitals saved in record  2100.2


 **********************************************************************************************************************************
 DATASETS  * FILE   NREC   LENGTH (MB)   RECORD NAMES
              1      19       29.52       500      610      700      900      950      970     1000      129      960     1100   
                                          VAR    BASINP    GEOM    SYMINP    ZMAT    AOBASIS   BASIS     P2S    ABASIS      S 
                                         1400     1410     1420     1200     1210     1080     1700     1600     1650   
                                           T        V       ECP      H0       H01     AOSYM    OPER      SMH    MOLCAS    

              2       4        0.93       700     1000      520     2100   
                                         GEOM     BASIS   MCVARS     RHF  

 PROGRAMS   *        TOTAL   RHF-SCF       INT
 CPU TIMES  *         3.65      0.37      2.92
 REAL TIME  *         5.77 SEC
 DISK USED  *        32.93 MB (local),      820.59 MB (total)
 GA USED    *         0.00 MB       (max)       0.00 MB       (current)
 **********************************************************************************************************************************
 SETTING NTRIP          =        12.00000000                                  
 SETTING NSING          =        15.00000000                                  

 PROGRAM * MULTI (Direct Multiconfiguration SCF)       Authors: P.J. Knowles, H.-J. Werner (1984)
                                                                D.A. Kreplin, P.J. Knowles, H.-J. Werner (2019)

 Number of closed-shell orbitals:   9 (    6    3)
 Number of active  orbitals:        7 (    1    6)
 Number of external orbitals:     169 (   85   84)

 State symmetry 1

 Number of active electrons:   4    Spin symmetry=Triplet   Space symmetry=1
 Number of states:            12
 Number of CSFs:             120   (135 determinants, 245 intermediate states)

 State symmetry 2

 Number of active electrons:   4    Spin symmetry=Singlet   Space symmetry=1
 Number of states:            15
 Number of CSFs:             126   (261 determinants, 441 intermediate states)

 Molecular orbitals read from record     2100.2  Type=RHF/CANONICAL  
 *** IN SYMMETRY 1 ORBITAL  2 SYMMETRY CONTAMINATION OF 0.696D+00 HAS BEEN REMOVED
 *** IN SYMMETRY 1 ORBITAL  3 SYMMETRY CONTAMINATION OF 0.462D+00 HAS BEEN REMOVED
 *** IN SYMMETRY 1 ORBITAL  4 SYMMETRY CONTAMINATION OF 0.589D-02 HAS BEEN REMOVED
 *** IN SYMMETRY 1 ORBITAL  5 SYMMETRY CONTAMINATION OF 0.430D+00 HAS BEEN REMOVED
 *** IN SYMMETRY 1 ORBITAL  6 SYMMETRY CONTAMINATION OF 0.579D+00 HAS BEEN REMOVED

 EXTRA SYMMETRY OF MOS IN SYMMETRY 1:   1 4 6 2 5 3 1 1 2 3   5 6 4 1 2 3 6 4 5 1   6 4 5 3 2 5 3 4 6 2   7 9111310 8121415 1
                                        5 3 4 6 212 81310 9  111514 7 1 2 5 3 4 6  1310 812 7 9111514 1   2 3 6 5 4 812 7 911
                                       14151310 1 2 3 6 4 5   1 1
 *** IN SYMMETRY 2 ORBITAL  1 SYMMETRY CONTAMINATION OF 0.149D+00 HAS BEEN REMOVED
 *** IN SYMMETRY 2 ORBITAL  2 SYMMETRY CONTAMINATION OF 0.149D+00 HAS BEEN REMOVED
 *** IN SYMMETRY 2 ORBITAL  4 SYMMETRY CONTAMINATION OF 0.301D-01 HAS BEEN REMOVED
 *** IN SYMMETRY 2 ORBITAL  6 SYMMETRY CONTAMINATION OF 0.301D-01 HAS BEEN REMOVED
 *** IN SYMMETRY 2 ORBITAL  7 SYMMETRY CONTAMINATION OF 0.111D-03 HAS BEEN REMOVED
 *** IN SYMMETRY 2 ORBITAL  9 SYMMETRY CONTAMINATION OF 0.111D-03 HAS BEEN REMOVED
 EXTRA SYMMETRY OF MOS IN SYMMETRY 2:   3 2 1 2 1 3 2 1 3 2   1 3 6 810 7 9 5 4 3   2 1 810 6 9 7 5 4 3   1 2 810 6 9 7 5 4 3
                                        1 210 8 6 5 4 9 7 9   7 810 5 4 6 3 1 219  14162113111215171820   6 4 510 8 9 7 3 1 2
                                        9 7 5 4 6 810 2 3 1   2 3 1

 Wavefunction dump at record             2140.2

 Convergence thresholds  0.10E-04 (gradient)  0.10E-05 (energy)

 Weight factors for state symmetry  1:    0.07937   0.07937   0.07937   0.01587   0.01587   0.01587   0.01587   0.01587
                                          0.01587   0.01587   0.01587   0.01587
 Weight factors for state symmetry  2:    0.07937   0.07937   0.07937   0.07937   0.07937   0.07937   0.01587   0.01587
                                          0.01587   0.01587   0.01587   0.01587   0.01587   0.01587   0.01587
 
 Number of orbital rotations:  1375  ( 24 closed/active, 762 closed/virtual, 0 active/active, 589 active/virtual )
 Total number of variables:    6910
 
 Second-order MCSCF: L-BFGS accelerated
 
 ITER  MIC  NCI  NEG     ENERGY(VAR)    ENERGY(PROJ) ENERGY CHANGE       GRAD(0)  GRAD(ORB)   GRAD(CI)      STEP      TIME
   1   17   30    3   -213.23903143    -213.27405350   -0.03502207    0.13936689 0.00001932 0.00000000  0.15E+01      1.74
   2    8   14    0   -213.27317922    -213.27332239   -0.00014318    0.01100711 0.00000854 0.00000000  0.11E+00      3.10
   3    5   10    0   -213.27332252    -213.27332252   -0.00000000    0.00002945 0.00000001 0.00000000  0.34E-03      4.05
   4    2    4    0   -213.27332252    -213.27332252    0.00000000    0.00000001 0.00000001 0.00000000  0.21E-07      4.73

 CONVERGENCE REACHED!  Final gradient:    0.00000001 ( 0.10E-07)
                       Final energy:   -213.27332252
 
 Results for state 1.1 Triplet
 =============================
 !MCSCF STATE 1.1 Triplet Energy              -213.344884045285
 Nuclear energy                                  0.00000000
 Kinetic energy                                 82.69188263
 One electron energy                          -376.34084903
 Two electron energy                           162.99596498
 Virial ratio                                    3.57999791
 
 !MCSCF STATE 1.1 Triplet Dipole moment          0.00000000     0.00000000     0.00000000
 Dipole moment /Debye                            0.00000000     0.00000000     0.00000000
 
 Results for state 2.1 Triplet
 =============================
 !MCSCF STATE 2.1 Triplet Energy              -213.344884045010
 Nuclear energy                                  0.00000000
 Kinetic energy                                 82.69188264
 One electron energy                          -376.34084905
 Two electron energy                           162.99596501
 Virial ratio                                    3.57999791
 
 !MCSCF STATE 2.1 Triplet Dipole moment          0.00000000     0.00000000     0.00000000
 Dipole moment /Debye                            0.00000000     0.00000000     0.00000000
 
 Results for state 3.1 Triplet
 =============================
 !MCSCF STATE 3.1 Triplet Energy              -213.344884044837
 Nuclear energy                                  0.00000000
 Kinetic energy                                 82.69188264
 One electron energy                          -376.34084907
 Two electron energy                           162.99596503
 Virial ratio                                    3.57999791
 
 !MCSCF STATE 3.1 Triplet Dipole moment          0.00000000     0.00000000     0.00000000
 Dipole moment /Debye                            0.00000000     0.00000000     0.00000000
 
 Results for state 4.1 Triplet
 =============================
 !MCSCF STATE 4.1 Triplet Energy              -213.166689316146
 Nuclear energy                                  0.00000000
 Kinetic energy                                 82.22478649
 One electron energy                          -371.54929171
 Two electron energy                           158.38260239
 Virial ratio                                    3.59248699
 
 !MCSCF STATE 4.1 Triplet Dipole moment          0.00000000     0.00000000     0.00000000
 Dipole moment /Debye                            0.00000000     0.00000000     0.00000000
 
 Results for state 5.1 Triplet
 =============================
 !MCSCF STATE 5.1 Triplet Energy              -213.166689316118
 Nuclear energy                                  0.00000000
 Kinetic energy                                 82.22478649
 One electron energy                          -371.54929170
 Two electron energy                           158.38260238
 Virial ratio                                    3.59248699
 
 !MCSCF STATE 5.1 Triplet Dipole moment          0.00000000     0.00000000     0.00000000
 Dipole moment /Debye                            0.00000000     0.00000000     0.00000000
 
 Results for state 6.1 Triplet
 =============================
 !MCSCF STATE 6.1 Triplet Energy              -213.166689315941
 Nuclear energy                                  0.00000000
 Kinetic energy                                 82.22478649
 One electron energy                          -371.54929171
 Two electron energy                           158.38260239
 Virial ratio                                    3.59248699
 
 !MCSCF STATE 6.1 Triplet Dipole moment          0.00000000     0.00000000     0.00000000
 Dipole moment /Debye                            0.00000000     0.00000000     0.00000000
 
 Results for state 7.1 Triplet
 =============================
 !MCSCF STATE 7.1 Triplet Energy              -213.166689315767
 Nuclear energy                                  0.00000000
 Kinetic energy                                 82.22478648
 One electron energy                          -371.54929168
 Two electron energy                           158.38260236
 Virial ratio                                    3.59248699
 
 !MCSCF STATE 7.1 Triplet Dipole moment          0.00000000     0.00000000     0.00000000
 Dipole moment /Debye                            0.00000000     0.00000000     0.00000000
 
 Results for state 8.1 Triplet
 =============================
 !MCSCF STATE 8.1 Triplet Energy              -213.166689315741
 Nuclear energy                                  0.00000000
 Kinetic energy                                 82.22478648
 One electron energy                          -371.54929168
 Two electron energy                           158.38260236
 Virial ratio                                    3.59248699
 
 !MCSCF STATE 8.1 Triplet Dipole moment          0.00000000     0.00000000     0.00000000
 Dipole moment /Debye                            0.00000000     0.00000000     0.00000000
 
 Results for state 9.1 Triplet
 =============================
 !MCSCF STATE 9.1 Triplet Energy              -213.162280566373
 Nuclear energy                                  0.00000000
 Kinetic energy                                 82.29682328
 One electron energy                          -371.91173913
 Two electron energy                           158.74945857
 Virial ratio                                    3.59016414
 
 !MCSCF STATE 9.1 Triplet Dipole moment          0.00000000     0.00000000     0.00000000
 Dipole moment /Debye                            0.00000000     0.00000000     0.00000000
 
 Results for state 10.1 Triplet
 ==============================
 !MCSCF STATE 10.1 Triplet Energy             -213.162280566208
 Nuclear energy                                  0.00000000
 Kinetic energy                                 82.29682327
 One electron energy                          -371.91173910
 Two electron energy                           158.74945853
 Virial ratio                                    3.59016414
 
 !MCSCF STATE 10.1 Triplet Dipole moment         0.00000000     0.00000000     0.00000000
 Dipole moment /Debye                            0.00000000     0.00000000     0.00000000
 
 Results for state 11.1 Triplet
 ==============================
 !MCSCF STATE 11.1 Triplet Energy             -213.162280566154
 Nuclear energy                                  0.00000000
 Kinetic energy                                 82.29682328
 One electron energy                          -371.91173914
 Two electron energy                           158.74945857
 Virial ratio                                    3.59016414
 
 !MCSCF STATE 11.1 Triplet Dipole moment         0.00000000     0.00000000     0.00000000
 Dipole moment /Debye                            0.00000000     0.00000000     0.00000000
 
 Results for state 12.1 Triplet
 ==============================
 !MCSCF STATE 12.1 Triplet Energy             -213.160222164918
 Nuclear energy                                  0.00000000
 Kinetic energy                                 82.22467010
 One electron energy                          -371.54746378
 Two electron energy                           158.38724161
 Virial ratio                                    3.59241201
 
 !MCSCF STATE 12.1 Triplet Dipole moment         0.00000000     0.00000000     0.00000000
 Dipole moment /Debye                            0.00000000     0.00000000     0.00000000
 
 Results for state 1.1 Singlet
 =============================
 !MCSCF STATE 1.1 Singlet Energy              -213.309943461682
 Nuclear energy                                  0.00000000
 Kinetic energy                                 82.65454831
 One electron energy                          -376.12620881
 Two electron energy                           162.81626534
 Virial ratio                                    3.58074054
 
 !MCSCF STATE 1.1 Singlet Dipole moment          0.00000000     0.00000000     0.00000000
 Dipole moment /Debye                            0.00000000     0.00000000     0.00000000
 
 Results for state 2.1 Singlet
 =============================
 !MCSCF STATE 2.1 Singlet Energy              -213.309943461650
 Nuclear energy                                  0.00000000
 Kinetic energy                                 82.65454831
 One electron energy                          -376.12620881
 Two electron energy                           162.81626535
 Virial ratio                                    3.58074054
 
 !MCSCF STATE 2.1 Singlet Dipole moment          0.00000000     0.00000000     0.00000000
 Dipole moment /Debye                            0.00000000     0.00000000     0.00000000
 
 Results for state 3.1 Singlet
 =============================
 !MCSCF STATE 3.1 Singlet Energy              -213.309943461327
 Nuclear energy                                  0.00000000
 Kinetic energy                                 82.65454832
 One electron energy                          -376.12620883
 Two electron energy                           162.81626537
 Virial ratio                                    3.58074054
 
 !MCSCF STATE 3.1 Singlet Dipole moment          0.00000000     0.00000000     0.00000000
 Dipole moment /Debye                            0.00000000     0.00000000     0.00000000
 
 Results for state 4.1 Singlet
 =============================
 !MCSCF STATE 4.1 Singlet Energy              -213.309943461091
 Nuclear energy                                  0.00000000
 Kinetic energy                                 82.65454833
 One electron energy                          -376.12620885
 Two electron energy                           162.81626539
 Virial ratio                                    3.58074054
 
 !MCSCF STATE 4.1 Singlet Dipole moment          0.00000000     0.00000000     0.00000000
 Dipole moment /Debye                            0.00000000     0.00000000     0.00000000
 
 Results for state 5.1 Singlet
 =============================
 !MCSCF STATE 5.1 Singlet Energy              -213.309943461033
 Nuclear energy                                  0.00000000
 Kinetic energy                                 82.65454833
 One electron energy                          -376.12620885
 Two electron energy                           162.81626539
 Virial ratio                                    3.58074054
 
 !MCSCF STATE 5.1 Singlet Dipole moment          0.00000000     0.00000000     0.00000000
 Dipole moment /Debye                            0.00000000     0.00000000     0.00000000
 
 Results for state 6.1 Singlet
 =============================
 !MCSCF STATE 6.1 Singlet Energy              -213.279988133122
 Nuclear energy                                  0.00000000
 Kinetic energy                                 82.61002098
 One electron energy                          -375.79297066
 Two electron energy                           162.51298252
 Virial ratio                                    3.58176896
 
 !MCSCF STATE 6.1 Singlet Dipole moment          0.00000000     0.00000000     0.00000000
 Dipole moment /Debye                            0.00000000     0.00000000     0.00000000
 
 Results for state 7.1 Singlet
 =============================
 !MCSCF STATE 7.1 Singlet Energy              -213.171005030573
 Nuclear energy                                  0.00000000
 Kinetic energy                                 82.22485916
 One electron energy                          -371.55044085
 Two electron energy                           158.37943582
 Virial ratio                                    3.59253719
 
 !MCSCF STATE 7.1 Singlet Dipole moment          0.00000000     0.00000000     0.00000000
 Dipole moment /Debye                            0.00000000     0.00000000     0.00000000
 
 Results for state 8.1 Singlet
 =============================
 !MCSCF STATE 8.1 Singlet Energy              -213.171005030449
 Nuclear energy                                  0.00000000
 Kinetic energy                                 82.22485916
 One electron energy                          -371.55044085
 Two electron energy                           158.37943582
 Virial ratio                                    3.59253719
 
 !MCSCF STATE 8.1 Singlet Dipole moment          0.00000000     0.00000000     0.00000000
 Dipole moment /Debye                            0.00000000     0.00000000     0.00000000
 
 Results for state 9.1 Singlet
 =============================
 !MCSCF STATE 9.1 Singlet Energy              -213.171005030263
 Nuclear energy                                  0.00000000
 Kinetic energy                                 82.22485916
 One electron energy                          -371.55044082
 Two electron energy                           158.37943579
 Virial ratio                                    3.59253719
 
 !MCSCF STATE 9.1 Singlet Dipole moment          0.00000000     0.00000000     0.00000000
 Dipole moment /Debye                            0.00000000     0.00000000     0.00000000
 
 Results for state 10.1 Singlet
 ==============================
 !MCSCF STATE 10.1 Singlet Energy             -213.152716937009
 Nuclear energy                                  0.00000000
 Kinetic energy                                 82.33689343
 One electron energy                          -372.13721317
 Two electron energy                           158.98449624
 Virial ratio                                    3.58878746
 
 !MCSCF STATE 10.1 Singlet Dipole moment         0.00000000     0.00000000     0.00000000
 Dipole moment /Debye                            0.00000000     0.00000000     0.00000000
 
 Results for state 11.1 Singlet
 ==============================
 !MCSCF STATE 11.1 Singlet Energy             -213.152716936971
 Nuclear energy                                  0.00000000
 Kinetic energy                                 82.33689344
 One electron energy                          -372.13721319
 Two electron energy                           158.98449626
 Virial ratio                                    3.58878746
 
 !MCSCF STATE 11.1 Singlet Dipole moment         0.00000000     0.00000000     0.00000000
 Dipole moment /Debye                            0.00000000     0.00000000     0.00000000
 
 Results for state 12.1 Singlet
 ==============================
 !MCSCF STATE 12.1 Singlet Energy             -213.152716936846
 Nuclear energy                                  0.00000000
 Kinetic energy                                 82.33689343
 One electron energy                          -372.13721315
 Two electron energy                           158.98449621
 Virial ratio                                    3.58878746
 
 !MCSCF STATE 12.1 Singlet Dipole moment         0.00000000     0.00000000     0.00000000
 Dipole moment /Debye                            0.00000000     0.00000000     0.00000000
 
 Results for state 13.1 Singlet
 ==============================
 !MCSCF STATE 13.1 Singlet Energy             -213.152716936648
 Nuclear energy                                  0.00000000
 Kinetic energy                                 82.33689344
 One electron energy                          -372.13721320
 Two electron energy                           158.98449626
 Virial ratio                                    3.58878746
 
 !MCSCF STATE 13.1 Singlet Dipole moment         0.00000000     0.00000000     0.00000000
 Dipole moment /Debye                            0.00000000     0.00000000     0.00000000
 
 Results for state 14.1 Singlet
 ==============================
 !MCSCF STATE 14.1 Singlet Energy             -213.152716936633
 Nuclear energy                                  0.00000000
 Kinetic energy                                 82.33689343
 One electron energy                          -372.13721319
 Two electron energy                           158.98449625
 Virial ratio                                    3.58878746
 
 !MCSCF STATE 14.1 Singlet Dipole moment         0.00000000     0.00000000     0.00000000
 Dipole moment /Debye                            0.00000000     0.00000000     0.00000000
 
 Results for state 15.1 Singlet
 ==============================
 !MCSCF STATE 15.1 Singlet Energy             -213.140420838090
 Nuclear energy                                  0.00000000
 Kinetic energy                                 82.37786856
 One electron energy                          -372.35753686
 Two electron energy                           159.21711603
 Virial ratio                                    3.58735052
 
 !MCSCF STATE 15.1 Singlet Dipole moment         0.00000000     0.00000000     0.00000000
 Dipole moment /Debye                            0.00000000     0.00000000     0.00000000
 
 State-averaged charge density matrix saved on record 2140.2 (density set 1)
 
 No non-zero expectation values
 
 Expectation values for two-electron operators:
 
 ? Warning
 ? Transition properties are only calculated between states of the same symmetry
 ? The problem occurs in mu_properties_expec2

 !MCSCF expec      <1.1 Triplet|LXLX|1.1 Triplet>     1.000000000000
 !MCSCF expec      <2.1 Triplet|LXLX|2.1 Triplet>     1.000000000000
 !MCSCF expec      <3.1 Triplet|LXLX|3.1 Triplet>     0.000000000000
 !MCSCF expec      <4.1 Triplet|LXLX|4.1 Triplet>     3.735419554753
 !MCSCF expec      <5.1 Triplet|LXLX|5.1 Triplet>     3.999999999973
 !MCSCF expec      <6.1 Triplet|LXLX|6.1 Triplet>     1.000000000852
 !MCSCF expec      <7.1 Triplet|LXLX|7.1 Triplet>     0.999999996617
 !MCSCF expec      <8.1 Triplet|LXLX|8.1 Triplet>     0.264576621893
 !MCSCF expec      <9.1 Triplet|LXLX|9.1 Triplet>     0.000000000008
 !MCSCF expec    <10.1 Triplet|LXLX|10.1 Triplet>     0.999999999996
 !MCSCF expec    <11.1 Triplet|LXLX|11.1 Triplet>     0.999999999996
 !MCSCF expec    <12.1 Triplet|LXLX|12.1 Triplet>     0.000000000006
 !MCSCF expec      <1.1 Singlet|LXLX|1.1 Singlet>     0.364838104124
 !MCSCF expec      <2.1 Singlet|LXLX|2.1 Singlet>     0.999999999994
 !MCSCF expec      <3.1 Singlet|LXLX|3.1 Singlet>     1.000000000000
 !MCSCF expec      <4.1 Singlet|LXLX|4.1 Singlet>     3.999999999998
 !MCSCF expec      <5.1 Singlet|LXLX|5.1 Singlet>     3.635167412457
 !MCSCF expec      <6.1 Singlet|LXLX|6.1 Singlet>     0.000000000001
 !MCSCF expec      <7.1 Singlet|LXLX|7.1 Singlet>     0.000000000009
 !MCSCF expec      <8.1 Singlet|LXLX|8.1 Singlet>     0.999999999995
 !MCSCF expec      <9.1 Singlet|LXLX|9.1 Singlet>     0.999999999996
 !MCSCF expec    <10.1 Singlet|LXLX|10.1 Singlet>     3.589121592860
 !MCSCF expec    <11.1 Singlet|LXLX|11.1 Singlet>     3.999999999976
 !MCSCF expec    <12.1 Singlet|LXLX|12.1 Singlet>     0.999999999934
 !MCSCF expec    <13.1 Singlet|LXLX|13.1 Singlet>     0.999999990654
 !MCSCF expec    <14.1 Singlet|LXLX|14.1 Singlet>     0.410878265455
 !MCSCF expec    <15.1 Singlet|LXLX|15.1 Singlet>     0.000000000005
 
 !MCSCF expec      <1.1 Triplet|LYLY|1.1 Triplet>     0.999999999999
 !MCSCF expec      <2.1 Triplet|LYLY|2.1 Triplet>     0.000000000000
 !MCSCF expec      <3.1 Triplet|LYLY|3.1 Triplet>     1.000000000000
 !MCSCF expec      <4.1 Triplet|LYLY|4.1 Triplet>     1.993242730205
 !MCSCF expec      <5.1 Triplet|LYLY|5.1 Triplet>     0.999999999996
 !MCSCF expec      <6.1 Triplet|LYLY|6.1 Triplet>     3.999999999620
 !MCSCF expec      <7.1 Triplet|LYLY|7.1 Triplet>     1.000000006257
 !MCSCF expec      <8.1 Triplet|LYLY|8.1 Triplet>     2.006764958930
 !MCSCF expec      <9.1 Triplet|LYLY|9.1 Triplet>     0.999999999996
 !MCSCF expec    <10.1 Triplet|LYLY|10.1 Triplet>     0.999999995123
 !MCSCF expec    <11.1 Triplet|LYLY|11.1 Triplet>     0.000000003554
 !MCSCF expec    <12.1 Triplet|LYLY|12.1 Triplet>     0.000000000006
 !MCSCF expec      <1.1 Singlet|LYLY|1.1 Singlet>     1.820242399250
 !MCSCF expec      <2.1 Singlet|LYLY|2.1 Singlet>     1.000000000042
 !MCSCF expec      <3.1 Singlet|LYLY|3.1 Singlet>     3.999999999918
 !MCSCF expec      <4.1 Singlet|LYLY|4.1 Singlet>     1.000000000000
 !MCSCF expec      <5.1 Singlet|LYLY|5.1 Singlet>     2.179748058992
 !MCSCF expec      <6.1 Singlet|LYLY|6.1 Singlet>     0.000000000001
 !MCSCF expec      <7.1 Singlet|LYLY|7.1 Singlet>     0.999999999996
 !MCSCF expec      <8.1 Singlet|LYLY|8.1 Singlet>     0.000000000064
 !MCSCF expec      <9.1 Singlet|LYLY|9.1 Singlet>     0.999999999944
 !MCSCF expec    <10.1 Singlet|LYLY|10.1 Singlet>     0.153764624234
 !MCSCF expec    <11.1 Singlet|LYLY|11.1 Singlet>     0.999999999996
 !MCSCF expec    <12.1 Singlet|LYLY|12.1 Singlet>     1.000000000212
 !MCSCF expec    <13.1 Singlet|LYLY|13.1 Singlet>     3.999999998225
 !MCSCF expec    <14.1 Singlet|LYLY|14.1 Singlet>     3.846235277847
 !MCSCF expec    <15.1 Singlet|LYLY|15.1 Singlet>     0.000000000005
 
 !MCSCF expec      <1.1 Triplet|LZLZ|1.1 Triplet>     0.000000000001
 !MCSCF expec      <2.1 Triplet|LZLZ|2.1 Triplet>     1.000000000000
 !MCSCF expec      <3.1 Triplet|LZLZ|3.1 Triplet>     1.000000000000
 !MCSCF expec      <4.1 Triplet|LZLZ|4.1 Triplet>     0.271337715007
 !MCSCF expec      <5.1 Triplet|LZLZ|5.1 Triplet>     0.999999999996
 !MCSCF expec      <6.1 Triplet|LZLZ|6.1 Triplet>     0.999999999493
 !MCSCF expec      <7.1 Triplet|LZLZ|7.1 Triplet>     3.999999997090
 !MCSCF expec      <8.1 Triplet|LZLZ|8.1 Triplet>     3.728658419141
 !MCSCF expec      <9.1 Triplet|LZLZ|9.1 Triplet>     0.999999999996
 !MCSCF expec    <10.1 Triplet|LZLZ|10.1 Triplet>     0.000000004881
 !MCSCF expec    <11.1 Triplet|LZLZ|11.1 Triplet>     0.999999996450
 !MCSCF expec    <12.1 Triplet|LZLZ|12.1 Triplet>     0.000000000006
 !MCSCF expec      <1.1 Singlet|LZLZ|1.1 Singlet>     3.814919496623
 !MCSCF expec      <2.1 Singlet|LZLZ|2.1 Singlet>     3.999999999961
 !MCSCF expec      <3.1 Singlet|LZLZ|3.1 Singlet>     1.000000000080
 !MCSCF expec      <4.1 Singlet|LZLZ|4.1 Singlet>     1.000000000000
 !MCSCF expec      <5.1 Singlet|LZLZ|5.1 Singlet>     0.185084528548
 !MCSCF expec      <6.1 Singlet|LZLZ|6.1 Singlet>     0.000000000001
 !MCSCF expec      <7.1 Singlet|LZLZ|7.1 Singlet>     0.999999999996
 !MCSCF expec      <8.1 Singlet|LZLZ|8.1 Singlet>     0.999999999941
 !MCSCF expec      <9.1 Singlet|LZLZ|9.1 Singlet>     0.000000000060
 !MCSCF expec    <10.1 Singlet|LZLZ|10.1 Singlet>     2.257113782875
 !MCSCF expec    <11.1 Singlet|LZLZ|11.1 Singlet>     0.999999999996
 !MCSCF expec    <12.1 Singlet|LZLZ|12.1 Singlet>     3.999999999822
 !MCSCF expec    <13.1 Singlet|LZLZ|13.1 Singlet>     1.000000011090
 !MCSCF expec    <14.1 Singlet|LZLZ|14.1 Singlet>     1.742886456667
 !MCSCF expec    <15.1 Singlet|LZLZ|15.1 Singlet>     0.000000000005
 
 !MCSCF expec      <1.1 Triplet|L**2|1.1 Triplet>     2.000000000000
 !MCSCF expec      <2.1 Triplet|L**2|2.1 Triplet>     2.000000000000
 !MCSCF expec      <3.1 Triplet|L**2|3.1 Triplet>     2.000000000000
 !MCSCF expec      <4.1 Triplet|L**2|4.1 Triplet>     5.999999999964
 !MCSCF expec      <5.1 Triplet|L**2|5.1 Triplet>     5.999999999964
 !MCSCF expec      <6.1 Triplet|L**2|6.1 Triplet>     5.999999999964
 !MCSCF expec      <7.1 Triplet|L**2|7.1 Triplet>     5.999999999964
 !MCSCF expec      <8.1 Triplet|L**2|8.1 Triplet>     5.999999999964
 !MCSCF expec      <9.1 Triplet|L**2|9.1 Triplet>     2.000000000000
 !MCSCF expec    <10.1 Triplet|L**2|10.1 Triplet>     2.000000000000
 !MCSCF expec    <11.1 Triplet|L**2|11.1 Triplet>     2.000000000000
 !MCSCF expec    <12.1 Triplet|L**2|12.1 Triplet>     0.000000000018
 !MCSCF expec      <1.1 Singlet|L**2|1.1 Singlet>     5.999999999997
 !MCSCF expec      <2.1 Singlet|L**2|2.1 Singlet>     5.999999999997
 !MCSCF expec      <3.1 Singlet|L**2|3.1 Singlet>     5.999999999997
 !MCSCF expec      <4.1 Singlet|L**2|4.1 Singlet>     5.999999999997
 !MCSCF expec      <5.1 Singlet|L**2|5.1 Singlet>     5.999999999997
 !MCSCF expec      <6.1 Singlet|L**2|6.1 Singlet>     0.000000000002
 !MCSCF expec      <7.1 Singlet|L**2|7.1 Singlet>     2.000000000000
 !MCSCF expec      <8.1 Singlet|L**2|8.1 Singlet>     2.000000000000
 !MCSCF expec      <9.1 Singlet|L**2|9.1 Singlet>     2.000000000000
 !MCSCF expec    <10.1 Singlet|L**2|10.1 Singlet>     5.999999999968
 !MCSCF expec    <11.1 Singlet|L**2|11.1 Singlet>     5.999999999969
 !MCSCF expec    <12.1 Singlet|L**2|12.1 Singlet>     5.999999999969
 !MCSCF expec    <13.1 Singlet|L**2|13.1 Singlet>     5.999999999969
 !MCSCF expec    <14.1 Singlet|L**2|14.1 Singlet>     5.999999999969
 !MCSCF expec    <15.1 Singlet|L**2|15.1 Singlet>     0.000000000015
 
 EXTRA SYMMETRY OF MOS IN SYMMETRY 1:   1 4 2 3 5 6 1 1 4 2   3 5 6 1 4 2 3 5 6 1   4 2 5 3 6 4 2 5 3 6   9 712 81415111310 1
                                        4 2 3 5 6 9 7 81214  15111310 1 4 2 3 5 6   9 7 8121415111310 1   4 2 3 5 6 9 7 81214
                                       15111310 1 4 3 6 5 2   1 1
 EXTRA SYMMETRY OF MOS IN SYMMETRY 2:   1 3 2 2 3 1 1 3 2 1   3 2 4 6 810 5 9 7 3   1 2 4 6 810 5 7 9 3   1 2 4 6 810 5 7 9 4
                                        6 810 5 7 9 1 3 2 4   6 810 7 9 5 1 3 211  19211314161517121820   4 610 8 9 7 5 1 3 2
                                        4 6 810 5 7 9 1 3 2   1 3 2
 
  NATURAL ORBITALS (STATE AVERAGED)
  =================================

  Orbital  Occupation    Energy    Cen Mu Typ  Coefficients
    1.1     2.00000    -5.91214     1  1  s    0.99999
    2.1     2.00000    -1.36172     1  1  d1+  1.00040
    3.1     2.00000    -1.36172     1  1  d0   1.00040
    4.1     2.00000    -1.36172     1  1  d2-  1.00040
    5.1     2.00000    -1.36172     1  1  d2+  1.00040
    6.1     2.00000    -1.36172     1  1  d1-  1.00040
    7.1     1.95940    -0.54384     1  1  s   -0.36420    1  4  s    0.48947    1  5  s    0.64291
    1.2     2.00000    -4.09799     1  1  px   0.99996
    2.2     2.00000    -4.09799     1  1  pz   0.99996
    3.2     2.00000    -4.09799     1  1  py   0.99996
    4.2     0.58262    -0.09302     1  1  py  -0.26180    1  4  py   0.44056    1  5  py   0.44442
    5.2     0.58262    -0.09302     1  1  pz  -0.26180    1  4  pz   0.44056    1  5  pz   0.44442
    6.2     0.58262    -0.09302     1  1  px  -0.26180    1  4  px   0.44056    1  5  px   0.44442
    7.2     0.09758     0.03996     1 10  px   0.85173
    8.2     0.09758     0.03996     1 10  pz   0.85173
    9.2     0.09758     0.03996     1 10  py   0.85173
 
 Natural orbital dump (state averaged) at molpro section 2140.2 (Orbital set 2)
 
 Transform the CI vectors
 
 CI Coefficients of symmetry 1 (Triplet)
 =======================================

 State:              1               2               3               4               5               6               7
 2 aa0000       0.00000004     -0.00000007      0.99230320     -0.00000000     -0.00000002      0.00000000      0.00000000
 2 0aa000       0.00000061      0.99230320      0.00000007     -0.00000000     -0.00000000     -0.00000000     -0.00000000
 2 a0a000       0.99230320     -0.00000061     -0.00000004      0.00000000     -0.00000000      0.00000000     -0.00000003
 2 00aa00      -0.00000000      0.00000000      0.00000000     -0.20745796      0.00000003      0.00001910     -0.00004730
 2 0a00a0      -0.00000000      0.00000000      0.00000000      0.77880335     -0.00000010     -0.00002506      0.00002180
 2 0a000a       0.00000000     -0.00000000      0.00038356      0.00000009      0.69857322      0.00000000      0.00000000
 2 0a0a00      -0.00000000     -0.00038353     -0.00000000      0.00001924     -0.00000000      0.69857322      0.00000505
 2 00a00a       0.00038356     -0.00000000     -0.00000000     -0.00000874     -0.00000000     -0.00000505      0.69857318
 2 a00a00      -0.00038353      0.00000000      0.00000000     -0.00000874     -0.00000000     -0.00000505      0.69857317
 2 00a0a0       0.00000000      0.00038353      0.00000000      0.00001924     -0.00000000      0.69857313      0.00000505
 2 a000a0      -0.00000000      0.00000000     -0.00038353      0.00000009      0.69857313      0.00000000      0.00000000
 2 a0000a      -0.00000000     -0.00000000     -0.00000000     -0.57134534      0.00000008      0.00000596      0.00002551
 2 0000aa       0.00000000     -0.00000000      0.01393459     -0.00000000      0.00000001     -0.00000000     -0.00000000
 2 000a0a       0.01393459     -0.00000001     -0.00000000     -0.00000000      0.00000000     -0.00000000      0.00000002
 2 000aa0       0.00000001      0.01393459      0.00000000      0.00000000      0.00000000      0.00000001      0.00000000
 0 a2a000      -0.11452555      0.00000007      0.00000000     -0.00000000      0.00000000     -0.00000000      0.00000000
 0 aa2000      -0.00000000      0.00000001     -0.11452555      0.00000000      0.00000000      0.00000000      0.00000000
 0 2aa000      -0.00000007     -0.11452555     -0.00000001      0.00000000      0.00000000      0.00000000      0.00000000
 0 02aa00       0.00000000      0.00000000     -0.00000000      0.02145097     -0.00000000     -0.00000202      0.00000503
 0 0a20a0       0.00000000     -0.00000000     -0.00000000     -0.08288333      0.00000001      0.00000266     -0.00000228
 0 20aa00      -0.00000000     -0.00000000      0.00000000      0.02262196     -0.00000000     -0.00000204      0.00000502
 0 2a00a0       0.00000000     -0.00000000     -0.00000000     -0.08256773      0.00000001      0.00000267     -0.00000235
 0 0a200a      -0.00000000      0.00000000     -0.00190394     -0.00000001     -0.07450632     -0.00000000     -0.00000000
 0 2a0a00       0.00000000      0.00190393      0.00000000     -0.00000205      0.00000000     -0.07450632     -0.00000054
 0 02a00a      -0.00190394      0.00000000      0.00000000      0.00000093      0.00000000      0.00000054     -0.07450632
 0 a20a00       0.00190393     -0.00000000     -0.00000000      0.00000093      0.00000000      0.00000054     -0.07450632
 0 a020a0       0.00000000     -0.00000000      0.00190393     -0.00000001     -0.07450631     -0.00000000     -0.00000000
[...]
 13  1     1    1  |1 0>          0.00%    0.00%    0.00%    0.00%    0.00%    0.01%    0.00%    0.00%
 14  1     2    1  |1 0>          0.00%    0.00%    0.01%    0.00%    0.00%    0.00%    0.00%    0.00%
 15  1     3    1  |1 0>          0.00%    0.00%    0.00%    0.00%    0.01%    0.00%    0.00%    0.00%
 16  1     4    1  |1 0>          0.00%    1.07%    0.00%    6.80%    0.00%    0.00%    0.00%    0.01%
 17  1     5    1  |1 0>          0.00%   45.33%    0.00%    0.16%    0.00%    0.00%    0.00%    0.04%
 18  1     6    1  |1 0>          0.00%    0.00%    0.00%    0.00%    3.42%    1.72%    0.48%   19.52%
 19  1     7    1  |1 0>          0.00%    0.00%    0.00%    0.00%    1.61%    3.49%    0.67%   11.24%
 20  1     8    1  |1 0>          0.02%    0.00%    0.00%    0.00%    0.19%    0.01%   32.18%    1.20%
 21  1     9    1  |1 0>          0.46%    0.00%    1.43%    0.00%    8.12%    9.25%    0.00%    0.00%
 22  1    10    1  |1 0>          3.82%    0.00%   11.61%    0.00%    3.91%    7.18%    0.00%    0.00%
 23  1    11    1  |1 0>          5.49%    0.00%   16.52%    0.00%    6.23%    1.82%    0.00%    0.00%
 24  1    12    1  |1 0>          0.00%    0.00%    0.00%    3.34%    0.00%    0.00%    0.00%    0.00%
 25  1     1    1  |1 1>-         0.00%    0.00%    0.00%    0.01%    0.00%    0.00%    0.00%    0.00%
 26  1     2    1  |1 1>-         0.00%    0.00%    0.00%    0.00%    0.01%    0.00%    0.00%    0.00%
 27  1     3    1  |1 1>-         0.00%    0.00%    0.01%    0.00%    0.00%    0.00%    0.00%    0.00%
 28  1     4    1  |1 1>-         0.00%    0.00%    0.00%    0.00%    0.00%    2.73%    0.00%    0.05%
 29  1     5    1  |1 1>-         0.00%    0.00%    0.00%    0.00%    0.00%    4.23%    0.00%    0.03%
 30  1     6    1  |1 1>-        23.62%    3.74%    0.00%    1.69%    0.09%    0.00%   21.87%    0.79%
 31  1     7    1  |1 1>-        10.87%    7.83%    0.00%    3.52%    0.11%    0.00%   10.10%    0.48%
 32  1     8    1  |1 1>-         1.23%    0.03%    0.00%    0.01%    5.02%    0.00%    1.37%   33.30%
 33  1     9    1  |1 1>-         1.01%    3.69%   13.29%    9.19%    0.86%    0.00%    0.00%    0.00%
 34  1    10    1  |1 1>-         0.49%    2.90%    6.24%    7.17%    7.23%    0.00%    0.00%    0.00%
 35  1    11    1  |1 1>-         0.75%    0.74%   10.03%    1.90%   10.16%    0.00%    0.00%    0.00%
 36  1    12    1  |1 1>-         0.00%    0.00%    0.00%    0.00%    0.00%    3.34%    0.00%    0.00%
 37  1     1    1  |0 0>          0.00%    0.00%    0.00%    0.00%    0.00%    0.00%    0.00%    0.00%
 38  1     2    1  |0 0>          0.00%    0.02%    0.00%    0.00%    0.00%    0.00%    0.00%    0.00%
 39  1     3    1  |0 0>          0.00%    0.00%    0.00%    0.00%    0.00%    0.00%    0.00%    0.00%
 40  1     4    1  |0 0>          0.00%    0.00%    0.00%    0.00%    0.00%    0.00%    0.00%    0.00%
 41  1     5    1  |0 0>          0.02%    0.00%    0.00%    0.00%    0.00%    0.00%    0.00%    0.00%
 42  1     6    1  |0 0>          0.00%    0.00%    0.03%    0.00%    0.00%    0.00%    0.00%    0.00%
 43  1     7    1  |0 0>          0.00%    0.00%    0.00%   42.73%    0.00%    0.01%    0.00%    0.00%
 44  1     8    1  |0 0>          0.00%    0.00%    0.00%    0.01%    0.00%   42.73%    0.00%    0.00%
 45  1     9    1  |0 0>          0.00%    0.00%    0.00%    0.00%   42.73%    0.00%    0.00%    0.00%
 46  1    10    1  |0 0>          0.03%    0.00%    0.00%    0.00%    0.00%    0.00%    0.00%    0.00%
 47  1    11    1  |0 0>          0.00%   15.69%    0.00%    0.00%    0.00%    0.00%    0.00%    0.00%
 48  1    12    1  |0 0>          0.00%    0.00%    0.00%    0.00%    0.00%    0.00%    0.00%    0.00%
 49  1    13    1  |0 0>          0.00%    0.00%    0.00%    0.00%    0.00%    0.00%    0.00%    0.00%
 50  1    14    1  |0 0>         15.66%    0.00%    0.00%    0.00%    0.00%    0.00%    0.00%    0.00%
 51  1    15    1  |0 0>          0.00%    0.00%   11.27%    0.00%    0.00%    0.00%    0.00%    0.00%

   Total
 Nr Sym  State Sym Spin / Nr.     33       34       35       36       37       38       39       40

  1  1     1    1  |1 1>+         0.00%    0.00%    0.00%    0.00%    0.00%    0.00%    0.00%    0.00%
  2  1     2    1  |1 1>+         0.00%    0.00%    0.00%    0.00%    0.00%    0.00%    0.00%    0.00%
  3  1     3    1  |1 1>+         0.00%    0.00%    0.00%    0.00%    0.00%    0.00%    0.00%    0.00%
  4  1     4    1  |1 1>+         0.05%    0.07%    0.02%    0.05%    8.59%   15.20%    0.03%    0.00%
  5  1     5    1  |1 1>+         0.01%    0.01%    0.08%    0.27%   50.97%    2.30%    0.00%    0.00%
  6  1     6    1  |1 1>+         0.20%   21.85%   11.35%    2.57%    0.04%    0.00%    0.07%    1.62%
  7  1     7    1  |1 1>+         0.00%   10.63%    4.83%    1.91%    0.05%    0.00%    0.09%    3.38%
  8  1     8    1  |1 1>+        34.33%    0.06%    3.72%   14.95%    0.04%    0.01%    4.21%    0.01%
  9  1     9    1  |1 1>+         0.00%    0.00%    0.00%    0.00%    0.00%    0.00%    1.58%   15.35%
 10  1    10    1  |1 1>+         0.00%    0.00%    0.00%    0.00%    0.00%    0.03%   12.51%   12.24%
 11  1    11    1  |1 1>+         0.00%    0.00%    0.00%    0.00%    0.00%    0.03%   18.03%    3.05%
 12  1    12    1  |1 1>+         0.00%    0.00%    0.00%    0.00%    0.00%    0.00%    0.00%    0.00%
 13  1     1    1  |1 0>          0.00%    0.00%    0.00%    0.00%    0.00%    0.00%    0.00%    0.00%
 14  1     2    1  |1 0>          0.00%    0.00%    0.00%    0.00%    0.00%    0.00%    0.00%    0.00%
 15  1     3    1  |1 0>          0.00%    0.00%    0.00%    0.00%    0.00%    0.00%    0.00%    0.00%
 16  1     4    1  |1 0>          0.02%    0.88%   53.92%    4.34%    0.21%    0.00%    0.00%    0.00%
 17  1     5    1  |1 0>          1.85%   30.54%    1.34%    0.17%    0.00%    0.00%    0.00%    0.00%
 18  1     6    1  |1 0>         10.99%    1.08%    0.34%    7.65%   12.95%    3.07%    1.25%    0.27%
 19  1     7    1  |1 0>         19.27%    0.98%    1.49%   11.57%    7.65%    1.16%    3.11%    0.40%
 20  1     8    1  |1 0>          0.06%    0.00%    0.01%    0.02%    0.63%    0.15%    0.02%   16.82%
 21  1     9    1  |1 0>          0.00%    0.00%    0.00%    0.00%    0.00%   15.85%   14.80%    0.00%
 22  1    10    1  |1 0>          0.00%    0.00%    0.00%    0.00%    0.00%    5.99%   13.54%    0.03%
 23  1    11    1  |1 0>          0.00%    0.00%    0.00%    0.00%    0.00%   10.34%    3.85%    0.03%
 24  1    12    1  |1 0>          0.00%    0.00%    0.00%    0.00%    0.00%    0.00%    0.00%    0.00%
 25  1     1    1  |1 1>-         0.00%    0.00%    0.00%    0.00%    0.00%    0.00%    0.00%    0.00%
 26  1     2    1  |1 1>-         0.00%    0.00%    0.00%    0.00%    0.00%    0.00%    0.00%    0.00%
 27  1     3    1  |1 1>-         0.00%    0.00%    0.00%    0.00%    0.00%    0.00%    0.00%    0.00%
 28  1     4    1  |1 1>-        18.11%    1.27%    2.03%   22.23%    0.08%    0.02%   10.64%    0.00%
 29  1     5    1  |1 1>-        13.23%    0.66%    2.65%   32.86%    0.12%    0.01%    6.86%    0.00%
 30  1     6    1  |1 1>-         0.64%   10.12%    6.05%    0.46%    0.20%    0.07%    0.00%    2.50%
 31  1     7    1  |1 1>-         1.15%   21.84%   12.01%    0.81%    0.86%    0.10%    0.00%    1.15%
 32  1     8    1  |1 1>-         0.09%    0.00%    0.14%    0.13%   17.60%    4.21%    0.01%    0.13%
 33  1     9    1  |1 1>-         0.00%    0.00%    0.00%    0.00%    0.00%    1.58%    0.01%   15.11%
 34  1    10    1  |1 1>-         0.00%    0.00%    0.00%    0.00%    0.00%   12.58%    0.03%    7.08%
 35  1    11    1  |1 1>-         0.00%    0.00%    0.00%    0.00%    0.00%   17.96%    0.03%   11.46%
 36  1    12    1  |1 1>-         0.00%    0.00%    0.00%    0.00%    0.00%    0.00%    0.00%    0.00%
 37  1     1    1  |0 0>          0.00%    0.00%    0.00%    0.00%    0.00%    0.00%    0.00%    0.03%
 38  1     2    1  |0 0>          0.00%    0.00%    0.00%    0.00%    0.00%    0.00%    0.00%    0.00%
 39  1     3    1  |0 0>          0.00%    0.00%    0.00%    0.00%    0.00%    0.03%    0.00%    0.00%
 40  1     4    1  |0 0>          0.00%    0.00%    0.00%    0.00%    0.00%    0.00%    0.03%    0.00%
 41  1     5    1  |0 0>          0.00%    0.00%    0.00%    0.00%    0.00%    0.00%    0.00%    0.00%
 42  1     6    1  |0 0>          0.00%    0.00%    0.00%    0.00%    0.00%    0.00%    0.00%    0.00%
 43  1     7    1  |0 0>          0.00%    0.00%    0.00%    0.00%    0.00%    0.00%    0.00%    0.00%
 44  1     8    1  |0 0>          0.00%    0.00%    0.00%    0.00%    0.00%    0.00%    0.00%    0.00%
 45  1     9    1  |0 0>          0.00%    0.00%    0.00%    0.00%    0.00%    0.00%    0.00%    0.00%
 46  1    10    1  |0 0>          0.00%    0.00%    0.00%    0.00%    0.00%    0.00%    0.00%    9.27%
 47  1    11    1  |0 0>          0.00%    0.00%    0.00%    0.00%    0.00%    0.00%    0.00%    0.00%
 48  1    12    1  |0 0>          0.00%    0.00%    0.00%    0.00%    0.00%    0.02%    9.29%    0.00%
 49  1    13    1  |0 0>          0.00%    0.00%    0.00%    0.00%    0.00%    9.29%    0.02%    0.00%
 50  1    14    1  |0 0>          0.00%    0.00%    0.00%    0.00%    0.00%    0.00%    0.00%    0.04%
 51  1    15    1  |0 0>          0.00%    0.00%    0.00%    0.00%    0.00%    0.00%    0.00%    0.00%

   Total
 Nr Sym  State Sym Spin / Nr.     41       42       43       44       45       46       47       48

  1  1     1    1  |1 1>+         0.00%    0.00%    0.00%    0.00%    0.00%    0.00%    0.00%    0.01%
  2  1     2    1  |1 1>+         0.00%    0.00%    0.00%    0.01%    0.00%    0.01%    0.00%    0.00%
  3  1     3    1  |1 1>+         0.00%    0.00%    0.01%    0.00%    0.00%    0.00%    0.00%    0.00%
  4  1     4    1  |1 1>+         0.00%    0.00%    0.00%    0.00%    0.00%    0.00%    2.34%    0.00%
  5  1     5    1  |1 1>+         0.00%    0.00%    0.00%    0.00%    0.02%    0.00%    0.35%    0.00%
  6  1     6    1  |1 1>+         0.98%    5.97%    0.01%    0.00%    0.00%    0.01%    0.00%    0.20%
  7  1     7    1  |1 1>+         4.00%    5.76%    0.00%    0.00%    0.00%    0.02%    0.00%    0.41%
  8  1     8    1  |1 1>+         0.18%    0.00%    0.00%    0.01%    0.00%    0.65%    0.00%    0.00%
  9  1     9    1  |1 1>+        19.25%    1.39%    4.49%    0.59%    0.00%    0.51%    0.00%    5.42%
 10  1    10    1  |1 1>+         3.23%    8.43%    1.98%    4.18%    0.01%    4.11%    0.00%    4.28%
 11  1    11    1  |1 1>+         7.78%    4.38%    3.74%    5.40%    0.04%    5.86%    0.00%    1.10%
 12  1    12    1  |1 1>+         0.00%    0.00%    0.05%    0.32%   75.59%    0.00%    0.00%    0.00%
 13  1     1    1  |1 0>          0.00%    0.00%    0.00%    0.01%    0.00%    0.01%    0.00%    0.00%
 14  1     2    1  |1 0>          0.00%    0.00%    0.00%    0.00%    0.00%    0.00%    0.00%    0.00%
 15  1     3    1  |1 0>          0.00%    0.00%    0.00%    0.00%    0.01%    0.00%    0.01%    0.00%
 16  1     4    1  |1 0>          0.37%    0.04%    0.02%    0.00%    0.00%    0.00%    0.00%    0.00%
 17  1     5    1  |1 0>         15.47%    1.65%    0.00%    0.00%    0.00%    0.00%    0.00%    0.00%
 18  1     6    1  |1 0>          0.00%    0.00%    0.00%    0.01%    0.01%    0.22%    0.44%    0.04%
 19  1     7    1  |1 0>          0.00%    0.00%    0.00%    0.01%    0.01%    0.45%    0.21%    0.06%
 20  1     8    1  |1 0>          0.00%    0.02%    0.00%    0.00%    0.00%    0.00%    0.02%    2.59%
 21  1     9    1  |1 0>          0.20%    1.85%    0.01%    5.75%    3.95%    5.27%    4.70%    0.00%
 22  1    10    1  |1 0>          1.64%   15.19%    0.00%    3.65%    2.55%    4.14%    2.22%    0.00%
 23  1    11    1  |1 0>          2.29%   21.66%    0.00%    0.80%    3.70%    1.06%    3.56%    0.01%
 24  1    12    1  |1 0>          0.00%    0.00%   75.84%    0.08%    0.04%    0.00%    0.00%    0.00%
 25  1     1    1  |1 1>-         0.00%    0.00%    0.01%    0.00%    0.00%    0.00%    0.00%    0.00%
 26  1     2    1  |1 1>-         0.00%    0.00%    0.00%    0.00%    0.01%    0.00%    0.01%    0.00%
 27  1     3    1  |1 1>-         0.00%    0.00%    0.00%    0.00%    0.00%    0.00%    0.00%    0.01%
 28  1     4    1  |1 1>-         0.00%    0.00%    0.00%    0.01%    0.00%    1.64%    0.00%    0.00%
 29  1     5    1  |1 1>-         0.00%    0.00%    0.00%    0.01%    0.00%    1.05%    0.00%    0.00%
 30  1     6    1  |1 1>-         0.04%   10.46%    0.00%    0.00%    0.00%    0.00%    0.01%    0.49%
 31  1     7    1  |1 1>-         5.14%    1.99%    0.01%    0.00%    0.00%    0.00%    0.02%    0.22%
 32  1     8    1  |1 1>-         0.10%    0.39%    0.00%    0.00%    0.01%    0.00%    0.65%    0.03%
 33  1     9    1  |1 1>-        19.84%    0.48%    5.20%    0.00%    0.42%    0.00%    0.51%    4.56%
 34  1    10    1  |1 1>-         8.78%    5.97%    3.84%    0.04%    4.17%    0.00%    4.11%    2.14%
 35  1    11    1  |1 1>-         1.35%    5.02%    1.16%    0.02%    5.57%    0.00%    5.86%    3.44%
 36  1    12    1  |1 1>-         0.00%    0.00%    0.07%   75.56%    0.33%    0.00%    0.00%    0.00%
 37  1     1    1  |0 0>          0.00%    0.00%    0.00%    0.00%    0.00%    0.00%    0.00%    0.00%
 38  1     2    1  |0 0>          0.03%    0.00%    0.00%    0.00%    0.00%    0.00%    0.00%    0.00%
 39  1     3    1  |0 0>          0.00%    0.00%    0.00%    0.00%    0.00%    0.00%    0.00%    0.00%
 40  1     4    1  |0 0>          0.00%    0.00%    0.00%    0.00%    0.00%    0.00%    0.00%    0.00%
 41  1     5    1  |0 0>          0.00%    0.02%    0.00%    0.00%    0.00%    0.00%    0.00%    0.00%
 42  1     6    1  |0 0>          0.00%    0.00%    0.00%    0.00%    0.00%    0.00%    0.00%    0.00%
 43  1     7    1  |0 0>          0.00%    0.00%    3.55%    0.00%    0.00%    0.00%    0.00%    0.00%
 44  1     8    1  |0 0>          0.00%    0.00%    0.00%    3.53%    0.02%    0.00%    0.00%    0.00%
 45  1     9    1  |0 0>          0.00%    0.00%    0.00%    0.02%    3.54%    0.00%    0.00%    0.00%
 46  1    10    1  |0 0>          0.00%    0.03%    0.00%    0.00%    0.00%    0.00%    0.00%   74.99%
 47  1    11    1  |0 0>          8.41%    0.90%    0.00%    0.00%    0.00%    0.00%    0.00%    0.00%
 48  1    12    1  |0 0>          0.00%    0.00%    0.00%    0.00%    0.00%   74.99%    0.00%    0.00%
 49  1    13    1  |0 0>          0.00%    0.00%    0.00%    0.00%    0.00%    0.00%   74.99%    0.00%
 50  1    14    1  |0 0>          0.89%    8.37%    0.00%    0.00%    0.00%    0.00%    0.00%    0.00%
 51  1    15    1  |0 0>          0.00%    0.00%    0.00%    0.00%    0.00%    0.00%    0.00%    0.00%

   Total
 Nr Sym  State Sym Spin / Nr.     49       50       51

  1  1     1    1  |1 1>+         0.00%    0.00%    0.01%
  2  1     2    1  |1 1>+         0.00%    0.00%    0.00%
  3  1     3    1  |1 1>+         0.01%    0.00%    0.00%
  4  1     4    1  |1 1>+         0.00%    0.00%    0.00%
  5  1     5    1  |1 1>+         0.00%    0.00%    0.00%
  6  1     6    1  |1 1>+         0.44%    0.68%    0.00%
  7  1     7    1  |1 1>+         0.21%    1.40%    0.00%
  8  1     8    1  |1 1>+         0.02%    0.01%    0.00%
  9  1     9    1  |1 1>+         4.71%    1.59%    1.89%
 10  1    10    1  |1 1>+         2.21%    1.26%    1.49%
 11  1    11    1  |1 1>+         3.56%    0.32%    0.38%
 12  1    12    1  |1 1>+         0.00%    0.00%    0.00%
 13  1     1    1  |1 0>          0.00%    0.00%    0.00%
 14  1     2    1  |1 0>          0.00%    0.01%    0.01%
 15  1     3    1  |1 0>          0.00%    0.00%    0.00%
 16  1     4    1  |1 0>          0.06%    0.00%    0.00%
 17  1     5    1  |1 0>          2.63%    0.00%    0.00%
 18  1     6    1  |1 0>          0.00%    0.00%    0.00%
 19  1     7    1  |1 0>          0.00%    0.00%    0.00%
 20  1     8    1  |1 0>          0.00%    0.00%    0.00%
 21  1     9    1  |1 0>          0.00%    0.68%    0.18%
 22  1    10    1  |1 0>          0.00%    5.48%    1.48%
 23  1    11    1  |1 0>          0.00%    7.80%    2.10%
 24  1    12    1  |1 0>          0.00%    0.00%    0.00%
 25  1     1    1  |1 1>-         0.01%    0.00%    0.00%
 26  1     2    1  |1 1>-         0.00%    0.00%    0.00%
 27  1     3    1  |1 1>-         0.00%    0.00%    0.01%
 28  1     4    1  |1 1>-         0.00%    0.00%    0.00%
 29  1     5    1  |1 1>-         0.00%    0.00%    0.00%
 30  1     6    1  |1 1>-         0.22%    1.29%    0.00%
 31  1     7    1  |1 1>-         0.45%    0.60%    0.00%
 32  1     8    1  |1 1>-         0.00%    0.07%    0.00%
 33  1     9    1  |1 1>-         5.26%    1.72%    1.69%
 34  1    10    1  |1 1>-         4.15%    0.81%    0.79%
 35  1    11    1  |1 1>-         1.06%    1.30%    1.28%
 36  1    12    1  |1 1>-         0.00%    0.00%    0.00%
 37  1     1    1  |0 0>          0.00%    0.00%    0.00%
 38  1     2    1  |0 0>          0.00%    0.00%    0.00%
 39  1     3    1  |0 0>          0.00%    0.00%    0.00%
 40  1     4    1  |0 0>          0.00%    0.00%    0.00%
 41  1     5    1  |0 0>          0.00%    0.00%    0.00%
 42  1     6    1  |0 0>          0.00%    0.00%    0.00%
 43  1     7    1  |0 0>          0.00%    0.00%    0.00%
 44  1     8    1  |0 0>          0.00%    0.00%    0.00%
 45  1     9    1  |0 0>          0.00%    0.00%    0.00%
 46  1    10    1  |0 0>          0.00%    0.00%    0.00%
 47  1    11    1  |0 0>         74.99%    0.00%    0.00%
 48  1    12    1  |0 0>          0.00%    0.00%    0.00%
 49  1    13    1  |0 0>          0.00%    0.00%    0.00%
 50  1    14    1  |0 0>          0.00%   74.99%    0.00%
 51  1    15    1  |0 0>          0.00%    0.00%   88.69%


 No matrix element <i|DMX|i> larger than 5E-7
 No matrix element <i|DMX|1> larger than 5E-7

 No matrix element <i|DMY|i> larger than 5E-7
 No matrix element <i|DMY|1> larger than 5E-7

 No matrix element <i|DMZ|i> larger than 5E-7
 No matrix element <i|DMZ|1> larger than 5E-7


 **********************************************************************************************************************************
 DATASETS  * FILE   NREC   LENGTH (MB)   RECORD NAMES
              1      21       57.06       500      610      700      900      950      970     1000      129      960     1100   
                                          VAR    BASINP    GEOM    SYMINP    ZMAT    AOBASIS   BASIS     P2S    ABASIS      S 
                                         1400     1410     1420     1200     1210     1080     1700     1600     1650     1380   
                                           T        V       ECP      H0       H01     AOSYM    OPER      SMH    MOLCAS    JKOP   
                                         1700(1)
                                         OPER   

              2       7     5128.21       700     1000      520     2100     2140     5201     5101   
                                         GEOM     BASIS   MCVARS     RHF     MCSCF    MRCI     MRCI   

 PROGRAMS   *        TOTAL        CI        CI        CI     MULTI   RHF-SCF       INT
 CPU TIMES  *    187990.24 174893.42   6158.06   6930.41      4.67      0.37      2.92
 REAL TIME  *    190511.09 SEC
 DISK USED  *         5.06 GB (local),       81.31 GB (total)
 SF USED    *        26.76 GB
 GA USED    *         0.00 MB       (max)       0.00 MB       (current)
 **********************************************************************************************************************************

 CI/USERDEF energy=   -214.008762239007

              CI              CI           MULTI         RHF-SCF
   -213.94049719   -213.95588358   -213.15271694   -213.37378108
 **********************************************************************************************************************************
 Molpro calculation terminated with 1 warning(s)
