
 Working directory              : /wrk/irikura/molpro.9WkbK0BGvT/
 Global scratch directory       : /wrk/irikura/molpro.9WkbK0BGvT/
 Wavefunction directory         : /home/irikura/wfu/
 Main file repository           : /wrk/irikura/molpro.9WkbK0BGvT/

 id        : nistki

 Nodes            nprocs
 pn112695.nist.gov   12
 GA implementation: MPI file
 GA implementation (serial work in mppx): MPI file

 Using customized tuning parameters: mindgm=1; mindgv=20; mindgc=4; mindgr=1; noblas=0; minvec=7
 default implementation of scratch files=sf  


 Variables initialized (1040), CPU time= 0.02 sec
 ***,Sn SO-CI
 memory,1500,M;
 
 gprint,orbitals,civector;
 
 symmetry,xyz
 geometry={Sn};
 
 basis=aug-cc-pwCVTZ-PP
 
                                                                                 ! spherical anion orbitals (4S)
 {rhf; wf,nelec=23,sym=2,spin=3}
 
 NTRIP=11
 NSING=6
 
                                                                                 ! add 6p to active space
 {multi
     closed,6,3
     occ,7,9
     wf,nelec=22,sym=1,spin=2;state,NTRIP;
     wf,nelec=22,sym=1,spin=0;state,NSING;
     expec2,lxx,lyy,lzz;
 }
 table, energy, ll
 title, Energies and &lt;L**2&gt; values
 
 core,0,0
 
 {ci;wf,sym=1,spin=2;state,NTRIP; save,5201.2}
 hlsdiag = energd4
 {ci;wf,sym=1,spin=0;state,NSING; save,5101.2}
 hlsdiag(NTRIP+1) = energd4
 
 table,hlsdiag
 
 {ci;hlsmat,ecp,5201.2,5101.2;print,vls=0,hls=0}                                 !compute and diagonalize SO matrix
 Commands initialized (846), CPU time= 0.02 sec, 717 directives.
 Default parameters read. Elapsed time= 0.20 sec

 Checking input...
 Passed
1


                                         ***  PROGRAM SYSTEM MOLPRO  ***
                                       Copyright, TTI GmbH Stuttgart, 2015
                                    Version 2023.2 linked Fri Sep 22 03:27:09 2023


 **********************************************************************************************************************************
 LABEL *   Sn SO-CI                                                                                                                                                      
  (32 PROC) 64 bit mpp version                                                           DATE: 17-Apr-24          TIME: 17:10:15  
 **********************************************************************************************************************************

 SHA1:             3c61bfe44d37c8635c785372c339f5cbdd4e4b59
 **********************************************************************************************************************************

 Memory per process:      1500 MW
 Total memory per node:  18000 MW

 GA preallocation disabled
 GA check disabled

 Variable memory set to 1500.0 MW


 ZSYMEL=XYZ

 SETTING BASIS          =    AUG-CC-PWCVTZ-PP


 Recomputing integrals since basis changed


 Using spherical harmonics

 Library entry Sn   ECP ECP28MDF                 selected for group  1
 Library entry SN     S aug-cc-pwCVTZ-PP     selected for orbital group  1
 Library entry SN     P aug-cc-pwCVTZ-PP     selected for orbital group  1
 Library entry SN     D aug-cc-pwCVTZ-PP     selected for orbital group  1
 Library entry SN     F aug-cc-pwCVTZ-PP     selected for orbital group  1
 Library entry SN     G aug-cc-pwCVTZ-PP     selected for orbital group  1


 PROGRAM * SEWARD (Integral evaluation for generally contracted gaussian basis sets)     Author: Roland Lindh, 1990

 Geometry written to block  1 of record 700

 Orientation using atomic masses  
 Molecule type: Atom
 User-specified symmetry elements: XYZ
 Symmetry elements: XYZ
 Rotational constants:       0.0000000      0.0000000      0.0000000 GHz  (calculated with average atomic masses)

 Point group  Ci  



 ATOMIC COORDINATES

 NR  ATOM    CHARGE       X              Y              Z

   1  SN     22.00    0.000000000    0.000000000    0.000000000

 NUCLEAR CHARGE:                   22
 NUMBER OF PRIMITIVE AOS:         184
 NUMBER OF SYMMETRY AOS:          154
 NUMBER OF CONTRACTIONS:           96   (   47Ag  +   49Au  )
 NUMBER OF INNER CORE ORBITALS:     0   (    0Ag  +    0Au  )
 NUMBER OF OUTER CORE ORBITALS:     9   (    6Ag  +    3Au  )
 NUMBER OF VALENCE ORBITALS:        4   (    1Ag  +    3Au  )


 LX: Ag           LY: Ag           LZ: Ag 


 NUCLEAR REPULSION ENERGY    0.00000000

 EXTRA SYMMETRY OF AOS IN SYMMETRY 1:   1 1 1 1 1 1 1 1 2 3   4 5 6 2 3 4 5 6 2 3   4 5 6 2 3 4 5 6 2 3   4 5 6 2 3 4 5 6 7 8
                                        9101112131415
 EXTRA SYMMETRY OF AOS IN SYMMETRY 2:   1 2 3 1 2 3 1 2 3 1   2 3 1 2 3 1 2 3 1 2   3 4 5 6 7 8 910 4 5   6 7 8 910 4 5 6 7 8
                                        910 4 5 6 7 8 910


 Eigenvalues of metric

         1 0.165E-04 0.202E-02 0.972E-02 0.121E-01 0.121E-01 0.121E-01 0.121E-01 0.121E-01
         2 0.734E-02 0.734E-02 0.734E-02 0.218E-01 0.218E-01 0.218E-01 0.155E+00 0.155E+00


 Contracted 2-electron integrals neglected if value below      1.0D-12
 AO integral compression algorithm  1   Integral accuracy      1.0D-12

     17.039 MB (compressed) written to integral file ( 18.9%)

     Node minimum: 0.786 MB, node maximum: 2.097 MB


 NUMBER OF SORTED TWO-ELECTRON INTEGRALS:     461784.     BUFFER LENGTH:  32768
 NUMBER OF SEGMENTS:   1  SEGMENT LENGTH:     461784      RECORD LENGTH: 524288

 Memory used in sort:       1.02 MW

 SORT1 READ    11031004. AND WROTE       88744. INTEGRALS IN      1 RECORDS. CPU TIME:     0.06 SEC, REAL TIME:     0.06 SEC
 SORT2 READ     1100136. AND WROTE     5533081. INTEGRALS IN     60 RECORDS. CPU TIME:     0.02 SEC, REAL TIME:     0.02 SEC

 Node minimum:      459824.  Node maximum:      464237. integrals

 OPERATOR DM      FOR CENTER  0  COORDINATES:    0.000000    0.000000    0.000000


 **********************************************************************************************************************************
 DATASETS  * FILE   NREC   LENGTH (MB)   RECORD NAMES
              1      19       28.85       500      610      700      900      950      970     1000      129      960     1100   
                                          VAR    BASINP    GEOM    SYMINP    ZMAT    AOBASIS   BASIS     P2S    ABASIS      S 
                                         1400     1410     1420     1200     1210     1080     1700     1600     1650   
                                           T        V       ECP      H0       H01     AOSYM    OPER      SMH    MOLCAS    

 PROGRAMS   *        TOTAL       INT
 CPU TIMES  *         0.97      0.64
 REAL TIME  *         1.78 SEC
 DISK USED  *        29.19 MB (local),      406.61 MB (total)
 GA USED    *         0.00 MB       (max)       0.00 MB       (current)
 **********************************************************************************************************************************


 Program * Restricted Hartree-Fock

 Orbital guess generated from atomic densities. Full valence occupancy:    7   6

 Initial alpha occupancy:   7   6
 Initial beta  occupancy:   7   3

 NELEC=   23   SYM=2   MS2= 3   THRE=1.0D-08   THRD=3.2D-06   THRG=3.2D-06  HFMA2=F  DIIS_START=2   DIIS_MAX=10   DIIS_INCORE=F

 Level shifts:    0.00 (CLOSED)    0.00 (OPEN)    0.30 (GAP_MIN)

 ITER           ETOT              DE          GRAD        DDIFF     DIIS  NEXP   TIME(IT)  TIME(TOT)  DIAG
   1     -213.37042203    -213.37042203     0.00D+00     0.13D+00     0     0       0.00      0.00    start
   2     -213.37323440      -0.00281237     0.13D-02     0.43D-02     1     0       0.01      0.01    diag2
   3     -213.37353635      -0.00030194     0.73D-03     0.10D-02     2     0       0.00      0.01    diag2
   4     -213.37362630      -0.00008996     0.24D-03     0.83D-03     3     0       0.01      0.02    diag2
   5     -213.37363565      -0.00000935     0.63D-04     0.30D-03     4     0       0.00      0.02    diag2
   6     -213.37363625      -0.00000060     0.12D-04     0.95D-04     5     0       0.00      0.02    diag2
   7     -213.37363632      -0.00000007     0.31D-05     0.20D-04     6     0       0.01      0.03    diag2
   8     -213.37363633      -0.00000001     0.80D-06     0.12D-04     7     0       0.00      0.03    fixocc
   9     -213.37363633      -0.00000000     0.93D-07     0.15D-05     8     0       0.01      0.04    diag2
  10     -213.37363633      -0.00000000     0.15D-07     0.14D-06     0     0       0.00      0.04    diag/orth

 Final alpha occupancy:   7   6
 Final beta  occupancy:   7   3

 !RHF STATE 1.2 Energy               -213.373636325728
  RHF One-electron energy            -381.086680443691
  RHF Two-electron energy             167.713044117963
  RHF Kinetic energy                   82.648105638679
  RHF Nuclear energy                    0.000000000000
  RHF Virial quotient                  -2.581712365660

 !RHF STATE 1.2 Dipole moment           0.00000000     0.00000000     0.00000000
 Dipole moment /Debye                   0.00000000     0.00000000     0.00000000

 ELECTRON ORBITALS
 =================

  Orbital  Occupation    Energy    Cen Mu Typ  Coefficients
    1.1     2.00000    -5.62699     1  1  s    1.00568
    2.1     2.00000    -1.07683     1  1  d2-  0.84164    1  1  d2+ -0.53950
    3.1     2.00000    -1.07683     1  1  d2-  0.53912    1  1  d2+  0.84127
    4.1     2.00000    -1.07683     1  1  d1+  0.74591    1  1  d1-  0.66481
    5.1     2.00000    -1.07683     1  1  d1+ -0.66516    1  1  d1-  0.74632
    6.1     2.00000    -1.07683     1  1  d0   0.99973
    7.1     2.00000    -0.29333     1  2  s    0.97876
    1.2     2.00000    -3.81329     1  1  py   0.99986
    2.2     2.00000    -3.81329     1  1  px   0.99920
    3.2     2.00000    -3.81329     1  1  pz   0.99977
    4.2     1.00000    -0.05728     1  2  pz   0.79238
    5.2     1.00000    -0.05728     1  2  py   0.79241
    6.2     1.00000    -0.05728     1  2  px   0.79526


 HOMO      6.2    -0.057284 =      -1.5588eV
 LUMO      8.1     0.167568 =       4.5598eV
 LUMO-HOMO         0.224852 =       6.1185eV

 Orbitals saved in record  2100.2


 **********************************************************************************************************************************
 DATASETS  * FILE   NREC   LENGTH (MB)   RECORD NAMES
              1      19       28.85       500      610      700      900      950      970     1000      129      960     1100   
                                          VAR    BASINP    GEOM    SYMINP    ZMAT    AOBASIS   BASIS     P2S    ABASIS      S 
                                         1400     1410     1420     1200     1210     1080     1700     1600     1650   
                                           T        V       ECP      H0       H01     AOSYM    OPER      SMH    MOLCAS    

              2       4        0.53       700     1000      520     2100   
                                         GEOM     BASIS   MCVARS     RHF  

 PROGRAMS   *        TOTAL   RHF-SCF       INT
 CPU TIMES  *         1.07      0.10      0.64
 REAL TIME  *         2.29 SEC
 DISK USED  *        30.07 MB (local),      417.26 MB (total)
 GA USED    *         0.00 MB       (max)       0.00 MB       (current)
 **********************************************************************************************************************************
 SETTING NTRIP          =        11.00000000                                  
 SETTING NSING          =         6.00000000                                  

 PROGRAM * MULTI (Direct Multiconfiguration SCF)       Authors: P.J. Knowles, H.-J. Werner (1984)
                                                                D.A. Kreplin, P.J. Knowles, H.-J. Werner (2019)

 Number of closed-shell orbitals:   9 (    6    3)
 Number of active  orbitals:        7 (    1    6)
 Number of external orbitals:      80 (   40   40)

 State symmetry 1

 Number of active electrons:   4    Spin symmetry=Triplet   Space symmetry=1
 Number of states:            11
 Number of CSFs:             120   (135 determinants, 245 intermediate states)

 State symmetry 2

 Number of active electrons:   4    Spin symmetry=Singlet   Space symmetry=1
 Number of states:             6
 Number of CSFs:             126   (261 determinants, 441 intermediate states)

 Molecular orbitals read from record     2100.2  Type=RHF/CANONICAL  
 *** IN SYMMETRY 1 ORBITAL  2 SYMMETRY CONTAMINATION OF 0.394D+00 HAS BEEN REMOVED
 *** IN SYMMETRY 1 ORBITAL  3 SYMMETRY CONTAMINATION OF 0.410D+00 HAS BEEN REMOVED
 *** IN SYMMETRY 1 ORBITAL  4 SYMMETRY CONTAMINATION OF 0.488D+00 HAS BEEN REMOVED
 *** IN SYMMETRY 1 ORBITAL  5 SYMMETRY CONTAMINATION OF 0.473D+00 HAS BEEN REMOVED
 *** IN SYMMETRY 1 ORBITAL  6 SYMMETRY CONTAMINATION OF 0.257D-02 HAS BEEN REMOVED

 EXTRA SYMMETRY OF MOS IN SYMMETRY 1:   1 3 5 4 6 2 1 1 2 3   5 6 4 1 2 3 5 6 4 1   2 6 4 3 5 2 3 5 6 4   1 8121514131011 9 7
                                        2 6 4 5 3 1 1
 *** IN SYMMETRY 2 ORBITAL  1 SYMMETRY CONTAMINATION OF 0.334D-01 HAS BEEN REMOVED
 *** IN SYMMETRY 2 ORBITAL  2 SYMMETRY CONTAMINATION OF 0.658D-01 HAS BEEN REMOVED
 *** IN SYMMETRY 2 ORBITAL  3 SYMMETRY CONTAMINATION OF 0.368D-01 HAS BEEN REMOVED
 *** IN SYMMETRY 2 ORBITAL  4 SYMMETRY CONTAMINATION OF 0.871D-01 HAS BEEN REMOVED
 *** IN SYMMETRY 2 ORBITAL  5 SYMMETRY CONTAMINATION OF 0.787D-01 HAS BEEN REMOVED
 *** IN SYMMETRY 2 ORBITAL  6 SYMMETRY CONTAMINATION OF 0.106D-01 HAS BEEN REMOVED
 *** IN SYMMETRY 2 ORBITAL  7 SYMMETRY CONTAMINATION OF 0.377D-04 HAS BEEN REMOVED
 *** IN SYMMETRY 2 ORBITAL  9 SYMMETRY CONTAMINATION OF 0.377D-04 HAS BEEN REMOVED
 EXTRA SYMMETRY OF MOS IN SYMMETRY 2:   2 1 3 3 2 1 3 1 2 3   2 1 7 9 5 4 6 810 6   4 5 810 9 7 3 2 1 8  10 6 9 7 5 4 3 1 2 6
                                       10 8 9 7 4 5 3 2 1

 Wavefunction dump at record             2140.2

 Convergence thresholds  0.10E-04 (gradient)  0.10E-05 (energy)

 Weight factors for state symmetry  1:    0.05882   0.05882   0.05882   0.05882   0.05882   0.05882   0.05882   0.05882
                                          0.05882   0.05882   0.05882
 Weight factors for state symmetry  2:    0.05882   0.05882   0.05882   0.05882   0.05882   0.05882
 
 Number of orbital rotations:  664  ( 24 closed/active, 360 closed/virtual, 0 active/active, 280 active/virtual )
 Total number of variables:    3715
 
 Second-order MCSCF: L-BFGS accelerated
 
 ITER  MIC  NCI  NEG     ENERGY(VAR)    ENERGY(PROJ) ENERGY CHANGE       GRAD(0)  GRAD(ORB)   GRAD(CI)      STEP      TIME
   1    7   12    0   -213.21809291    -213.24540747   -0.02731457    0.14279716 0.00001406 0.00000000  0.55E+00      0.46
   2    7   12    0   -213.24455385    -213.24459897   -0.00004512    0.00756511 0.00000222 0.00000000  0.23E-01      0.94
   3    7   14    0   -213.24459905    -213.24459905   -0.00000000    0.00001948 0.00000001 0.00000000  0.68E-04      1.42
   4    2    4    0   -213.24459905    -213.24459905    0.00000000    0.00000001 0.00000001 0.00000000  0.26E-07      1.60

 CONVERGENCE REACHED!  Final gradient:    0.00000001 ( 0.62E-08)
                       Final energy:   -213.24459905
 
 Results for state 1.1 Triplet
 =============================
 !MCSCF STATE 1.1 Triplet Energy              -213.344047271323
 Nuclear energy                                  0.00000000
 Kinetic energy                                 82.74980519
 One electron energy                          -376.50060350
 Two electron energy                           163.15655623
 Virial ratio                                    3.57818187
 
 !MCSCF STATE 1.1 Triplet Dipole moment          0.00000000     0.00000000     0.00000000
 Dipole moment /Debye                            0.00000000     0.00000000     0.00000000
 
 Results for state 2.1 Triplet
 =============================
 !MCSCF STATE 2.1 Triplet Energy              -213.344047271046
 Nuclear energy                                  0.00000000
 Kinetic energy                                 82.74980519
 One electron energy                          -376.50060352
 Two electron energy                           163.15655625
 Virial ratio                                    3.57818187
 
 !MCSCF STATE 2.1 Triplet Dipole moment          0.00000000     0.00000000     0.00000000
 Dipole moment /Debye                            0.00000000     0.00000000     0.00000000
 
 Results for state 3.1 Triplet
 =============================
 !MCSCF STATE 3.1 Triplet Energy              -213.344047270812
 Nuclear energy                                  0.00000000
 Kinetic energy                                 82.74980520
 One electron energy                          -376.50060354
 Two electron energy                           163.15655627
 Virial ratio                                    3.57818187
 
 !MCSCF STATE 3.1 Triplet Dipole moment          0.00000000     0.00000000     0.00000000
 Dipole moment /Debye                            0.00000000     0.00000000     0.00000000
 
 Results for state 4.1 Triplet
 =============================
 !MCSCF STATE 4.1 Triplet Energy              -213.165001572140
 Nuclear energy                                  0.00000000
 Kinetic energy                                 82.32081527
 One electron energy                          -372.08182016
 Two electron energy                           158.91681859
 Virial ratio                                    3.58944230
 
 !MCSCF STATE 4.1 Triplet Dipole moment          0.00000000     0.00000000     0.00000000
 Dipole moment /Debye                            0.00000000     0.00000000     0.00000000
 
 Results for state 5.1 Triplet
 =============================
 !MCSCF STATE 5.1 Triplet Energy              -213.165001572113
 Nuclear energy                                  0.00000000
 Kinetic energy                                 82.32081527
 One electron energy                          -372.08182016
 Two electron energy                           158.91681859
 Virial ratio                                    3.58944230
 
 !MCSCF STATE 5.1 Triplet Dipole moment          0.00000000     0.00000000     0.00000000
 Dipole moment /Debye                            0.00000000     0.00000000     0.00000000
 
 Results for state 6.1 Triplet
 =============================
 !MCSCF STATE 6.1 Triplet Energy              -213.165001571967
 Nuclear energy                                  0.00000000
 Kinetic energy                                 82.32081526
 One electron energy                          -372.08182017
 Two electron energy                           158.91681860
 Virial ratio                                    3.58944230
 
 !MCSCF STATE 6.1 Triplet Dipole moment          0.00000000     0.00000000     0.00000000
 Dipole moment /Debye                            0.00000000     0.00000000     0.00000000
 
 Results for state 7.1 Triplet
 =============================
 !MCSCF STATE 7.1 Triplet Energy              -213.165001571803
 Nuclear energy                                  0.00000000
 Kinetic energy                                 82.32081526
 One electron energy                          -372.08182017
 Two electron energy                           158.91681860
 Virial ratio                                    3.58944230
 
 !MCSCF STATE 7.1 Triplet Dipole moment          0.00000000     0.00000000     0.00000000
 Dipole moment /Debye                            0.00000000     0.00000000     0.00000000
 
 Results for state 8.1 Triplet
 =============================
 !MCSCF STATE 8.1 Triplet Energy              -213.165001571782
 Nuclear energy                                  0.00000000
 Kinetic energy                                 82.32081526
 One electron energy                          -372.08182017
 Two electron energy                           158.91681860
 Virial ratio                                    3.58944230
 
 !MCSCF STATE 8.1 Triplet Dipole moment          0.00000000     0.00000000     0.00000000
 Dipole moment /Debye                            0.00000000     0.00000000     0.00000000
 
 Results for state 9.1 Triplet
 =============================
 !MCSCF STATE 9.1 Triplet Energy              -213.157935878560
 Nuclear energy                                  0.00000000
 Kinetic energy                                 82.41916785
 One electron energy                          -372.58166493
 Two electron energy                           159.42372905
 Virial ratio                                    3.58626654
 
 !MCSCF STATE 9.1 Triplet Dipole moment          0.00000000     0.00000000     0.00000000
 Dipole moment /Debye                            0.00000000     0.00000000     0.00000000
 
 Results for state 10.1 Triplet
 ==============================
 !MCSCF STATE 10.1 Triplet Energy             -213.157935878332
 Nuclear energy                                  0.00000000
 Kinetic energy                                 82.41916785
 One electron energy                          -372.58166494
 Two electron energy                           159.42372906
 Virial ratio                                    3.58626654
 
 !MCSCF STATE 10.1 Triplet Dipole moment         0.00000000     0.00000000     0.00000000
 Dipole moment /Debye                            0.00000000     0.00000000     0.00000000
 
 Results for state 11.1 Triplet
 ==============================
 !MCSCF STATE 11.1 Triplet Energy             -213.157935878122
 Nuclear energy                                  0.00000000
 Kinetic energy                                 82.41916785
 One electron energy                          -372.58166494
 Two electron energy                           159.42372906
 Virial ratio                                    3.58626654
 
 !MCSCF STATE 11.1 Triplet Dipole moment         0.00000000     0.00000000     0.00000000
 Dipole moment /Debye                            0.00000000     0.00000000     0.00000000
 
 Results for state 1.1 Singlet
 =============================
 !MCSCF STATE 1.1 Singlet Energy              -213.309417384751
 Nuclear energy                                  0.00000000
 Kinetic energy                                 82.70088671
 One electron energy                          -376.21896415
 Two electron energy                           162.90954676
 Virial ratio                                    3.57928815
 
 !MCSCF STATE 1.1 Singlet Dipole moment          0.00000000     0.00000000     0.00000000
 Dipole moment /Debye                            0.00000000     0.00000000     0.00000000
 
 Results for state 2.1 Singlet
 =============================
 !MCSCF STATE 2.1 Singlet Energy              -213.309417384710
 Nuclear energy                                  0.00000000
 Kinetic energy                                 82.70088671
 One electron energy                          -376.21896415
 Two electron energy                           162.90954677
 Virial ratio                                    3.57928815
 
 !MCSCF STATE 2.1 Singlet Dipole moment          0.00000000     0.00000000     0.00000000
 Dipole moment /Debye                            0.00000000     0.00000000     0.00000000
 
 Results for state 3.1 Singlet
 =============================
 !MCSCF STATE 3.1 Singlet Energy              -213.309417384368
 Nuclear energy                                  0.00000000
 Kinetic energy                                 82.70088671
 One electron energy                          -376.21896417
 Two electron energy                           162.90954679
 Virial ratio                                    3.57928815
 
 !MCSCF STATE 3.1 Singlet Dipole moment          0.00000000     0.00000000     0.00000000
 Dipole moment /Debye                            0.00000000     0.00000000     0.00000000
 
 Results for state 4.1 Singlet
 =============================
 !MCSCF STATE 4.1 Singlet Energy              -213.309417384074
 Nuclear energy                                  0.00000000
 Kinetic energy                                 82.70088672
 One electron energy                          -376.21896419
 Two electron energy                           162.90954681
 Virial ratio                                    3.57928815
 
 !MCSCF STATE 4.1 Singlet Dipole moment          0.00000000     0.00000000     0.00000000
 Dipole moment /Debye                            0.00000000     0.00000000     0.00000000
 
 Results for state 5.1 Singlet
 =============================
 !MCSCF STATE 5.1 Singlet Energy              -213.309417384017
 Nuclear energy                                  0.00000000
 Kinetic energy                                 82.70088672
 One electron energy                          -376.21896420
 Two electron energy                           162.90954681
 Virial ratio                                    3.57928815
 
 !MCSCF STATE 5.1 Singlet Dipole moment          0.00000000     0.00000000     0.00000000
 Dipole moment /Debye                            0.00000000     0.00000000     0.00000000
 
 Results for state 6.1 Singlet
 =============================
 !MCSCF STATE 6.1 Singlet Energy              -213.280139576973
 Nuclear energy                                  0.00000000
 Kinetic energy                                 82.64957065
 One electron energy                          -375.84597630
 Two electron energy                           162.56583673
 Virial ratio                                    3.58053536
 
 !MCSCF STATE 6.1 Singlet Dipole moment          0.00000000     0.00000000     0.00000000
 Dipole moment /Debye                            0.00000000     0.00000000     0.00000000
 
 State-averaged charge density matrix saved on record 2140.2 (density set 1)
 
 No non-zero expectation values
 
 Expectation values for two-electron operators:
 
 ? Warning
 ? Transition properties are only calculated between states of the same symmetry
 ? The problem occurs in mu_properties_expec2

 !MCSCF expec      <1.1 Triplet|LXLX|1.1 Triplet>     1.000000000000
 !MCSCF expec      <2.1 Triplet|LXLX|2.1 Triplet>     0.999999999997
 !MCSCF expec      <3.1 Triplet|LXLX|3.1 Triplet>     0.000000000000
 !MCSCF expec      <4.1 Triplet|LXLX|4.1 Triplet>     3.700063750660
 !MCSCF expec      <5.1 Triplet|LXLX|5.1 Triplet>     3.999999998536
 !MCSCF expec      <6.1 Triplet|LXLX|6.1 Triplet>     1.000000002969
 !MCSCF expec      <7.1 Triplet|LXLX|7.1 Triplet>     1.000000000000
 !MCSCF expec      <8.1 Triplet|LXLX|8.1 Triplet>     0.299929167641
 !MCSCF expec      <9.1 Triplet|LXLX|9.1 Triplet>     0.000000000573
 !MCSCF expec    <10.1 Triplet|LXLX|10.1 Triplet>     0.999999999513
 !MCSCF expec    <11.1 Triplet|LXLX|11.1 Triplet>     1.000000000000
 !MCSCF expec      <1.1 Singlet|LXLX|1.1 Singlet>     0.313172356604
 !MCSCF expec      <2.1 Singlet|LXLX|2.1 Singlet>     1.000000000000
 !MCSCF expec      <3.1 Singlet|LXLX|3.1 Singlet>     1.000000000157
 !MCSCF expec      <4.1 Singlet|LXLX|4.1 Singlet>     3.999999999728
 !MCSCF expec      <5.1 Singlet|LXLX|5.1 Singlet>     3.686829141223
 !MCSCF expec      <6.1 Singlet|LXLX|6.1 Singlet>    -0.000000000000
 
 !MCSCF expec      <1.1 Triplet|LYLY|1.1 Triplet>    -0.000000000000
 !MCSCF expec      <2.1 Triplet|LYLY|2.1 Triplet>     1.000000000000
 !MCSCF expec      <3.1 Triplet|LYLY|3.1 Triplet>     1.000000000000
 !MCSCF expec      <4.1 Triplet|LYLY|4.1 Triplet>     0.237642847345
 !MCSCF expec      <5.1 Triplet|LYLY|5.1 Triplet>     0.999999999262
 !MCSCF expec      <6.1 Triplet|LYLY|6.1 Triplet>     0.999999999827
 !MCSCF expec      <7.1 Triplet|LYLY|7.1 Triplet>     4.000000000000
 !MCSCF expec      <8.1 Triplet|LYLY|8.1 Triplet>     3.762350807343
 !MCSCF expec      <9.1 Triplet|LYLY|9.1 Triplet>     1.000000000000
 !MCSCF expec    <10.1 Triplet|LYLY|10.1 Triplet>     1.000000000000
 !MCSCF expec    <11.1 Triplet|LYLY|11.1 Triplet>    -0.000000000000
 !MCSCF expec      <1.1 Singlet|LYLY|1.1 Singlet>     3.773983204434
 !MCSCF expec      <2.1 Singlet|LYLY|2.1 Singlet>     4.000000000000
 !MCSCF expec      <3.1 Singlet|LYLY|3.1 Singlet>     1.000000000010
 !MCSCF expec      <4.1 Singlet|LYLY|4.1 Singlet>     0.999999999864
 !MCSCF expec      <5.1 Singlet|LYLY|5.1 Singlet>     0.226018082959
 !MCSCF expec      <6.1 Singlet|LYLY|6.1 Singlet>    -0.000000000000
 
 !MCSCF expec      <1.1 Triplet|LZLZ|1.1 Triplet>     1.000000000000
 !MCSCF expec      <2.1 Triplet|LZLZ|2.1 Triplet>     0.000000000003
 !MCSCF expec      <3.1 Triplet|LZLZ|3.1 Triplet>     1.000000000000
 !MCSCF expec      <4.1 Triplet|LZLZ|4.1 Triplet>     2.062293401995
 !MCSCF expec      <5.1 Triplet|LZLZ|5.1 Triplet>     1.000000002202
 !MCSCF expec      <6.1 Triplet|LZLZ|6.1 Triplet>     3.999999997204
 !MCSCF expec      <7.1 Triplet|LZLZ|7.1 Triplet>     1.000000000000
 !MCSCF expec      <8.1 Triplet|LZLZ|8.1 Triplet>     1.937720025016
 !MCSCF expec      <9.1 Triplet|LZLZ|9.1 Triplet>     0.999999999427
 !MCSCF expec    <10.1 Triplet|LZLZ|10.1 Triplet>     0.000000000487
 !MCSCF expec    <11.1 Triplet|LZLZ|11.1 Triplet>     1.000000000000
 !MCSCF expec      <1.1 Singlet|LZLZ|1.1 Singlet>     1.912844438962
 !MCSCF expec      <2.1 Singlet|LZLZ|2.1 Singlet>     1.000000000000
 !MCSCF expec      <3.1 Singlet|LZLZ|3.1 Singlet>     3.999999999833
 !MCSCF expec      <4.1 Singlet|LZLZ|4.1 Singlet>     1.000000000408
 !MCSCF expec      <5.1 Singlet|LZLZ|5.1 Singlet>     2.087152775818
 !MCSCF expec      <6.1 Singlet|LZLZ|6.1 Singlet>    -0.000000000000
 
 !MCSCF expec      <1.1 Triplet|L**2|1.1 Triplet>     2.000000000000
 !MCSCF expec      <2.1 Triplet|L**2|2.1 Triplet>     2.000000000000
 !MCSCF expec      <3.1 Triplet|L**2|3.1 Triplet>     2.000000000000
 !MCSCF expec      <4.1 Triplet|L**2|4.1 Triplet>     6.000000000000
 !MCSCF expec      <5.1 Triplet|L**2|5.1 Triplet>     6.000000000000
 !MCSCF expec      <6.1 Triplet|L**2|6.1 Triplet>     6.000000000000
 !MCSCF expec      <7.1 Triplet|L**2|7.1 Triplet>     6.000000000000
 !MCSCF expec      <8.1 Triplet|L**2|8.1 Triplet>     6.000000000000
 !MCSCF expec      <9.1 Triplet|L**2|9.1 Triplet>     2.000000000000
 !MCSCF expec    <10.1 Triplet|L**2|10.1 Triplet>     2.000000000000
 !MCSCF expec    <11.1 Triplet|L**2|11.1 Triplet>     2.000000000000
 !MCSCF expec      <1.1 Singlet|L**2|1.1 Singlet>     6.000000000000
 !MCSCF expec      <2.1 Singlet|L**2|2.1 Singlet>     6.000000000000
 !MCSCF expec      <3.1 Singlet|L**2|3.1 Singlet>     6.000000000000
 !MCSCF expec      <4.1 Singlet|L**2|4.1 Singlet>     6.000000000000
 !MCSCF expec      <5.1 Singlet|L**2|5.1 Singlet>     6.000000000000
 !MCSCF expec      <6.1 Singlet|L**2|6.1 Singlet>    -0.000000000000
 
 EXTRA SYMMETRY OF MOS IN SYMMETRY 1:   1 2 4 6 3 5 1 1 2 6   4 3 5 1 2 6 4 3 5 1   2 6 4 3 5 2 4 6 3 5   1 7 911 81214151310
                                        2 4 6 5 3 1 1
 EXTRA SYMMETRY OF MOS IN SYMMETRY 2:   3 1 2 2 1 3 1 2 3 3   1 2 6 5 4 810 7 9 6   4 5 810 7 9 3 2 1 6   4 5 810 7 9 3 1 2 6
                                        4 5 810 7 9 3 1 2
 
  NATURAL ORBITALS (STATE AVERAGED)
  =================================

  Orbital  Occupation    Energy    Cen Mu Typ  Coefficients
    1.1     2.00000    -5.93672     1  1  s    1.00415
    2.1     2.00000    -1.38622     1  1  d0   1.00073
    3.1     2.00000    -1.38622     1  1  d1+  1.00073
    4.1     2.00000    -1.38622     1  1  d1-  1.00073
    5.1     2.00000    -1.38622     1  1  d2-  1.00073
    6.1     2.00000    -1.38622     1  1  d2+  1.00073
    7.1     1.95568    -0.56215     1  2  s    1.05560
    1.2     2.00000    -4.12248     1  1  pz   0.99968
    2.2     2.00000    -4.12248     1  1  px   0.99968
    3.2     2.00000    -4.12248     1  1  py   0.99968
    4.2     0.52135    -0.10171     1  2  py   1.04666
    5.2     0.52135    -0.10171     1  2  px   1.04666
    6.2     0.52135    -0.10171     1  2  pz   1.04666
    7.2     0.16008     0.05072     1  2  px  -0.47618    1  7  px   1.22712
    8.2     0.16008     0.05072     1  2  py  -0.47618    1  7  py   1.22712
    9.2     0.16008     0.05072     1  2  pz  -0.47618    1  7  pz   1.22712
 
 Natural orbital dump (state averaged) at molpro section 2140.2 (Orbital set 2)
 
 Transform the CI vectors
 
 CI Coefficients of symmetry 1 (Triplet)
 =======================================

 State:              1               2               3               4               5               6               7
 2 a0a000      -0.00000000     -0.00000160      0.99166862      0.00000000      0.00000001     -0.00000000      0.00000000
 2 0aa000       0.99166862     -0.00000000      0.00000000      0.00000000      0.00000000     -0.00000000      0.00000001
 2 aa0000       0.00000000      0.99166862      0.00000160     -0.00000000     -0.00000000     -0.00000000      0.00000000
 2 a000a0       0.00000000      0.00000000     -0.00000000      0.78181879     -0.00011098     -0.00001639     -0.00000002
 2 0a0a00      -0.00000000      0.00000000     -0.00000000     -0.22074483      0.00002908      0.00000192      0.00000001
 2 0a00a0      -0.00000000     -0.00968099     -0.00000002      0.00001530      0.00001442      0.69813068      0.00000028
 2 0a000a       0.00968098     -0.00000000     -0.00000000      0.00000002     -0.00000001     -0.00000028      0.69813068
 2 00a0a0      -0.00000000      0.00000002     -0.00968099      0.00009964      0.69813067     -0.00001442      0.00000001
 2 00aa00      -0.00968099     -0.00000000     -0.00000000      0.00000002     -0.00000001     -0.00000028      0.69813066
 2 a0000a      -0.00000000     -0.00000002      0.00968098      0.00009964      0.69813066     -0.00001442      0.00000001
 2 a00a00       0.00000000      0.00968099      0.00000002      0.00001530      0.00001442      0.69813065      0.00000028
 2 00a00a      -0.00000000     -0.00000000     -0.00000000     -0.56107392      0.00008189      0.00001447      0.00000002
 2 0000aa       0.00000000      0.00000003     -0.01939842      0.00000000      0.00000001     -0.00000000     -0.00000000
 2 000a0a      -0.01939842     -0.00000000      0.00000000      0.00000000      0.00000000     -0.00000000      0.00000001
 2 000aa0       0.00000000      0.01939842      0.00000003     -0.00000000     -0.00000000     -0.00000000      0.00000000
 0 2aa000      -0.11544737      0.00000000      0.00000000      0.00000000      0.00000000      0.00000000     -0.00000000
 0 a2a000       0.00000000      0.00000019     -0.11544737     -0.00000000     -0.00000000      0.00000000      0.00000000
 0 aa2000      -0.00000000     -0.11544737     -0.00000019      0.00000000      0.00000000      0.00000000     -0.00000000
 0 a200a0       0.00000000     -0.00000000      0.00000000     -0.08444110      0.00001199      0.00000177      0.00000000
 0 a020a0      -0.00000000     -0.00000000     -0.00000000     -0.08407414      0.00001193      0.00000176      0.00000000
 0 2a0a00      -0.00000000     -0.00000000      0.00000000      0.02306596     -0.00000303     -0.00000019     -0.00000000
 0 0a2a00       0.00000000      0.00000000     -0.00000000      0.02451395     -0.00000324     -0.00000022     -0.00000000
 0 20aa00      -0.00093531      0.00000000     -0.00000000     -0.00000000      0.00000000      0.00000003     -0.07561483
 0 a02a00      -0.00000000      0.00093531      0.00000000     -0.00000166     -0.00000156     -0.07561482     -0.00000003
 0 a2000a       0.00000000     -0.00000000      0.00093531     -0.00001079     -0.07561482      0.00000156     -0.00000000
 0 2a000a       0.00093531      0.00000000      0.00000000     -0.00000000      0.00000000      0.00000003     -0.07561483
 0 02a0a0       0.00000000      0.00000000     -0.00093531     -0.00001079     -0.07561483      0.00000156     -0.00000000
 0 0a20a0       0.00000000     -0.00093531     -0.00000000     -0.00000166     -0.00000156     -0.07561483     -0.00000003
 0 2a00a0      -0.00000000      0.02469030      0.00000004     -0.00000164     -0.00000155     -0.07486206     -0.00000003
 0 0a200a      -0.02469030     -0.00000000     -0.00000000     -0.00000000      0.00000000      0.00000003     -0.07486206
 0 20a0a0      -0.00000000     -0.00000004      0.02469030     -0.00001069     -0.07486206      0.00000155     -0.00000000
 0 02aa00       0.02469030      0.00000000      0.00000000     -0.00000000      0.00000000      0.00000003     -0.07486206
 0 a0200a       0.00000000      0.00000004     -0.02469030     -0.00001069     -0.07486206      0.00000155     -0.00000000
 0 a20a00      -0.00000000     -0.02469030     -0.00000004     -0.00000164     -0.00000155     -0.07486206     -0.00000003
 0 20a00a       0.00000000     -0.00000000     -0.00000000      0.05992715     -0.00000875     -0.00000155     -0.00000000
 0 02a00a       0.00000000      0.00000000      0.00000000      0.06100817     -0.00000890     -0.00000157     -0.00000000
 
 Energy:     -213.34404727   -213.34404727   -213.34404727   -213.16500157   -213.16500157   -213.16500157   -213.16500157

 State:              8               9              10              11
 2 a0a000       0.00000000     -0.01880141     -0.00000045      0.00000000
 2 0aa000       0.00000000     -0.00000000     -0.00000000     -0.01880141
 2 aa0000      -0.00000000      0.00000045     -0.01880142      0.00000000
 2 a000a0      -0.19648911     -0.00000000      0.00000000     -0.00000000
 2 0a0a00       0.77531946     -0.00000000      0.00000000      0.00000000
 2 0a00a0       0.00000262      0.00001657     -0.69246988      0.00000016
 2 0a000a       0.00000000      0.00000001      0.00000016      0.69246989
 2 00a0a0       0.00000218     -0.69246989     -0.00001657      0.00000001
 2 00aa00       0.00000000     -0.00000001     -0.00000016     -0.69246990
 2 a0000a       0.00000218      0.69246990      0.00001657     -0.00000001
 2 a00a00       0.00000262     -0.00001657      0.69246991     -0.00000016
 2 00a00a      -0.57883040     -0.00000000      0.00000000     -0.00000000
 2 0000aa      -0.00000000     -0.12824635     -0.00000307      0.00000000
 2 000a0a      -0.00000000     -0.00000000     -0.00000003     -0.12824635
 2 000aa0      -0.00000000     -0.00000307      0.12824635     -0.00000003
 0 2aa000       0.00000000      0.00000000      0.00000000      0.00751736
 0 a2a000      -0.00000000      0.00751736      0.00000018     -0.00000000
 0 aa2000      -0.00000000     -0.00000018      0.00751736     -0.00000000
 0 a200a0       0.02044582      0.00000000     -0.00000000      0.00000000
 0 a020a0       0.02190595      0.00000000     -0.00000000      0.00000000
 0 2a0a00      -0.08376331      0.00000000     -0.00000000     -0.00000000
 0 0a2a00      -0.08335105      0.00000000     -0.00000000     -0.00000000
 0 20aa00      -0.00000000      0.00000000      0.00000002      0.07562020
 0 a02a00      -0.00000028      0.00000181     -0.07562020      0.00000002
 0 a2000a      -0.00000024     -0.07562020     -0.00000181      0.00000000
 0 2a000a      -0.00000000     -0.00000000     -0.00000002     -0.07562019
 0 02a0a0      -0.00000024      0.07562019      0.00000181     -0.00000000
 0 0a20a0      -0.00000028     -0.00000181      0.07562019     -0.00000002
 0 2a00a0      -0.00000028     -0.00000174      0.07250366     -0.00000002
 0 0a200a      -0.00000000     -0.00000000     -0.00000002     -0.07250366
 0 20a0a0      -0.00000023      0.07250366      0.00000174     -0.00000000
 0 02aa00      -0.00000000      0.00000000      0.00000002      0.07250366
 0 a0200a      -0.00000023     -0.07250366     -0.00000174      0.00000000
 0 a20a00      -0.00000028      0.00000174     -0.07250366      0.00000002
 0 20a00a       0.06290523      0.00000000     -0.00000000      0.00000000
 0 02a00a       0.06185737      0.00000000     -0.00000000      0.00000000
 
 Energy:     -213.16500157   -213.15793588   -213.15793588   -213.15793588
 
 
 CI Coefficients of symmetry 1 (Singlet)
 =======================================
 
 2 200000      -0.19176760     -0.00000050      0.00000052      0.00000915      0.78361883      0.55701676
 2 020000       0.77451763      0.00000201     -0.00000091     -0.00000325     -0.22573381      0.55701674
 2 0ab000      -0.00000181      0.69865941      0.00000000     -0.00000000      0.00000000      0.00000000
 2 0ba000       0.00000181     -0.69865941     -0.00000000      0.00000000     -0.00000000     -0.00000000
 2 b0a000      -0.00000060     -0.00000000     -0.00000505     -0.69865941      0.00000801     -0.00000000
 2 a0b000       0.00000060      0.00000000      0.00000505      0.69865941     -0.00000801      0.00000000
 2 ab0000       0.00000074      0.00000000      0.69865941     -0.00000505     -0.00000028     -0.00000000
 2 ba0000      -0.00000074     -0.00000000     -0.69865941      0.00000505      0.00000028      0.00000000
 2 002000      -0.58275001     -0.00000151      0.00000039     -0.00000590     -0.55788504      0.55701675
 0 202000       0.08992957      0.00000023     -0.00000011     -0.00000038     -0.02621005     -0.12449201
 0 220000      -0.06766336     -0.00000018      0.00000005     -0.00000069     -0.06477627     -0.12449201
 0 022000      -0.02226622     -0.00000006      0.00000006      0.00000106      0.09098632     -0.12449201
 0 2ba000      -0.00000021      0.08112164      0.00000000     -0.00000000     -0.00000000     -0.00000000
 0 2ab000       0.00000021     -0.08112164     -0.00000000      0.00000000      0.00000000      0.00000000
 0 a2b000      -0.00000007     -0.00000000     -0.00000059     -0.08112164      0.00000093     -0.00000000
 0 b2a000       0.00000007      0.00000000      0.00000059      0.08112164     -0.00000093      0.00000000
 0 ba2000       0.00000009      0.00000000      0.08112164     -0.00000059     -0.00000003     -0.00000000
 0 ab2000      -0.00000009     -0.00000000     -0.08112164      0.00000059      0.00000003      0.00000000
 2 a000b0      -0.01075187     -0.00000003      0.00000003      0.00000051      0.04393531      0.05667239
 2 b000a0       0.01075187      0.00000003     -0.00000003     -0.00000051     -0.04393531     -0.05667239
 2 0a0b00       0.04342503      0.00000011     -0.00000005     -0.00000018     -0.01265626      0.05667239
 2 0b0a00      -0.04342503     -0.00000011      0.00000005      0.00000018      0.01265626     -0.05667239
 2 00a00b      -0.03267315     -0.00000008      0.00000002     -0.00000033     -0.03127904      0.05667239
 2 00b00a       0.03267315      0.00000008     -0.00000002      0.00000033      0.03127904     -0.05667239
 
 Energy:     -213.30941738   -213.30941738   -213.30941738   -213.30941738   -213.30941738   -213.28013958
 


 **********************************************************************************************************************************
 DATASETS  * FILE   NREC   LENGTH (MB)   RECORD NAMES
              1      21       36.28       500      610      700      900      950      970     1000      129      960     1100   
                                          VAR    BASINP    GEOM    SYMINP    ZMAT    AOBASIS   BASIS     P2S    ABASIS      S 
                                         1400     1410     1420     1200     1210     1080     1700     1600     1650     1380   
                                           T        V       ECP      H0       H01     AOSYM    OPER      SMH    MOLCAS    JKOP   
                                         1700(1)
                                         OPER   

              2       5        0.79       700     1000      520     2100     2140   
                                         GEOM     BASIS   MCVARS     RHF     MCSCF   

 PROGRAMS   *        TOTAL     MULTI   RHF-SCF       INT
 CPU TIMES  *         2.69      1.61      0.10      0.64
 REAL TIME  *         4.17 SEC
 DISK USED  *        37.16 MB (local),      502.25 MB (total)
 SF USED    *        19.55 MB
 GA USED    *         0.00 MB       (max)       0.00 MB       (current)
 **********************************************************************************************************************************

 Energies and &lt;L**2&gt; values

         ENERGY     LL
    -213.3440473   2.0
    -213.3440473   2.0
    -213.3440473   2.0
    -213.1650016   6.0
    -213.1650016   6.0
    -213.1650016   6.0
    -213.1650016   6.0
    -213.1650016   6.0
    -213.1579359   2.0
    -213.1579359   2.0
    -213.1579359   2.0
    -213.3094174   6.0
    -213.3094174   6.0
    -213.3094174   6.0
    -213.3094174   6.0
    -213.3094174   6.0
    -213.2801396  -0.0
                                                  


 PROGRAM * CI (Multireference internally contracted CI)     Authors: H.-J. Werner, P.J. Knowles, 1987


 Convergence thresholds:  THRVAR = 1.00D-08  THRDEN = 1.00D-06

 Number of optimized states: 11  Roots:   1   2   3   4   5   6   7   8   9  10  11
 Number of reference states: 11  Roots:   1   2   3   4   5   6   7   8   9  10  11

 Reference symmetry:                   1   Triplet 
 Number of electrons:                 22
 Maximum number of shells:             5
 Maximum number of spin couplings:    90

 Reference space:       90 conf      120 CSFs
 N elec internal:    18284 conf    76944 CSFs
 N-1 el internal:    12821 conf    88545 CSFs
 N-2 el internal:     4717 conf    46537 CSFs

 Number of electrons in valence space:                     22
 Maximum number of open shell orbitals in reference space:  4
 Maximum number of open shell orbitals in internal spaces: 10


 Number of closed-shell orbitals:   9 (   6   3 )
 Number of active  orbitals:        7 (   1   6 )
 Number of external orbitals:      80 (  40  40 )

 Molecular orbitals read from record     2140.2  Type=MCSCF/NATURAL (state averaged)

 Valence orbitals related to previous ones by unitary transformation. Operators transformed.


 Number of p-space configurations:  15

 Reference wavefunction optimized for reference space (refopt=1)

 State     Reference Energy 
     1      -213.34404727
     2      -213.34404727
     3      -213.34404727
     4      -213.16500157
     5      -213.16500157
     6      -213.16500157
     7      -213.16500157
     8      -213.16500157
     9      -213.15793588
    10      -213.15793588
    11      -213.15793588

 ?WARNING: SMALL EIGENVALUE OF PAIR OVERLAP MATRIX:  0.2546D-06

 Number of blocks in overlap matrix:  1041   Smallest eigenvalue:  0.25D-06
 Number of N-2 electron functions:    2340
 Number of N-1 electron functions:   88545

 Number of internal configurations:                38406
 Number of singly external configurations:       3541800
 Number of doubly external configurations:       3747120
 Total number of contracted configurations:      7327326
 Total number of uncontracted configurations:   77703006

 Diagonal Coupling coefficients finished.               Storage:  24116837 words, CPU-Time:     68.49 seconds.
 Energy denominators for pairs finished in 1 passes.    Storage:   1299136 words, CPU-time:      0.17 seconds.

  ITER. STATE  ROOT     SQ.NORM     CORR.ENERGY   TOTAL ENERGY   ENERGY CHANGE       DEN1      VAR(S)    VAR(P)      TIME
    1     1     1     1.00000000     0.00000000  -213.34404727     0.00000000    -0.83241206  0.49D-01  0.10D+00    83.64
    1     2     2     1.00000000     0.00000000  -213.34404727     0.00000000    -0.83253962  0.50D-01  0.10D+00    83.64
    1     3     3     1.00000000     0.00000000  -213.34404727     0.00000000    -0.83256762  0.50D-01  0.10D+00    83.64
    1     4     4     1.00000000     0.00000000  -213.16500157     0.00000000    -0.79999463  0.40D-01  0.94D-01    83.64
    1     5     5     1.00000000     0.00000000  -213.16500157     0.00000000    -0.79974301  0.40D-01  0.94D-01    83.64
    1     6     6     1.00000000     0.00000000  -213.16500157     0.00000000    -0.79981157  0.40D-01  0.94D-01    83.64
    1     7     7     1.00000000     0.00000000  -213.16500157     0.00000000    -0.79971821  0.40D-01  0.94D-01    83.64
    1     8     8     1.00000000     0.00000000  -213.16500157     0.00000000    -0.80002628  0.40D-01  0.94D-01    83.64
    1     9     9     1.00000000     0.00000000  -213.15793588     0.00000000    -0.80628648  0.45D-01  0.95D-01    83.64
    1    10    10     1.00000000     0.00000000  -213.15793588     0.00000000    -0.80643464  0.45D-01  0.95D-01    83.64
    1    11    11     1.00000000     0.00000000  -213.15793588     0.00000000    -0.80626071  0.45D-01  0.95D-01    83.64
    2     1     1     1.09417422    -0.65498097  -213.99902824    -0.65498097    -0.01876444  0.36D-02  0.14D-02   416.87
    2     2     2     1.09431686    -0.65488844  -213.99893571    -0.65488844    -0.01886372  0.37D-02  0.14D-02   416.87
    2     3     3     1.09441489    -0.65473609  -213.99878336    -0.65473609    -0.01902862  0.38D-02  0.14D-02   416.87
    2     4     4     1.08639054    -0.64487421  -213.80987579    -0.64487421    -0.01526868  0.25D-02  0.10D-02   416.87
    2     5     5     1.08629895    -0.64485510  -213.80985667    -0.64485510    -0.01529383  0.25D-02  0.11D-02   416.87
    2     6     6     1.08632459    -0.64483685  -213.80983842    -0.64483685    -0.01531357  0.25D-02  0.11D-02   416.87
    2     7     7     1.08637511    -0.64481251  -213.80981409    -0.64481251    -0.01533905  0.25D-02  0.11D-02   416.87
    2     8     8     1.08650170    -0.64480764  -213.80980921    -0.64480764    -0.01533872  0.25D-02  0.10D-02   416.87
    2     9     9     1.08879149    -0.64562477  -213.80356065    -0.64562477    -0.01654903  0.33D-02  0.11D-02   416.87
    2    10    10     1.08881877    -0.64560482  -213.80354070    -0.64560482    -0.01657167  0.33D-02  0.11D-02   416.87
    2    11    11     1.08889701    -0.64558127  -213.80351715    -0.64558127    -0.01659696  0.33D-02  0.11D-02   416.87
    3     1     1     1.08340090    -0.67283004  -214.01687732    -0.01784907    -0.00046870  0.68D-04  0.51D-04   749.03
    3     2     2     1.08340232    -0.67282590  -214.01687317    -0.01793746    -0.00047269  0.69D-04  0.51D-04   749.03
    3     3     3     1.08336357    -0.67282512  -214.01687239    -0.01808903    -0.00047348  0.69D-04  0.50D-04   749.03
    3     4     4     1.07978965    -0.65955143  -213.82455301    -0.01467722    -0.00031766  0.35D-04  0.32D-04   749.03
    3     5     5     1.07978854    -0.65955086  -213.82455243    -0.01469575    -0.00031829  0.35D-04  0.32D-04   749.03
    3     6     6     1.07978849    -0.65954974  -213.82455131    -0.01471289    -0.00031935  0.35D-04  0.32D-04   749.03
    3     7     7     1.07981395    -0.65954937  -213.82455094    -0.01473686    -0.00031986  0.35D-04  0.33D-04   749.03
    3     8     8     1.07981162    -0.65954668  -213.82454825    -0.01473904    -0.00032253  0.36D-04  0.33D-04   749.03
    3     9     9     1.08032389    -0.66146905  -213.81940493    -0.01584429    -0.00037411  0.52D-04  0.38D-04   749.03
    3    10    10     1.08032251    -0.66146836  -213.81940424    -0.01586354    -0.00037485  0.52D-04  0.38D-04   749.03
    3    11    11     1.08033040    -0.66146668  -213.81940255    -0.01588541    -0.00037643  0.52D-04  0.39D-04   749.03
    4     1     1     1.08323857    -0.67331219  -214.01735946    -0.00048215    -0.00001976  0.32D-05  0.24D-05  1082.54
    4     2     2     1.08323988    -0.67331216  -214.01735944    -0.00048627    -0.00001980  0.32D-05  0.24D-05  1082.54
    4     3     3     1.08323892    -0.67331203  -214.01735930    -0.00048691    -0.00001992  0.33D-05  0.24D-05  1082.54
    4     4     4     1.08024145    -0.65987947  -213.82488105    -0.00032804    -0.00001266  0.26D-05  0.13D-05  1082.54
    4     5     5     1.08024108    -0.65987947  -213.82488104    -0.00032862    -0.00001267  0.26D-05  0.13D-05  1082.54
    4     6     6     1.08023975    -0.65987943  -213.82488100    -0.00032969    -0.00001270  0.26D-05  0.13D-05  1082.54
    4     7     7     1.08023900    -0.65987939  -213.82488097    -0.00033002    -0.00001288  0.26D-05  0.14D-05  1082.54
    4     8     8     1.08023635    -0.65987931  -213.82488089    -0.00033263    -0.00001295  0.26D-05  0.14D-05  1082.54
    4     9     9     1.08061582    -0.66185444  -213.81979031    -0.00038538    -0.00001587  0.34D-05  0.17D-05  1082.54
    4    10    10     1.08061540    -0.66185442  -213.81979030    -0.00038606    -0.00001589  0.34D-05  0.17D-05  1082.54
    4    11    11     1.08061431    -0.66185436  -213.81979024    -0.00038768    -0.00001594  0.34D-05  0.17D-05  1082.54
    5     1     1     1.08330941    -0.67333379  -214.01738107    -0.00002160    -0.00000078  0.74D-07  0.11D-06  1415.13
    5     2     2     1.08330864    -0.67333379  -214.01738106    -0.00002163    -0.00000078  0.76D-07  0.11D-06  1415.13
    5     3     3     1.08330834    -0.67333379  -214.01738106    -0.00002176    -0.00000079  0.76D-07  0.11D-06  1415.13
    5     4     4     1.08036508    -0.65989381  -213.82489538    -0.00001433    -0.00000051  0.52D-07  0.88D-07  1415.13
    5     5     5     1.08036534    -0.65989381  -213.82489538    -0.00001434    -0.00000051  0.52D-07  0.88D-07  1415.13
    5     6     6     1.08036587    -0.65989367  -213.82489524    -0.00001424    -0.00000050  0.52D-07  0.86D-07  1415.13
    5     7     7     1.08036577    -0.65989367  -213.82489524    -0.00001427    -0.00000050  0.52D-07  0.86D-07  1415.13
    5     8     8     1.08036583    -0.65989367  -213.82489524    -0.00001435    -0.00000050  0.52D-07  0.86D-07  1415.13
    5     9     9     1.08070316    -0.66187177  -213.81980765    -0.00001733    -0.00000071  0.97D-07  0.10D-06  1415.13
    5    10    10     1.08070261    -0.66187177  -213.81980765    -0.00001735    -0.00000071  0.97D-07  0.11D-06  1415.13
    5    11    11     1.08070312    -0.66187177  -213.81980765    -0.00001741    -0.00000071  0.97D-07  0.11D-06  1415.13
    6     1     1     1.08329893    -0.67333464  -214.01738191    -0.00000085    -0.00000004  0.42D-08  0.59D-08  1748.30
    6     2     2     1.08329892    -0.67333464  -214.01738191    -0.00000085    -0.00000004  0.43D-08  0.59D-08  1748.30
    6     3     3     1.08329882    -0.67333464  -214.01738191    -0.00000085    -0.00000004  0.43D-08  0.59D-08  1748.30
    6     4     4     1.08037218    -0.65989439  -213.82489596    -0.00000058    -0.00000003  0.30D-08  0.70D-08  1748.30
    6     5     5     1.08037218    -0.65989439  -213.82489596    -0.00000058    -0.00000003  0.30D-08  0.71D-08  1748.30
    6     6     6     1.08037245    -0.65989424  -213.82489582    -0.00000058    -0.00000003  0.31D-08  0.68D-08  1748.30
    6     7     7     1.08037245    -0.65989424  -213.82489582    -0.00000058    -0.00000003  0.31D-08  0.68D-08  1748.30
    6     8     8     1.08037244    -0.65989424  -213.82489582    -0.00000058    -0.00000003  0.31D-08  0.68D-08  1748.30
    6     9     9     1.08070256    -0.66187254  -213.81980841    -0.00000077    -0.00000005  0.50D-08  0.10D-07  1748.30
    6    10    10     1.08070254    -0.66187254  -213.81980841    -0.00000077    -0.00000005  0.50D-08  0.10D-07  1748.30
    6    11    11     1.08070256    -0.66187254  -213.81980841    -0.00000077    -0.00000005  0.50D-08  0.10D-07  1748.30
    7     1     1     1.08330523    -0.67333468  -214.01738195    -0.00000004    -0.00000000  0.16D-09  0.37D-09  2026.54
    7     2     2     1.08330527    -0.67333468  -214.01738195    -0.00000004    -0.00000000  0.16D-09  0.36D-09  2026.54
    7     3     3     1.08330524    -0.67333468  -214.01738195    -0.00000004    -0.00000000  0.16D-09  0.37D-09  2026.54
    7     4     4     1.08037815    -0.65989443  -213.82489600    -0.00000004    -0.00000000  0.23D-09  0.65D-09  2026.54
    7     5     5     1.08037813    -0.65989443  -213.82489600    -0.00000004    -0.00000000  0.23D-09  0.65D-09  2026.54
    7     6     6     1.08037245    -0.65989424  -213.82489582    -0.00000000    -0.00000003  0.31D-08  0.68D-08  2026.54
    7     7     7     1.08037245    -0.65989424  -213.82489582    -0.00000000    -0.00000003  0.31D-08  0.68D-08  2026.54
    7     8     8     1.08037244    -0.65989424  -213.82489582    -0.00000000    -0.00000003  0.31D-08  0.68D-08  2026.54
    7     9     9     1.08070828    -0.66187259  -213.81980847    -0.00000006    -0.00000000  0.33D-09  0.80D-09  2026.54
    7    10    10     1.08070831    -0.66187259  -213.81980847    -0.00000006    -0.00000000  0.33D-09  0.80D-09  2026.54
    7    11    11     1.08070829    -0.66187259  -213.81980847    -0.00000006    -0.00000000  0.33D-09  0.80D-09  2026.54


 =====================================
 Analysis of CPU times by interactions
 =====================================

       I      S      P

 I   1.8%
 S   1.0%  12.3%
 P   0.4%  46.6%  29.4%

 Initialization:   3.4%
 Other:            5.0%

 Total CPU:     2026.5 seconds
 =====================================



 Wavefunction saved on  5201.2

 Reference coefficients greater than 0.0500000
 =============================================
 2222222222/0/000          -0.0484472  -0.0865744   0.9488375  -0.0000000  -0.0000000  -0.0000000   0.0000000  -0.0000000
                            0.0200707  -0.0003321  -0.0079354
 22222222220//000           0.9379602   0.1625757   0.0627256  -0.0000000   0.0000000  -0.0000000  -0.0000000   0.0000000
                            0.0067055   0.0122658   0.0164468
 2222222222//0000          -0.1673864   0.9360602   0.0768619   0.0000000   0.0000000  -0.0000000  -0.0000000  -0.0000000
                            0.0042563  -0.0177581   0.0115085
 222222222200/00/           0.0000000   0.0000000   0.0000000  -0.0587289   0.7750037  -0.0020794  -0.0008139  -0.0026095
                            0.0000000  -0.0000000  -0.0000001
 2222222222/000/0          -0.0000000   0.0000000   0.0000000   0.7005370  -0.3366350   0.0023319   0.0026512   0.0008596
                            0.0000001   0.0000000   0.0000000
 22222222220/0/00          -0.0000000  -0.0000000  -0.0000000  -0.6418088  -0.4383648  -0.0002525  -0.0018373   0.0017498
                           -0.0000001  -0.0000000   0.0000001
 222222222200/0/0          -0.0008690  -0.0015528   0.0170188  -0.0010587  -0.0007675  -0.3891908   0.5454244  -0.0641116
                           -0.6199532   0.0102584   0.2451115
 2222222222/0000/           0.0008690   0.0015528  -0.0170188  -0.0010589  -0.0007676  -0.3891908   0.5454245  -0.0641116
                            0.6199532  -0.0102585  -0.2451115
 22222222220/00/0          -0.0030023   0.0167896   0.0013786  -0.0017811   0.0027311   0.3923822   0.3311474   0.4352428
                           -0.1314701   0.5485219  -0.3554802
 2222222222/00/00           0.0030023  -0.0167896  -0.0013786  -0.0017810   0.0027311   0.3923822   0.3311474   0.4352428
                            0.1314701  -0.5485219   0.3554802
 22222222220/000/          -0.0168237  -0.0029160  -0.0011251   0.0017492   0.0005919  -0.3842280  -0.2142834   0.5094285
                            0.2071243   0.3788738   0.5080168
 222222222200//00           0.0168237   0.0029160   0.0011251   0.0017493   0.0005918  -0.3842279  -0.2142834   0.5094285
                           -0.2071243  -0.3788738  -0.5080168
 22222222220000//           0.0007059   0.0012614  -0.0138246   0.0000000   0.0000000  -0.0000001   0.0000001  -0.0000000
                           -0.1213702   0.0020083   0.0479863
 2222222222000//0          -0.0024388   0.0136384   0.0011199   0.0000000   0.0000000  -0.0000002  -0.0000001  -0.0000002
                            0.0257383  -0.1073859   0.0695935
 2222222222000/0/          -0.0136661  -0.0023687  -0.0009139   0.0000000  -0.0000000  -0.0000001  -0.0000000   0.0000001
                           -0.0405494  -0.0741733  -0.0994561
 2222220222/2/000           0.0050527   0.0090291  -0.0989570  -0.0000000  -0.0000000   0.0000000  -0.0000001   0.0000000
                            0.0026243  -0.0000434  -0.0010376
 22222202222//000          -0.0978226  -0.0169555  -0.0065418  -0.0000000   0.0000000  -0.0000000  -0.0000000   0.0000000
                            0.0008768   0.0016038   0.0021505
 2222220222//2000           0.0174572  -0.0976245  -0.0080161   0.0000000   0.0000000   0.0000000   0.0000000   0.0000000
                            0.0005565  -0.0023219   0.0015048
 222222022220/00/           0.0000000  -0.0000000  -0.0000000   0.0048204  -0.0742638   0.0001975   0.0000752   0.0002504
                           -0.0000000   0.0000000   0.0000000
 222222022202/00/          -0.0000000   0.0000000   0.0000000   0.0064256  -0.0741422   0.0002007   0.0000806   0.0002493
                           -0.0000000   0.0000000   0.0000000
 2222220222/020/0           0.0000000   0.0000000  -0.0000000  -0.0674217   0.0315058  -0.0002222  -0.0002545  -0.0000797
                           -0.0000000  -0.0000000   0.0000000
 2222220222/200/0          -0.0000000  -0.0000000   0.0000000  -0.0667244   0.0329566  -0.0002244  -0.0002533  -0.0000849
                           -0.0000000  -0.0000000  -0.0000000
 22222202220/2/00          -0.0000000  -0.0000000   0.0000000   0.0619041   0.0413068   0.0000268   0.0001780  -0.0001655
                            0.0000000  -0.0000000  -0.0000000
 22222202222/0/00           0.0000000  -0.0000000   0.0000000   0.0609962   0.0426359   0.0000215   0.0001738  -0.0001696
                            0.0000000   0.0000000  -0.0000000
 2222220222/2000/          -0.0001796  -0.0003209   0.0035170   0.0001020   0.0000740   0.0374965  -0.0525488   0.0061768
                           -0.0601902   0.0009960   0.0237975
 222222022202/0/0           0.0001796   0.0003209  -0.0035170   0.0001020   0.0000739   0.0374965  -0.0525488   0.0061768
                            0.0601902  -0.0009960  -0.0237975
 222222022220/0/0          -0.0009177  -0.0016400   0.0179737   0.0001007   0.0000730   0.0370309  -0.0518963   0.0061001
                            0.0582381  -0.0009637  -0.0230257
 2222220222/0200/           0.0009177   0.0016400  -0.0179737   0.0001007   0.0000730   0.0370310  -0.0518964   0.0061001
                           -0.0582381   0.0009637   0.0230257
 22222202220/20/0           0.0006204  -0.0034696  -0.0002849   0.0001716  -0.0002631  -0.0378040  -0.0319043  -0.0419334
                            0.0127642  -0.0532551   0.0345130
 2222220222/02/00          -0.0006204   0.0034696   0.0002849   0.0001716  -0.0002631  -0.0378040  -0.0319043  -0.0419334
                           -0.0127642   0.0532551  -0.0345130
 22222202222/00/0          -0.0031708   0.0177317   0.0014560   0.0001695  -0.0002598  -0.0373346  -0.0315082  -0.0414128
                            0.0123502  -0.0515279   0.0333937
 2222220222/20/00           0.0031708  -0.0177317  -0.0014560   0.0001695  -0.0002598  -0.0373346  -0.0315082  -0.0414128
                           -0.0123502   0.0515279  -0.0333937

 Coefficients of fixed reference functions:
 ==========================================

 State      Coefficients
 1           0.943484   -0.168372   -0.048732   -0.000000   -0.000000   -0.000000   -0.000000   -0.000000    0.001952   -0.006743
            -0.037783
 2           0.163533    0.941572   -0.087084   -0.000000   -0.000000    0.000000    0.000000   -0.000000    0.003487    0.037707
            -0.006549
 3           0.063095    0.077314    0.954425    0.000000    0.000000    0.000000    0.000000   -0.000000   -0.038221    0.003096
            -0.002527
 4          -0.000000    0.000000   -0.000000    0.739929   -0.001512   -0.002544    0.002499   -0.613904   -0.000000   -0.000000
            -0.000000
 5           0.000000    0.000000   -0.000000   -0.613899   -0.001096    0.003901    0.000845   -0.739933   -0.000000   -0.000000
             0.000000
 6          -0.000000   -0.000000   -0.000000    0.003115   -0.555916    0.560474   -0.548827    0.000567   -0.000000   -0.000000
            -0.000000
 7          -0.000000   -0.000000    0.000000    0.003005    0.779078    0.473007   -0.306080   -0.001503    0.000000   -0.000000
            -0.000000
 8           0.000000   -0.000000   -0.000000    0.001786   -0.091576    0.621696    0.727662    0.002763   -0.000000   -0.000000
             0.000000
 9           0.012334    0.007829    0.036919    0.000000   -0.000000   -0.000000    0.000000   -0.000000    0.893101   -0.189395
             0.298382
 10          0.022562   -0.032665   -0.000611    0.000000   -0.000000    0.000000   -0.000000   -0.000000   -0.014778    0.790197
             0.545803
 11          0.030253    0.021169   -0.014597    0.000000    0.000000    0.000000    0.000000    0.000000   -0.353106   -0.512102
             0.731846

 Coefficients of rotated reference functions:
 ============================================

 State      Coefficients
 1           0.960397    0.000000    0.000000   -0.000000   -0.000000    0.000000    0.000000    0.000000    0.000138    0.000436
             0.000418
 2           0.000000    0.960397   -0.000000    0.000000   -0.000000   -0.000000   -0.000000   -0.000000    0.000100   -0.000439
             0.000425
 3           0.000000   -0.000000    0.960397   -0.000000   -0.000000   -0.000000    0.000000   -0.000000    0.000595   -0.000027
            -0.000169
 4          -0.000000    0.000000   -0.000000    0.961452   -0.000000    0.000000    0.000000   -0.000000    0.000000    0.000000
            -0.000000
 5          -0.000000   -0.000000   -0.000000   -0.000000    0.961452   -0.000000   -0.000000   -0.000000    0.000000   -0.000000
            -0.000000
 6           0.000000   -0.000000   -0.000000    0.000000   -0.000000    0.961454    0.000000   -0.000000   -0.000000   -0.000000
            -0.000000
 7           0.000000   -0.000000    0.000000    0.000000   -0.000000    0.000000    0.961454   -0.000000    0.000000   -0.000000
            -0.000000
 8           0.000000   -0.000000   -0.000000   -0.000000   -0.000000   -0.000000   -0.000000    0.961454    0.000000    0.000000
             0.000000
 9           0.000138    0.000100    0.000595    0.000000    0.000000   -0.000000    0.000000    0.000000    0.961305    0.000000
            -0.000000
 10          0.000436   -0.000439   -0.000027    0.000000   -0.000000   -0.000000   -0.000000    0.000000    0.000000    0.961305
             0.000000
 11          0.000418    0.000425   -0.000169   -0.000000   -0.000000   -0.000000   -0.000000    0.000000   -0.000000    0.000000
             0.961305


 RESULTS FOR STATE 1.1
 =====================

 Coefficient of reference function:   C(0) = 0.94348360 (fixed)   0.96048710 (relaxed)   0.96039668 (rotated)

 Energy contributions of configuration classes

 CLASS          SQ.NORM        ECORR1        ECORR2
 +++++++++++++++++++++++++++++++++++++++++++++++++++
 Internals    0.00080129   -0.00143142   -0.60080206
 Singles      0.01728731   -0.05617545   -0.06254838
 Pairs        0.06608467    0.03367476   -0.00998425
 Total        1.08417327   -0.02393210   -0.67333468
 +++++++++++++++++++++++++++++++++++++++++++++++++++


 Reference energy                    -213.34373961
 Nuclear energy                         0.00000000
 Kinetic energy                        83.02348214
 One electron energy                 -375.87969754
 Two electron energy                  161.86231559
 Virial quotient                       -2.57779337
 Correlation energy                    -0.67364235
 !MRCI STATE 1.1 Energy              -214.017381954326

 Properties without orbital relaxation:

 !MRCI STATE 1.1 Dipole moment          0.00000000     0.00000000     0.00000000
 Dipole moment /Debye                   0.00000000     0.00000000     0.00000000

 Cluster corrected energies          -214.07408463 (Davidson, fixed reference)
 Cluster corrected energies          -214.07394714 (Davidson, relaxed reference)
 Cluster corrected energies          -214.07408463 (Davidson, rotated reference)

 Cluster corrected energies          -214.07205888 (Pople, fixed reference)
 Cluster corrected energies          -214.07191696 (Pople, relaxed reference)
 Cluster corrected energies          -214.07205888 (Pople, rotated reference)



 RESULTS FOR STATE 2.1
 =====================

 Coefficient of reference function:   C(0) = 0.94157240 (fixed)   0.96048708 (relaxed)   0.96039667 (rotated)

 Energy contributions of configuration classes

 CLASS          SQ.NORM        ECORR1        ECORR2
 +++++++++++++++++++++++++++++++++++++++++++++++++++
 Internals    0.00080129   -0.00143142   -0.57512535
 Singles      0.01728734   -0.05617547   -0.06254839
 Pairs        0.06608468    0.00583681   -0.03566094
 Total        1.08417331   -0.05177008   -0.67333468
 +++++++++++++++++++++++++++++++++++++++++++++++++++


 Reference energy                    -213.34373961
 Nuclear energy                         0.00000000
 Kinetic energy                        83.02348089
 One electron energy                 -375.87969666
 Two electron energy                  161.86231470
 Virial quotient                       -2.57779341
 Correlation energy                    -0.67364235
 !MRCI STATE 2.1 Energy              -214.017381954210

 Properties without orbital relaxation:

 !MRCI STATE 2.1 Dipole moment          0.00000000     0.00000000     0.00000000
 Dipole moment /Debye                   0.00000000     0.00000000     0.00000000

 Cluster corrected energies          -214.07408466 (Davidson, fixed reference)
 Cluster corrected energies          -214.07394717 (Davidson, relaxed reference)
 Cluster corrected energies          -214.07408466 (Davidson, rotated reference)

 Cluster corrected energies          -214.07205891 (Pople, fixed reference)
 Cluster corrected energies          -214.07191699 (Pople, relaxed reference)
 Cluster corrected energies          -214.07205891 (Pople, rotated reference)



 RESULTS FOR STATE 3.1
 =====================

 Coefficient of reference function:   C(0) = 0.95442486 (fixed)   0.96048709 (relaxed)   0.96039668 (rotated)

 Energy contributions of configuration classes

 CLASS          SQ.NORM        ECORR1        ECORR2
 +++++++++++++++++++++++++++++++++++++++++++++++++++
 Internals    0.00080129   -0.00143142   -0.57181888
 Singles      0.01728732   -0.05617546   -0.06254838
 Pairs        0.06608467    0.00225198   -0.03896743
 Total        1.08417328   -0.05535489   -0.67333468
 +++++++++++++++++++++++++++++++++++++++++++++++++++


 Reference energy                    -213.34373960
 Nuclear energy                         0.00000000
 Kinetic energy                        83.02348185
 One electron energy                 -375.87969750
 Two electron energy                  161.86231555
 Virial quotient                       -2.57779338
 Correlation energy                    -0.67364235
 !MRCI STATE 3.1 Energy              -214.017381954129

 Properties without orbital relaxation:

 !MRCI STATE 3.1 Dipole moment          0.00000000     0.00000000     0.00000000
 Dipole moment /Debye                   0.00000000     0.00000000     0.00000000

 Cluster corrected energies          -214.07408464 (Davidson, fixed reference)
 Cluster corrected energies          -214.07394715 (Davidson, relaxed reference)
 Cluster corrected energies          -214.07408464 (Davidson, rotated reference)

 Cluster corrected energies          -214.07205888 (Pople, fixed reference)
 Cluster corrected energies          -214.07191697 (Pople, relaxed reference)
 Cluster corrected energies          -214.07205888 (Pople, rotated reference)



 RESULTS FOR STATE 4.1
 =====================

 Coefficient of reference function:   C(0) = 0.73992949 (fixed)   0.96159800 (relaxed)   0.96145162 (rotated)

 Energy contributions of configuration classes

 CLASS          SQ.NORM        ECORR1        ECORR2
 +++++++++++++++++++++++++++++++++++++++++++++++++++
 Internals    0.00131182   -0.00229626   -0.55676103
 Singles      0.01829805   -0.05845858   -0.06519756
 Pairs        0.06218554    0.00000002   -0.03793583
 Total        1.08179541   -0.06075482   -0.65989443
 +++++++++++++++++++++++++++++++++++++++++++++++++++


 Reference energy                    -213.16500157
 Nuclear energy                         0.00000000
 Kinetic energy                        82.80756831
 One electron energy                 -371.90631927
 Two electron energy                  158.08142327
 Virial quotient                       -2.58219026
 Correlation energy                    -0.65989443
 !MRCI STATE 4.1 Energy              -213.824895999924

 Properties without orbital relaxation:

 !MRCI STATE 4.1 Dipole moment          0.00000000     0.00000000     0.00000000
 Dipole moment /Debye                   0.00000000     0.00000000     0.00000000

 Cluster corrected energies          -213.87887233 (Davidson, fixed reference)
 Cluster corrected energies          -213.87865500 (Davidson, relaxed reference)
 Cluster corrected energies          -213.87887233 (Davidson, rotated reference)

 Cluster corrected energies          -213.87684030 (Pople, fixed reference)
 Cluster corrected energies          -213.87661688 (Pople, relaxed reference)
 Cluster corrected energies          -213.87684030 (Pople, rotated reference)



 RESULTS FOR STATE 5.1
 =====================

 Maximum overlap with reference state  8

 Coefficient of reference function:   C(0) = 0.73993273 (fixed)   0.96159801 (relaxed)   0.96145162 (rotated)

 Energy contributions of configuration classes

 CLASS          SQ.NORM        ECORR1        ECORR2
 +++++++++++++++++++++++++++++++++++++++++++++++++++
 Internals    0.00131182   -0.00229626   -0.55676097
 Singles      0.01829803   -0.05845858   -0.06519755
 Pairs        0.06218554   -0.00000006   -0.03793591
 Total        1.08179539   -0.06075490   -0.65989443
 +++++++++++++++++++++++++++++++++++++++++++++++++++


 Reference energy                    -213.16500157
 Nuclear energy                         0.00000000
 Kinetic energy                        82.80756792
 One electron energy                 -371.90631840
 Two electron energy                  158.08142240
 Virial quotient                       -2.58219027
 Correlation energy                    -0.65989443
 !MRCI STATE 5.1 Energy              -213.824895999577

 Properties without orbital relaxation:

 !MRCI STATE 5.1 Dipole moment          0.00000000     0.00000000     0.00000000
 Dipole moment /Debye                   0.00000000     0.00000000     0.00000000

 Cluster corrected energies          -213.87887232 (Davidson, fixed reference)
 Cluster corrected energies          -213.87865499 (Davidson, relaxed reference)
 Cluster corrected energies          -213.87887232 (Davidson, rotated reference)

 Cluster corrected energies          -213.87684029 (Pople, fixed reference)
 Cluster corrected energies          -213.87661686 (Pople, relaxed reference)
 Cluster corrected energies          -213.87684029 (Pople, rotated reference)



 RESULTS FOR STATE 6.1
 =====================

 Coefficient of reference function:   C(0) = 0.56047415 (fixed)   0.96160055 (relaxed)   0.96145420 (rotated)

 Energy contributions of configuration classes

 CLASS          SQ.NORM        ECORR1        ECORR2
 +++++++++++++++++++++++++++++++++++++++++++++++++++
 Internals    0.00131171   -0.00229621   -0.55677415
 Singles      0.01829253   -0.05844736   -0.06519325
 Pairs        0.06218534    0.00000001   -0.03792684
 Total        1.08178958   -0.06074356   -0.65989424
 +++++++++++++++++++++++++++++++++++++++++++++++++++


 Reference energy                    -213.16500157
 Nuclear energy                         0.00000000
 Kinetic energy                        82.80772345
 One electron energy                 -371.90649366
 Two electron energy                  158.08159785
 Virial quotient                       -2.58218542
 Correlation energy                    -0.65989424
 !MRCI STATE 6.1 Energy              -213.824895816521

 Properties without orbital relaxation:

 !MRCI STATE 6.1 Dipole moment          0.00000000     0.00000000     0.00000000
 Dipole moment /Debye                   0.00000000     0.00000000     0.00000000

 Cluster corrected energies          -213.87886829 (Davidson, fixed reference)
 Cluster corrected energies          -213.87865102 (Davidson, relaxed reference)
 Cluster corrected energies          -213.87886829 (Davidson, rotated reference)

 Cluster corrected energies          -213.87683615 (Pople, fixed reference)
 Cluster corrected energies          -213.87661279 (Pople, relaxed reference)
 Cluster corrected energies          -213.87683615 (Pople, rotated reference)



 RESULTS FOR STATE 7.1
 =====================

 Maximum overlap with reference state  5

 Coefficient of reference function:   C(0) = 0.77907788 (fixed)   0.96160055 (relaxed)   0.96145420 (rotated)

 Energy contributions of configuration classes

 CLASS          SQ.NORM        ECORR1        ECORR2
 +++++++++++++++++++++++++++++++++++++++++++++++++++
 Internals    0.00131171   -0.00229621   -0.55677415
 Singles      0.01829253   -0.05844736   -0.06519324
 Pairs        0.06218535    0.00000001   -0.03792685
 Total        1.08178959   -0.06074357   -0.65989424
 +++++++++++++++++++++++++++++++++++++++++++++++++++


 Reference energy                    -213.16500157
 Nuclear energy                         0.00000000
 Kinetic energy                        82.80772330
 One electron energy                 -371.90649323
 Two electron energy                  158.08159741
 Virial quotient                       -2.58218542
 Correlation energy                    -0.65989424
 !MRCI STATE 7.1 Energy              -213.824895816345

 Properties without orbital relaxation:

 !MRCI STATE 7.1 Dipole moment          0.00000000     0.00000000     0.00000000
 Dipole moment /Debye                   0.00000000     0.00000000     0.00000000

 Cluster corrected energies          -213.87886829 (Davidson, fixed reference)
 Cluster corrected energies          -213.87865102 (Davidson, relaxed reference)
 Cluster corrected energies          -213.87886829 (Davidson, rotated reference)

 Cluster corrected energies          -213.87683615 (Pople, fixed reference)
 Cluster corrected energies          -213.87661279 (Pople, relaxed reference)
 Cluster corrected energies          -213.87683615 (Pople, rotated reference)



 RESULTS FOR STATE 8.1
 =====================

 Maximum overlap with reference state  7

 Coefficient of reference function:   C(0) = 0.72766172 (fixed)   0.96160055 (relaxed)   0.96145421 (rotated)

 Energy contributions of configuration classes

 CLASS          SQ.NORM        ECORR1        ECORR2
 +++++++++++++++++++++++++++++++++++++++++++++++++++
 Internals    0.00131171   -0.00229621   -0.55677416
 Singles      0.01829253   -0.05844736   -0.06519325
 Pairs        0.06218533    0.00000001   -0.03792684
 Total        1.08178957   -0.06074356   -0.65989424
 +++++++++++++++++++++++++++++++++++++++++++++++++++


 Reference energy                    -213.16500157
 Nuclear energy                         0.00000000
 Kinetic energy                        82.80772367
 One electron energy                 -371.90649414
 Two electron energy                  158.08159832
 Virial quotient                       -2.58218541
 Correlation energy                    -0.65989424
 !MRCI STATE 8.1 Energy              -213.824895815476

 Properties without orbital relaxation:

 !MRCI STATE 8.1 Dipole moment          0.00000000     0.00000000     0.00000000
 Dipole moment /Debye                   0.00000000     0.00000000     0.00000000

 Cluster corrected energies          -213.87886829 (Davidson, fixed reference)
 Cluster corrected energies          -213.87865101 (Davidson, relaxed reference)
 Cluster corrected energies          -213.87886829 (Davidson, rotated reference)

 Cluster corrected energies          -213.87683614 (Pople, fixed reference)
 Cluster corrected energies          -213.87661278 (Pople, relaxed reference)
 Cluster corrected energies          -213.87683614 (Pople, rotated reference)



 RESULTS FOR STATE 9.1
 =====================

 Coefficient of reference function:   C(0) = 0.89310055 (fixed)   0.96147066 (relaxed)   0.96130476 (rotated)

 Energy contributions of configuration classes

 CLASS          SQ.NORM        ECORR1        ECORR2
 +++++++++++++++++++++++++++++++++++++++++++++++++++
[...]
 24  1     2    1  |1 1>-         0.27%   49.48%    0.06%    0.03%    0.20%    0.39%   45.50%    0.05%
 25  1     3    1  |1 1>-        31.95%    0.40%    0.00%    0.14%   23.26%   37.30%    0.45%    0.03%
 26  1     4    1  |1 1>-         0.00%    0.00%    0.00%    0.00%    0.00%    0.00%    0.00%    0.01%
 27  1     5    1  |1 1>-         0.00%    0.00%    0.00%    0.00%    0.00%    0.00%    0.00%    0.02%
 28  1     6    1  |1 1>-         0.00%    0.00%    0.00%    0.00%    0.01%    0.00%    0.00%    0.00%
 29  1     7    1  |1 1>-         0.00%    0.00%    0.00%    0.00%    0.01%    0.01%    0.00%    0.00%
 30  1     8    1  |1 1>-         0.00%    0.00%    0.00%    0.00%    0.00%    0.00%    0.00%    0.00%
 31  1     9    1  |1 1>-         0.01%    0.00%    0.00%    0.00%    0.00%    0.00%    0.00%    0.00%
 32  1    10    1  |1 1>-         0.00%    0.00%    0.00%    0.00%    0.00%    0.00%    0.00%    0.00%
 33  1    11    1  |1 1>-         0.00%    0.00%    0.00%    0.00%    0.00%    0.00%    0.00%    0.00%
 34  1     1    1  |0 0>          0.00%    0.00%    0.00%    0.00%    2.70%    0.01%    2.85%    1.90%
 35  1     2    1  |0 0>          0.00%    0.00%    0.00%    0.00%    2.64%    0.00%    1.84%    0.36%
 36  1     3    1  |0 0>          0.00%    0.00%    0.00%    0.00%    0.92%    0.31%    1.39%    4.73%
 37  1     4    1  |0 0>          0.00%    0.00%    0.00%    0.00%    0.01%    7.57%    0.06%    0.18%
 38  1     5    1  |0 0>          0.00%    0.00%    0.00%    0.00%    1.66%    0.02%    1.78%    0.74%
 39  1     6    1  |0 0>          3.07%    0.00%    0.00%    0.00%    0.00%    0.00%    0.00%    0.00%

   Total
 Nr Sym  State Sym Spin / Nr.      9       10       11       12       13       14       15       16

  1  1     1    1  |1 1>+         0.27%    0.11%    0.00%    0.05%    4.55%    0.53%    0.99%    0.00%
  2  1     2    1  |1 1>+         0.12%    2.74%    0.54%    0.54%    0.17%    0.03%    0.03%    0.00%
  3  1     3    1  |1 1>+        44.39%    0.53%    0.06%    3.37%    0.01%    0.01%    0.00%    0.00%
  4  1     4    1  |1 1>+         0.00%    0.00%    0.00%    0.00%    0.00%    0.00%    0.00%    2.85%
  5  1     5    1  |1 1>+         0.00%    0.00%    0.02%    0.00%    0.00%    0.00%    0.00%    0.64%
  6  1     6    1  |1 1>+         0.00%    0.00%    0.00%    0.00%    0.00%    0.01%    0.00%    9.09%
  7  1     7    1  |1 1>+         0.01%    0.00%    0.00%    0.01%    0.00%    0.00%    0.00%   15.91%
  8  1     8    1  |1 1>+         0.00%    0.00%    0.00%    0.00%    0.00%    0.01%    0.00%    0.35%
  9  1     9    1  |1 1>+         0.00%    0.00%    0.00%    0.00%    0.00%    0.00%    0.00%    2.60%
 10  1    10    1  |1 1>+         0.00%    0.00%    0.00%    0.00%    0.00%    0.00%    0.00%    0.00%
 11  1    11    1  |1 1>+         0.00%    0.00%    0.00%    0.00%    0.00%    0.00%    0.00%    0.45%
 12  1     1    1  |1 0>          1.04%    2.39%    0.65%    0.77%    0.01%    0.18%    0.03%    0.00%
 13  1     2    1  |1 0>          0.06%    0.08%    0.03%    0.04%    0.18%    4.90%    0.99%    0.00%
 14  1     3    1  |1 0>          1.09%    0.77%    3.19%    0.01%    0.00%    0.01%    0.01%    0.00%
 15  1     4    1  |1 0>          0.03%    0.01%    0.00%    0.02%    0.00%    0.00%    0.00%    0.19%
 16  1     5    1  |1 0>          0.00%    0.00%    0.00%    0.00%    0.00%    0.00%    0.00%   33.63%
 17  1     6    1  |1 0>          0.00%    0.00%    0.00%    0.00%    0.01%    0.00%    0.00%    1.03%
 18  1     7    1  |1 0>          0.00%    0.00%    0.01%    0.00%    0.01%    0.00%    0.00%    1.59%
 19  1     8    1  |1 0>          0.00%    0.00%    0.00%    0.00%    0.01%    0.00%    0.00%    0.00%
 20  1     9    1  |1 0>          0.00%    0.00%    0.00%    0.00%    0.00%    0.00%    0.00%    0.29%
 21  1    10    1  |1 0>          0.00%    0.00%    0.00%    0.00%    0.00%    0.00%    0.00%    0.00%
 22  1    11    1  |1 0>          0.00%    0.00%    0.00%    0.00%    0.00%    0.00%    0.00%    0.03%
 23  1     1    1  |1 1>-        44.92%    0.95%    0.00%    3.02%    0.00%    0.00%    0.00%    0.00%
 24  1     2    1  |1 1>-         0.00%    0.36%    3.45%    0.13%    0.04%    0.00%    0.01%    0.00%
 25  1     3    1  |1 1>-         0.15%    0.00%    0.02%    0.00%    2.98%    2.28%    1.01%    0.00%
 26  1     4    1  |1 1>-         0.00%    0.01%    0.00%    0.00%    0.00%    0.00%    0.00%    0.03%
 27  1     5    1  |1 1>-         0.00%    0.01%    0.00%    0.00%    0.00%    0.00%    0.00%    0.01%
 28  1     6    1  |1 1>-         0.00%    0.00%    0.00%    0.00%    0.00%    0.00%    0.00%   14.55%
 29  1     7    1  |1 1>-         0.00%    0.00%    0.00%    0.00%    0.01%    0.01%    0.00%    5.74%
 30  1     8    1  |1 1>-         0.00%    0.00%    0.00%    0.00%    0.00%    0.00%    0.00%    7.65%
 31  1     9    1  |1 1>-         0.00%    0.00%    0.00%    0.00%    0.00%    0.00%    0.01%    0.43%
 32  1    10    1  |1 1>-         0.00%    0.00%    0.00%    0.00%    0.00%    0.00%    0.00%    0.28%
 33  1    11    1  |1 1>-         0.00%    0.00%    0.00%    0.00%    0.00%    0.00%    0.00%    2.66%
 34  1     1    1  |0 0>          0.47%   10.30%   49.46%    3.05%    0.37%   28.82%    0.00%    0.00%
 35  1     2    1  |0 0>          3.08%    0.48%   10.25%   45.50%    0.00%   35.77%    0.00%    0.00%
 36  1     3    1  |0 0>          0.57%   76.25%    2.89%    0.81%    3.55%    8.51%    0.00%    0.00%
 37  1     4    1  |0 0>          0.09%    4.25%    0.20%    0.46%   87.07%    0.03%    0.00%    0.00%
 38  1     5    1  |0 0>          3.70%    0.73%   29.22%   42.18%    1.01%   18.87%    0.00%    0.00%
 39  1     6    1  |0 0>          0.00%    0.00%    0.00%    0.00%    0.00%    0.00%   96.91%    0.00%

   Total
 Nr Sym  State Sym Spin / Nr.     17       18       19       20       21       22       23       24

  1  1     1    1  |1 1>+         0.00%    0.00%    0.00%    0.00%    0.00%    0.01%    0.01%    0.00%
  2  1     2    1  |1 1>+         0.00%    0.00%    0.01%    0.00%    0.00%    0.00%    0.00%    0.00%
  3  1     3    1  |1 1>+         0.00%    0.00%    0.00%    0.01%    0.00%    0.00%    0.00%    0.00%
  4  1     4    1  |1 1>+        12.42%   15.04%    4.45%    1.63%    5.15%    0.00%    0.00%    0.00%
  5  1     5    1  |1 1>+         2.91%    3.45%   19.54%    6.98%   22.11%    0.00%    0.00%    0.00%
  6  1     6    1  |1 1>+         8.09%    1.67%    1.94%    2.91%    5.22%    9.67%    9.84%    0.00%
  7  1     7    1  |1 1>+         1.36%    7.87%    3.59%    9.87%    0.00%    3.02%    3.02%    0.00%
  8  1     8    1  |1 1>+         7.00%    4.60%    3.38%    0.00%    2.99%   17.02%   17.27%    0.00%
  9  1     9    1  |1 1>+         0.00%    0.44%    0.40%    3.92%    0.26%    0.33%    0.33%    3.22%
 10  1    10    1  |1 1>+         1.27%    1.01%    2.01%    0.09%    1.34%    1.10%    1.08%   10.76%
 11  1    11    1  |1 1>+         0.73%    0.23%    0.64%    0.35%    1.15%    1.98%    1.95%   19.34%
 12  1     1    1  |1 0>          0.00%    0.00%    0.01%    0.00%    0.00%    0.00%    0.00%    0.00%
 13  1     2    1  |1 0>          0.00%    0.00%    0.00%    0.00%    0.00%    0.01%    0.00%    0.00%
 14  1     3    1  |1 0>          0.00%    0.00%    0.01%    0.00%    0.00%    0.00%    0.00%    0.00%
 15  1     4    1  |1 0>          0.01%    0.01%    1.20%   49.80%    8.51%    0.00%    0.00%    0.00%
 16  1     5    1  |1 0>          1.18%    2.30%    0.01%    0.29%    0.05%    0.00%    0.00%    0.00%
 17  1     6    1  |1 0>          0.09%   17.34%    9.57%    0.28%    0.01%    1.39%   18.95%    0.00%
 18  1     7    1  |1 0>         15.96%    3.65%    1.10%    1.82%    8.45%    1.00%   13.44%    0.00%
 19  1     8    1  |1 0>         11.03%    5.25%    3.98%    0.30%    4.40%    1.72%   23.33%    0.00%
 20  1     9    1  |1 0>          0.44%    2.51%    3.46%    0.48%    0.95%    0.24%    0.02%    1.30%
 21  1    10    1  |1 0>          0.64%    0.45%    0.91%    0.04%    0.70%    4.27%    0.31%   22.55%
 22  1    11    1  |1 0>          2.18%    0.20%    0.62%    0.31%    2.70%    1.80%    0.13%    9.47%
 23  1     1    1  |1 1>-         0.00%    0.00%    0.00%    0.01%    0.00%    0.00%    0.00%    0.00%
 24  1     2    1  |1 1>-         0.00%    0.00%    0.00%    0.00%    0.01%    0.00%    0.00%    0.00%
 25  1     3    1  |1 1>-         0.00%    0.00%    0.00%    0.00%    0.00%    0.00%    0.01%    0.00%
 26  1     4    1  |1 1>-        14.20%   11.21%   11.10%    0.40%    7.54%    0.00%    0.00%    0.00%
 27  1     5    1  |1 1>-         6.72%    5.13%   23.77%    0.83%   16.21%    0.00%    0.00%    0.00%
 28  1     6    1  |1 1>-         2.04%    2.03%    2.96%    1.36%    5.67%   18.67%    1.30%    0.00%
 29  1     7    1  |1 1>-         1.88%    1.99%    1.84%    0.16%    3.10%   36.76%    2.56%    0.00%
 30  1     8    1  |1 1>-         8.36%   11.71%    1.33%   13.14%    0.35%    0.51%    0.04%    0.00%
 31  1     9    1  |1 1>-         0.02%    0.01%    0.14%    0.23%    0.32%    0.38%    5.48%   28.81%
 32  1    10    1  |1 1>-         1.33%    1.76%    0.98%    3.51%    0.59%    0.00%    0.00%    0.01%
 33  1    11    1  |1 1>-         0.14%    0.12%    1.01%    1.24%    2.15%    0.06%    0.86%    4.50%
 34  1     1    1  |0 0>          0.00%    0.00%    0.00%    0.00%    0.03%    0.01%    0.00%    0.00%
 35  1     2    1  |0 0>          0.00%    0.00%    0.01%    0.01%    0.01%    0.01%    0.00%    0.00%
 36  1     3    1  |0 0>          0.00%    0.00%    0.03%    0.01%    0.00%    0.00%    0.00%    0.00%
 37  1     4    1  |0 0>          0.00%    0.00%    0.00%    0.00%    0.00%    0.01%    0.04%    0.00%
 38  1     5    1  |0 0>          0.00%    0.00%    0.00%    0.03%    0.01%    0.01%    0.00%    0.00%
 39  1     6    1  |0 0>          0.00%    0.00%    0.00%    0.00%    0.00%    0.00%    0.00%    0.03%

   Total
 Nr Sym  State Sym Spin / Nr.     25       26       27       28       29       30       31       32

  1  1     1    1  |1 1>+         0.00%    0.00%    0.00%    0.00%    0.00%    0.00%    0.00%    0.00%
  2  1     2    1  |1 1>+         0.00%    0.00%    0.00%    0.00%    0.00%    0.00%    0.00%    0.00%
  3  1     3    1  |1 1>+         0.00%    0.00%    0.00%    0.00%    0.00%    0.00%    0.00%    0.00%
  4  1     4    1  |1 1>+         0.37%    1.66%    0.16%   25.52%   18.80%    4.45%    2.64%    0.74%
  5  1     5    1  |1 1>+         0.09%    0.38%    0.04%    5.95%    4.29%    0.98%   11.56%    3.24%
  6  1     6    1  |1 1>+         0.70%    0.03%    0.63%    0.82%    0.40%   12.33%   12.77%    2.56%
  7  1     7    1  |1 1>+         0.25%    0.34%    1.22%    5.86%   11.20%    1.10%    0.62%   25.82%
  8  1     8    1  |1 1>+         0.71%    0.13%    0.02%    2.87%    0.82%    4.89%    5.64%    0.84%
  9  1     9    1  |1 1>+         0.26%    4.45%   37.41%    0.00%    0.00%    0.00%    0.00%    0.00%
 10  1    10    1  |1 1>+        25.72%    5.85%    0.01%    0.00%    0.00%    0.00%    0.00%    0.00%
 11  1    11    1  |1 1>+        12.77%    0.89%    5.90%    0.00%    0.00%    0.00%    0.00%    0.00%
 12  1     1    1  |1 0>          0.00%    0.00%    0.00%    0.00%    0.00%    0.00%    0.00%    0.00%
 13  1     2    1  |1 0>          0.00%    0.00%    0.00%    0.00%    0.00%    0.00%    0.00%    0.00%
 14  1     3    1  |1 0>          0.00%    0.00%    0.00%    0.00%    0.00%    0.00%    0.00%    0.00%
 15  1     4    1  |1 0>          0.00%    0.00%    0.01%    0.03%    0.16%    0.17%    8.64%   24.40%
 16  1     5    1  |1 0>          0.03%    0.16%    2.49%    4.89%   26.48%   28.25%    0.05%    0.15%
 17  1     6    1  |1 0>          0.16%    1.13%    0.05%   12.03%    0.32%    0.84%    0.09%    0.01%
 18  1     7    1  |1 0>          0.78%    0.66%    0.09%    2.99%    7.99%    4.13%   16.67%    5.37%
 19  1     8    1  |1 0>          1.06%    0.11%    0.00%    3.24%    2.74%    5.52%    7.99%    3.38%
 20  1     9    1  |1 0>          0.48%   41.46%    2.88%    0.00%    0.00%    0.00%    0.00%    0.00%
 21  1    10    1  |1 0>         12.63%    2.44%    0.00%    0.00%    0.00%    0.00%    0.00%    0.00%
 22  1    11    1  |1 0>         32.94%    0.00%    0.43%    0.00%    0.00%    0.00%    0.00%    0.00%
 23  1     1    1  |1 1>-         0.00%    0.00%    0.00%    0.00%    0.00%    0.00%    0.00%    0.00%
 24  1     2    1  |1 1>-         0.00%    0.00%    0.00%    0.00%    0.00%    0.00%    0.00%    0.00%
 25  1     3    1  |1 1>-         0.00%    0.00%    0.00%    0.00%    0.00%    0.00%    0.00%    0.00%
 26  1     4    1  |1 1>-         1.50%    0.34%    0.00%   16.26%    7.00%   17.78%    3.35%    1.46%
 27  1     5    1  |1 1>-         0.71%    0.15%    0.00%    7.52%    3.16%    8.27%    7.41%    3.25%
 28  1     6    1  |1 1>-         0.06%    0.28%    1.00%    1.35%   11.03%    0.91%   14.91%    2.84%
 29  1     7    1  |1 1>-         0.06%    0.25%    0.39%    1.39%    5.41%    0.10%    7.63%    0.36%
 30  1     8    1  |1 1>-         0.24%    1.13%    0.63%    9.28%    0.20%   10.29%    0.04%   25.57%
 31  1     9    1  |1 1>-         0.10%    0.44%    5.78%    0.00%    0.00%    0.00%    0.00%    0.00%
 32  1    10    1  |1 1>-         7.51%   34.07%    5.04%    0.00%    0.00%    0.00%    0.00%    0.00%
 33  1    11    1  |1 1>-         0.84%    3.67%   35.81%    0.00%    0.00%    0.00%    0.00%    0.00%
 34  1     1    1  |0 0>          0.00%    0.00%    0.00%    0.00%    0.00%    0.00%    0.00%    0.00%
 35  1     2    1  |0 0>          0.00%    0.00%    0.00%    0.00%    0.00%    0.00%    0.00%    0.00%
 36  1     3    1  |0 0>          0.00%    0.00%    0.00%    0.00%    0.00%    0.00%    0.00%    0.00%
 37  1     4    1  |0 0>          0.00%    0.00%    0.00%    0.00%    0.00%    0.00%    0.00%    0.00%
 38  1     5    1  |0 0>          0.00%    0.00%    0.00%    0.00%    0.00%    0.00%    0.00%    0.00%
 39  1     6    1  |0 0>          0.00%    0.00%    0.00%    0.00%    0.00%    0.00%    0.00%    0.00%

   Total
 Nr Sym  State Sym Spin / Nr.     33       34       35       36       37       38       39

  1  1     1    1  |1 1>+         0.00%    0.00%    0.00%    0.00%    0.00%    0.00%    0.00%
  2  1     2    1  |1 1>+         0.00%    0.00%    0.00%    0.00%    0.00%    0.00%    0.00%
  3  1     3    1  |1 1>+         0.00%    0.00%    0.00%    0.00%    0.00%    0.00%    0.00%
  4  1     4    1  |1 1>+         2.84%    0.00%    0.41%    0.42%    0.44%    0.00%    0.00%
  5  1     5    1  |1 1>+        12.30%    0.00%    1.80%    1.79%    1.90%    0.00%    0.00%
  6  1     6    1  |1 1>+         7.01%   10.93%    0.66%    0.01%    0.50%    1.08%    1.11%
  7  1     7    1  |1 1>+         3.44%    3.28%    0.03%    0.93%    0.57%    0.34%    0.34%
  8  1     8    1  |1 1>+         7.71%   19.12%    0.44%    0.21%    0.04%    1.92%    1.99%
  9  1     9    1  |1 1>+         0.00%    0.00%    0.71%   16.78%   22.98%    2.95%    2.93%
 10  1    10    1  |1 1>+         0.00%    0.00%   17.69%   12.56%    0.40%    9.90%    9.20%
 11  1    11    1  |1 1>+         0.00%    0.00%   11.91%    0.85%    5.93%   17.54%   17.37%
 12  1     1    1  |1 0>          0.00%    0.00%    0.00%    0.00%    0.00%    0.00%    0.00%
 13  1     2    1  |1 0>          0.00%    0.00%    0.00%    0.00%    0.00%    0.00%    0.00%
 14  1     3    1  |1 0>          0.00%    0.00%    0.00%    0.00%    0.00%    0.00%    0.00%
 15  1     4    1  |1 0>          0.08%    0.00%    0.59%    1.87%    4.27%    0.00%    0.00%
 16  1     5    1  |1 0>          0.00%    0.00%    0.00%    0.01%    0.02%    0.00%    0.00%
 17  1     6    1  |1 0>         21.94%   11.31%    1.02%    0.00%    0.12%    0.16%    2.12%
 18  1     7    1  |1 0>          3.32%    8.02%    0.08%    0.76%    0.47%    0.12%    1.51%
 19  1     8    1  |1 0>          8.11%   13.99%    0.46%    0.46%    0.04%    0.20%    2.66%
 20  1     9    1  |1 0>          0.00%    0.00%   26.45%    5.12%   11.59%    2.16%    0.17%
 21  1    10    1  |1 0>          0.00%    0.00%    8.30%    6.13%    0.33%   37.54%    2.74%
 22  1    11    1  |1 0>          0.00%    0.00%    6.22%   21.23%    4.45%   15.93%    1.33%
 23  1     1    1  |1 1>-         0.00%    0.00%    0.00%    0.00%    0.00%    0.00%    0.00%
 24  1     2    1  |1 1>-         0.00%    0.00%    0.00%    0.00%    0.00%    0.00%    0.00%
 25  1     3    1  |1 1>-         0.00%    0.00%    0.00%    0.00%    0.00%    0.00%    0.00%
 26  1     4    1  |1 1>-         5.66%    0.00%    1.27%    0.85%    0.03%    0.00%    0.00%
 27  1     5    1  |1 1>-        12.20%    0.00%    2.72%    1.82%    0.08%    0.00%    0.00%
 28  1     6    1  |1 1>-         4.53%   11.08%    0.04%    0.00%    1.09%    2.12%    0.14%
 29  1     7    1  |1 1>-         3.36%   21.96%    0.06%    0.02%    0.50%    4.17%    0.28%
 30  1     8    1  |1 1>-         7.50%    0.29%    0.59%    1.01%    0.08%    0.06%    0.00%
 31  1     9    1  |1 1>-         0.00%    0.00%    0.03%    0.16%    5.90%    3.29%   48.46%
 32  1    10    1  |1 1>-         0.00%    0.00%   18.25%   26.60%    0.05%    0.00%    0.02%
 33  1    11    1  |1 1>-         0.00%    0.00%    0.26%    0.38%   38.20%    0.50%    7.60%
 34  1     1    1  |0 0>          0.00%    0.00%    0.00%    0.00%    0.01%    0.01%    0.00%
 35  1     2    1  |0 0>          0.00%    0.00%    0.00%    0.00%    0.01%    0.01%    0.00%
 36  1     3    1  |0 0>          0.00%    0.00%    0.02%    0.00%    0.00%    0.00%    0.00%
 37  1     4    1  |0 0>          0.00%    0.00%    0.00%    0.00%    0.00%    0.00%    0.02%
 38  1     5    1  |0 0>          0.00%    0.00%    0.00%    0.02%    0.00%    0.00%    0.00%
 39  1     6    1  |0 0>          0.00%    0.00%    0.00%    0.00%    0.00%    0.00%    0.00%


 No matrix element <i|DMX|i> larger than 5E-7
 No matrix element <i|DMX|1> larger than 5E-7

 No matrix element <i|DMY|i> larger than 5E-7
 No matrix element <i|DMY|1> larger than 5E-7

 No matrix element <i|DMZ|i> larger than 5E-7
 No matrix element <i|DMZ|1> larger than 5E-7


 **********************************************************************************************************************************
 DATASETS  * FILE   NREC   LENGTH (MB)   RECORD NAMES
              1      21       36.28       500      610      700      900      950      970     1000      129      960     1100   
                                          VAR    BASINP    GEOM    SYMINP    ZMAT    AOBASIS   BASIS     P2S    ABASIS      S 
                                         1400     1410     1420     1200     1210     1080     1700     1600     1650     1380   
                                           T        V       ECP      H0       H01     AOSYM    OPER      SMH    MOLCAS    JKOP   
                                         1700(1)
                                         OPER   

              2       7      825.87       700     1000      520     2100     2140     5201     5101   
                                         GEOM     BASIS   MCVARS     RHF     MCSCF    MRCI     MRCI   

 PROGRAMS   *        TOTAL        CI        CI        CI     MULTI   RHF-SCF       INT
 CPU TIMES  *     67557.31  63930.53    576.80   3047.27      1.61      0.10      0.64
 REAL TIME  *     68181.90 SEC
 DISK USED  *       862.24 MB (local),       10.16 GB (total)
 SF USED    *         6.58 GB
 GA USED    *         0.00 MB       (max)       0.00 MB       (current)
 **********************************************************************************************************************************

 CI/aug-cc-pWCVTZ-PP energy=   -213.869331711364

              CI              CI           MULTI         RHF-SCF
   -213.95135815   -213.81980847   -213.28013958   -213.37363633
 **********************************************************************************************************************************
 Molpro calculation terminated with 1 warning(s)
