
 Working directory              : /wrk/irikura/molpro.8jbnGwgIWf/
 Global scratch directory       : /wrk/irikura/molpro.8jbnGwgIWf/
 Wavefunction directory         : /home/irikura/wfu/
 Main file repository           : /wrk/irikura/molpro.8jbnGwgIWf/

 id        : nistki

 Nodes            nprocs
 pn125343.nist.gov   14
 GA implementation: MPI file
 GA implementation (serial work in mppx): MPI file

 Using customized tuning parameters: mindgm=1; mindgv=20; mindgc=4; mindgr=1; noblas=0; minvec=7
 default implementation of scratch files=sf  


 Variables initialized (1042), CPU time= 0.00 sec
 ***,Sn SO-CI
 memory,1300,M;
 
 gprint,orbitals,civector,basis;
 
 symmetry,xyz
 geometry={Sn};
 
 basis={
 spdfgh,sn,aug-cc-pwCVQZ-DK3;C; spdf,1,even,nprim=1,ratio=3.0;
 }
 
 set,dkho=101
 
                                                                                 ! spherical dication (1S) orbitals
 {rhf;wf,nelec=48,sym=1,spin=0}
 
 NTRIP=12
 NSING=15
 
                                                                                 ! (4/7) active space (s + 2*p)
 {multi
     occ,15,15
     wf,nelec=50,sym=1,spin=2;state,NTRIP;
     expec2,lxx,lyy,lzz;
     wf,nelec=50,sym=1,spin=0;state,NSING;
     dynw,8
     expec2,lxx,lyy,lzz;
 }
 table, energy, ll
 title, Energies and &lt;L**2&gt; values
 
                                                                                 ! free KL shells
 core,8,6
 
 {ci;wf,sym=1,spin=2;state,NTRIP; save,5203.2}
 hlsdiag = energd4
 {ci;wf,sym=1,spin=0;state,NSING; save,5201.2}
 hlsdiag(NTRIP+1) = energd4
 
 table,hlsdiag
 
                                                                                 !lsint
 {ci;hlsmat,ls,5203.2,5201.2;print,vls=0,hls=0}                                  !compute and diagonalize SO matrix
 Commands initialized (847), CPU time= 0.01 sec, 718 directives.
 Default parameters read. Elapsed time= 0.09 sec

 Checking input...
 Passed
1


                                         ***  PROGRAM SYSTEM MOLPRO  ***
                                       Copyright, TTI GmbH Stuttgart, 2015
                                    Version 2024.1 linked Mon Jun 17 07:53:25 2024


 **********************************************************************************************************************************
 LABEL *   Sn SO-CI                                                                                                                                                      
  (64 PROC) 64 bit mpp version                                                           DATE: 28-Oct-24          TIME: 11:29:45  
 **********************************************************************************************************************************

 SHA1:             0134236b472f03f1f5189f93707d8671e415b05c
 **********************************************************************************************************************************

 Memory per process:      1300 MW
 Total memory per node:  18200 MW

 GA preallocation disabled
 GA check disabled

 Variable memory set to 1300.0 MW


 ZSYMEL=XYZ

 SETTING BASIS          =    USERDEF
 SETTING DKHO           =       101.00000000                                  


 Recomputing integrals since basis changed


 Using spherical harmonics

 Library entry SN     S AUG-CC-PWCVQZ-DK     selected for orbital group  1
 Even tempered Sn S diffuse               selected for group 1    nprim= 1    centre=  0.007    ratio= 3.000    dratio= 1.000
 Library entry SN     P AUG-CC-PWCVQZ-DK     selected for orbital group  1
 Even tempered Sn P diffuse               selected for group 1    nprim= 1    centre=  0.005    ratio= 3.000    dratio= 1.000
 Library entry SN     D AUG-CC-PWCVQZ-DK     selected for orbital group  1
 Even tempered Sn D diffuse               selected for group 1    nprim= 1    centre=  0.010    ratio= 3.000    dratio= 1.000
 Library entry SN     F AUG-CC-PWCVQZ-DK     selected for orbital group  1
 Even tempered Sn F diffuse               selected for group 1    nprim= 1    centre=  0.024    ratio= 3.000    dratio= 1.000
 Library entry SN     G AUG-CC-PWCVQZ-DK     selected for orbital group  1
 Library entry SN     H AUG-CC-PWCVQZ-DK     selected for orbital group  1


 PROGRAM * SEWARD (Integral evaluation for generally contracted gaussian basis sets)     Author: Roland Lindh, 1990

 Geometry written to block  1 of record 700

 Orientation using atomic masses  
 Molecule type: Atom
 User-specified symmetry elements: XYZ
 Symmetry elements: XYZ
 Rotational constants:       0.0000000      0.0000000      0.0000000 GHz  (calculated with average atomic masses)

 Point group  Ci  



 ATOMIC COORDINATES

 NR  ATOM    CHARGE       X              Y              Z

   1  SN     50.00    0.000000000    0.000000000    0.000000000


 BASIS DATA

   Nr Sym  Nuc  Type         Exponents   Contraction coefficients

    1.1 Ag    1  1s   469226900.000000     0.000038   -0.000013    0.000006   -0.000003    0.000001    0.000000
                                           0.000000    0.000000    0.000000    0.000000    0.000000
    2.1 Ag             72184220.000000     0.000099   -0.000034    0.000015   -0.000007    0.000002    0.000000
                                           0.000000    0.000000    0.000000    0.000000    0.000000
    3.1 Ag             15805330.000000     0.000250   -0.000086    0.000038   -0.000017    0.000005    0.000000
                                           0.000000    0.000000    0.000000    0.000000    0.000000
    4.1 Ag              4517315.000000     0.000504   -0.000173    0.000076   -0.000033    0.000010    0.000000
                                           0.000000    0.000000    0.000000    0.000000    0.000000
    5.1 Ag              1568784.000000     0.000941   -0.000324    0.000143   -0.000062    0.000019    0.000000
                                           0.000000    0.000000    0.000000    0.000000    0.000000
    6.1 Ag               624679.700000     0.001637   -0.000564    0.000249   -0.000109    0.000033    0.000000
                                           0.000000    0.000000    0.000000    0.000000    0.000000
    7.1 Ag               272472.400000     0.002828   -0.000978    0.000432   -0.000188    0.000056    0.000000
                                           0.000000    0.000000    0.000000    0.000000    0.000000
    8.1 Ag               125750.800000     0.004883   -0.001695    0.000750   -0.000326    0.000098    0.000000
                                           0.000000    0.000000    0.000000    0.000000    0.000000
    9.1 Ag                59897.070000     0.008659   -0.003027    0.001340   -0.000584    0.000175    0.000000
                                           0.000000    0.000000    0.000000    0.000000    0.000000
   10.1 Ag                28964.140000     0.015769   -0.005565    0.002468   -0.001074    0.000322    0.000000
                                           0.000000    0.000000    0.000000    0.000000    0.000000
   11.1 Ag                14087.650000     0.029640   -0.010627    0.004723   -0.002058    0.000618    0.000000
                                           0.000000    0.000000    0.000000    0.000000    0.000000
                           6868.293000     0.056728   -0.020864    0.009310   -0.004057    0.001217    0.000000
                                           0.000000    0.000000    0.000000    0.000000    0.000000
                           3360.376000     0.107467   -0.041349    0.018571   -0.008110    0.002438    0.000000
                                           0.000000    0.000000    0.000000    0.000000    0.000000
                           1657.206000     0.189129   -0.078891    0.035876   -0.015694    0.004708    0.000000
                                           0.000000    0.000000    0.000000    0.000000    0.000000
                            829.085700     0.277628   -0.134221    0.062453   -0.027483    0.008277    0.000000
                                           0.000000    0.000000    0.000000    0.000000    0.000000
                            423.783000     0.285559   -0.174436    0.084527   -0.037433    0.011234    0.000000
                                           0.000000    0.000000    0.000000    0.000000    0.000000
                            222.759800     0.160817   -0.109356    0.055339   -0.024921    0.007613    0.000000
                                           0.000000    0.000000    0.000000    0.000000    0.000000
                            120.972500     0.035052    0.136247   -0.086780    0.040932   -0.012685    0.000000
                                           0.000000    0.000000    0.000000    0.000000    0.000000
                             67.970380     0.002506    0.421226   -0.331937    0.162673   -0.049362    0.000000
                                           0.000000    0.000000    0.000000    0.000000    0.000000
                             39.392970    -0.000143    0.412131   -0.426917    0.223877   -0.070607    0.000000
                                           0.000000    0.000000    0.000000    0.000000    0.000000
                             23.343340     0.000243    0.179955   -0.166073    0.087467   -0.025385    0.000000
                                           0.000000    0.000000    0.000000    0.000000    0.000000
                             13.920860    -0.000246    0.030972    0.370313   -0.241287    0.074899    0.000000
                                           0.000000    0.000000    0.000000    0.000000    0.000000
                              8.154829     0.000098    0.002375    0.684164   -0.720956    0.098654    1.000000
                                           0.000000    0.000000    0.000000    0.000000    0.000000
                              4.536367    -0.000057    0.000082    0.299890   -0.316189   -0.144339    0.000000
                                           0.000000    0.000000    0.000000    0.000000    0.000000
                              2.291372     0.000031   -0.000160    0.023644    0.651603    0.000000    0.000000
                                           1.000000    0.000000    0.000000    0.000000    0.000000
                              1.172525    -0.000013   -0.000049    0.002125    0.684852    0.000000    0.000000
                                           0.000000    1.000000    0.000000    0.000000    0.000000
                              0.576381     0.000007   -0.000006   -0.000076    0.134798    0.000000    0.000000
                                           0.000000    0.000000    0.000000    0.000000    0.000000
                              0.261814    -0.000003    0.000001    0.000165    0.000115    0.000000    0.000000
                                           0.000000    0.000000    1.000000    0.000000    0.000000
                              0.118497     0.000001    0.000000   -0.000084    0.000986    0.000000    0.000000
                                           0.000000    0.000000    0.000000    1.000000    0.000000
                              0.053165    -0.000000    0.000000    0.000018   -0.000138    0.000000    0.000000
                                           0.000000    0.000000    0.000000    0.000000    1.000000
   12.1 Ag    1  1s           0.021799     1.000000
   13.1 Ag    1  1s           0.007266     1.000000
   14.1 Ag    1  3d0      12480.220000     0.000019
                           3349.125000     0.000147
                           1172.286000     0.000917
                            489.316100     0.004398
                            228.706900     0.016836
                            114.839600     0.050722
                             60.396490     0.123298
                             32.787480     0.226513
                             18.206300     0.307674
                             10.248340     0.295032
                              5.765704     0.164933
                              3.163024     0.044161
                              1.699094     0.003581
                              0.900358     0.000481
                              0.467314    -0.000127
                              0.228587     0.000040
                              0.086578    -0.000012
   15.1 Ag    1  3d2-     12480.220000     0.000019
                           3349.125000     0.000147
                           1172.286000     0.000917
                            489.316100     0.004398
                            228.706900     0.016836
                            114.839600     0.050722
                             60.396490     0.123298
                             32.787480     0.226513
                             18.206300     0.307674
                             10.248340     0.295032
                              5.765704     0.164933
                              3.163024     0.044161
                              1.699094     0.003581
                              0.900358     0.000481
                              0.467314    -0.000127
                              0.228587     0.000040
                              0.086578    -0.000012
   16.1 Ag    1  3d1+     12480.220000     0.000019
                           3349.125000     0.000147
                           1172.286000     0.000917
                            489.316100     0.004398
                            228.706900     0.016836
                            114.839600     0.050722
                             60.396490     0.123298
                             32.787480     0.226513
                             18.206300     0.307674
                             10.248340     0.295032
                              5.765704     0.164933
                              3.163024     0.044161
                              1.699094     0.003581
                              0.900358     0.000481
                              0.467314    -0.000127
                              0.228587     0.000040
                              0.086578    -0.000012
   17.1 Ag    1  3d2+     12480.220000     0.000019
                           3349.125000     0.000147
                           1172.286000     0.000917
                            489.316100     0.004398
                            228.706900     0.016836
                            114.839600     0.050722
                             60.396490     0.123298
                             32.787480     0.226513
                             18.206300     0.307674
                             10.248340     0.295032
                              5.765704     0.164933
                              3.163024     0.044161
                              1.699094     0.003581
                              0.900358     0.000481
                              0.467314    -0.000127
                              0.228587     0.000040
                              0.086578    -0.000012
   18.1 Ag    1  3d1-     12480.220000     0.000019
                           3349.125000     0.000147
                           1172.286000     0.000917
                            489.316100     0.004398
                            228.706900     0.016836
                            114.839600     0.050722
                             60.396490     0.123298
                             32.787480     0.226513
                             18.206300     0.307674
                             10.248340     0.295032
                              5.765704     0.164933
                              3.163024     0.044161
                              1.699094     0.003581
                              0.900358     0.000481
                              0.467314    -0.000127
                              0.228587     0.000040
                              0.086578    -0.000012
   19.1 Ag    1  3d0      12480.220000    -0.000007
                           3349.125000    -0.000055
                           1172.286000    -0.000341
                            489.316100    -0.001642
                            228.706900    -0.006316
                            114.839600    -0.019191
                             60.396490    -0.047318
                             32.787480    -0.086941
                             18.206300    -0.113774
                             10.248340    -0.092388
                              5.765704     0.048153
                              3.163024     0.254422
                              1.699094     0.365086
                              0.900358     0.315096
                              0.467314     0.167837
                              0.228587     0.044447
                              0.086578     0.002542
   20.1 Ag    1  3d2-     12480.220000    -0.000007
                           3349.125000    -0.000055
                           1172.286000    -0.000341
                            489.316100    -0.001642
                            228.706900    -0.006316
                            114.839600    -0.019191
                             60.396490    -0.047318
                             32.787480    -0.086941
                             18.206300    -0.113774
                             10.248340    -0.092388
                              5.765704     0.048153
                              3.163024     0.254422
                              1.699094     0.365086
                              0.900358     0.315096
                              0.467314     0.167837
                              0.228587     0.044447
                              0.086578     0.002542
   21.1 Ag    1  3d1+     12480.220000    -0.000007
                           3349.125000    -0.000055
                           1172.286000    -0.000341
                            489.316100    -0.001642
                            228.706900    -0.006316
                            114.839600    -0.019191
                             60.396490    -0.047318
                             32.787480    -0.086941
                             18.206300    -0.113774
                             10.248340    -0.092388
                              5.765704     0.048153
                              3.163024     0.254422
                              1.699094     0.365086
                              0.900358     0.315096
                              0.467314     0.167837
                              0.228587     0.044447
                              0.086578     0.002542
   22.1 Ag    1  3d2+     12480.220000    -0.000007
                           3349.125000    -0.000055
                           1172.286000    -0.000341
                            489.316100    -0.001642
                            228.706900    -0.006316
                            114.839600    -0.019191
                             60.396490    -0.047318
                             32.787480    -0.086941
                             18.206300    -0.113774
                             10.248340    -0.092388
                              5.765704     0.048153
                              3.163024     0.254422
                              1.699094     0.365086
                              0.900358     0.315096
                              0.467314     0.167837
                              0.228587     0.044447
                              0.086578     0.002542
   23.1 Ag    1  3d1-     12480.220000    -0.000007
                           3349.125000    -0.000055
                           1172.286000    -0.000341
                            489.316100    -0.001642
                            228.706900    -0.006316
                            114.839600    -0.019191
                             60.396490    -0.047318
                             32.787480    -0.086941
                             18.206300    -0.113774
                             10.248340    -0.092388
                              5.765704     0.048153
                              3.163024     0.254422
                              1.699094     0.365086
                              0.900358     0.315096
                              0.467314     0.167837
                              0.228587     0.044447
                              0.086578     0.002542
   24.1 Ag    1  3d0      12480.220000     0.000000
                           3349.125000     0.000000
                           1172.286000     0.000000
                            489.316100     0.000000
                            228.706900     0.000000
                            114.839600     0.000000
                             60.396490     0.000000
                             32.787480     0.000000
                             18.206300     0.000000
                             10.248340     0.000000
                              5.765704     0.000000
                              3.163024     1.000000
                              1.699094     0.000000
                              0.900358     0.000000
                              0.467314     0.000000
                              0.228587     0.000000
                              0.086578     0.000000
   25.1 Ag    1  3d2-     12480.220000     0.000000
                           3349.125000     0.000000
                           1172.286000     0.000000
                            489.316100     0.000000
                            228.706900     0.000000
                            114.839600     0.000000
                             60.396490     0.000000
                             32.787480     0.000000
                             18.206300     0.000000
                             10.248340     0.000000
                              5.765704     0.000000
                              3.163024     1.000000
                              1.699094     0.000000
                              0.900358     0.000000
                              0.467314     0.000000
                              0.228587     0.000000
                              0.086578     0.000000
   26.1 Ag    1  3d1+     12480.220000     0.000000
                           3349.125000     0.000000
                           1172.286000     0.000000
                            489.316100     0.000000
                            228.706900     0.000000
                            114.839600     0.000000
                             60.396490     0.000000
                             32.787480     0.000000
                             18.206300     0.000000
                             10.248340     0.000000
                              5.765704     0.000000
                              3.163024     1.000000
                              1.699094     0.000000
                              0.900358     0.000000
                              0.467314     0.000000
                              0.228587     0.000000
                              0.086578     0.000000
   27.1 Ag    1  3d2+     12480.220000     0.000000
                           3349.125000     0.000000
                           1172.286000     0.000000
                            489.316100     0.000000
                            228.706900     0.000000
                            114.839600     0.000000
                             60.396490     0.000000
                             32.787480     0.000000
                             18.206300     0.000000
                             10.248340     0.000000
                              5.765704     0.000000
                              3.163024     1.000000
                              1.699094     0.000000
                              0.900358     0.000000
                              0.467314     0.000000
                              0.228587     0.000000
                              0.086578     0.000000
   28.1 Ag    1  3d1-     12480.220000     0.000000
                           3349.125000     0.000000
                           1172.286000     0.000000
                            489.316100     0.000000
                            228.706900     0.000000
                            114.839600     0.000000
                             60.396490     0.000000
                             32.787480     0.000000
                             18.206300     0.000000
                             10.248340     0.000000
                              5.765704     0.000000
                              3.163024     1.000000
                              1.699094     0.000000
                              0.900358     0.000000
                              0.467314     0.000000
                              0.228587     0.000000
                              0.086578     0.000000
   29.1 Ag    1  3d0      12480.220000     0.000000
                           3349.125000     0.000000
                           1172.286000     0.000000
                            489.316100     0.000000
                            228.706900     0.000000
                            114.839600     0.000000
                             60.396490     0.000000
                             32.787480     0.000000
                             18.206300     0.000000
                             10.248340     0.000000
                              5.765704     0.000000
                              3.163024     0.000000
                              1.699094     1.000000
                              0.900358     0.000000
                              0.467314     0.000000
                              0.228587     0.000000
                              0.086578     0.000000
   30.1 Ag    1  3d2-     12480.220000     0.000000
                           3349.125000     0.000000
                           1172.286000     0.000000
                            489.316100     0.000000
                            228.706900     0.000000
                            114.839600     0.000000
                             60.396490     0.000000
                             32.787480     0.000000
                             18.206300     0.000000
                             10.248340     0.000000
                              5.765704     0.000000
                              3.163024     0.000000
                              1.699094     1.000000
                              0.900358     0.000000
                              0.467314     0.000000
                              0.228587     0.000000
                              0.086578     0.000000
   31.1 Ag    1  3d1+     12480.220000     0.000000
                           3349.125000     0.000000
                           1172.286000     0.000000
                            489.316100     0.000000
                            228.706900     0.000000
                            114.839600     0.000000
                             60.396490     0.000000
                             32.787480     0.000000
                             18.206300     0.000000
                             10.248340     0.000000
                              5.765704     0.000000
                              3.163024     0.000000
                              1.699094     1.000000
                              0.900358     0.000000
                              0.467314     0.000000
                              0.228587     0.000000
                              0.086578     0.000000
   32.1 Ag    1  3d2+     12480.220000     0.000000
                           3349.125000     0.000000
                           1172.286000     0.000000
                            489.316100     0.000000
                            228.706900     0.000000
                            114.839600     0.000000
                             60.396490     0.000000
                             32.787480     0.000000
                             18.206300     0.000000
                             10.248340     0.000000
                              5.765704     0.000000
                              3.163024     0.000000
                              1.699094     1.000000
                              0.900358     0.000000
                              0.467314     0.000000
                              0.228587     0.000000
                              0.086578     0.000000
   33.1 Ag    1  3d1-     12480.220000     0.000000
                           3349.125000     0.000000
                           1172.286000     0.000000
                            489.316100     0.000000
                            228.706900     0.000000
                            114.839600     0.000000
                             60.396490     0.000000
                             32.787480     0.000000
                             18.206300     0.000000
                             10.248340     0.000000
                              5.765704     0.000000
                              3.163024     0.000000
                              1.699094     1.000000
                              0.900358     0.000000
                              0.467314     0.000000
                              0.228587     0.000000
                              0.086578     0.000000
   34.1 Ag    1  3d0      12480.220000     0.000000
                           3349.125000     0.000000
                           1172.286000     0.000000
                            489.316100     0.000000
                            228.706900     0.000000
                            114.839600     0.000000
                             60.396490     0.000000
                             32.787480     0.000000
                             18.206300     0.000000
                             10.248340     0.000000
                              5.765704     0.000000
                              3.163024     0.000000
                              1.699094     0.000000
                              0.900358     1.000000
                              0.467314     0.000000
                              0.228587     0.000000
                              0.086578     0.000000
   35.1 Ag    1  3d2-     12480.220000     0.000000
                           3349.125000     0.000000
                           1172.286000     0.000000
                            489.316100     0.000000
                            228.706900     0.000000
                            114.839600     0.000000
                             60.396490     0.000000
                             32.787480     0.000000
                             18.206300     0.000000
                             10.248340     0.000000
                              5.765704     0.000000
                              3.163024     0.000000
                              1.699094     0.000000
                              0.900358     1.000000
                              0.467314     0.000000
                              0.228587     0.000000
                              0.086578     0.000000
   36.1 Ag    1  3d1+     12480.220000     0.000000
                           3349.125000     0.000000
                           1172.286000     0.000000
                            489.316100     0.000000
                            228.706900     0.000000
                            114.839600     0.000000
                             60.396490     0.000000
                             32.787480     0.000000
                             18.206300     0.000000
                             10.248340     0.000000
                              5.765704     0.000000
                              3.163024     0.000000
                              1.699094     0.000000
                              0.900358     1.000000
                              0.467314     0.000000
                              0.228587     0.000000
                              0.086578     0.000000
   37.1 Ag    1  3d2+     12480.220000     0.000000
                           3349.125000     0.000000
                           1172.286000     0.000000
                            489.316100     0.000000
                            228.706900     0.000000
                            114.839600     0.000000
                             60.396490     0.000000
                             32.787480     0.000000
                             18.206300     0.000000
                             10.248340     0.000000
                              5.765704     0.000000
                              3.163024     0.000000
                              1.699094     0.000000
                              0.900358     1.000000
                              0.467314     0.000000
                              0.228587     0.000000
                              0.086578     0.000000
   38.1 Ag    1  3d1-     12480.220000     0.000000
                           3349.125000     0.000000
                           1172.286000     0.000000
                            489.316100     0.000000
                            228.706900     0.000000
                            114.839600     0.000000
                             60.396490     0.000000
                             32.787480     0.000000
                             18.206300     0.000000
                             10.248340     0.000000
                              5.765704     0.000000
                              3.163024     0.000000
                              1.699094     0.000000
                              0.900358     1.000000
                              0.467314     0.000000
                              0.228587     0.000000
                              0.086578     0.000000
   39.1 Ag    1  3d0      12480.220000     0.000000
                           3349.125000     0.000000
                           1172.286000     0.000000
                            489.316100     0.000000
                            228.706900     0.000000
                            114.839600     0.000000
                             60.396490     0.000000
                             32.787480     0.000000
                             18.206300     0.000000
                             10.248340     0.000000
                              5.765704     0.000000
                              3.163024     0.000000
                              1.699094     0.000000
                              0.900358     0.000000
                              0.467314     1.000000
                              0.228587     0.000000
                              0.086578     0.000000
   40.1 Ag    1  3d2-     12480.220000     0.000000
                           3349.125000     0.000000
                           1172.286000     0.000000
                            489.316100     0.000000
                            228.706900     0.000000
                            114.839600     0.000000
                             60.396490     0.000000
                             32.787480     0.000000
                             18.206300     0.000000
                             10.248340     0.000000
                              5.765704     0.000000
                              3.163024     0.000000
                              1.699094     0.000000
                              0.900358     0.000000
                              0.467314     1.000000
                              0.228587     0.000000
                              0.086578     0.000000
   41.1 Ag    1  3d1+     12480.220000     0.000000
                           3349.125000     0.000000
                           1172.286000     0.000000
                            489.316100     0.000000
                            228.706900     0.000000
                            114.839600     0.000000
                             60.396490     0.000000
                             32.787480     0.000000
                             18.206300     0.000000
                             10.248340     0.000000
                              5.765704     0.000000
                              3.163024     0.000000
                              1.699094     0.000000
                              0.900358     0.000000
                              0.467314     1.000000
                              0.228587     0.000000
                              0.086578     0.000000
   42.1 Ag    1  3d2+     12480.220000     0.000000
                           3349.125000     0.000000
                           1172.286000     0.000000
                            489.316100     0.000000
                            228.706900     0.000000
                            114.839600     0.000000
                             60.396490     0.000000
                             32.787480     0.000000
                             18.206300     0.000000
                             10.248340     0.000000
                              5.765704     0.000000
                              3.163024     0.000000
                              1.699094     0.000000
                              0.900358     0.000000
                              0.467314     1.000000
                              0.228587     0.000000
                              0.086578     0.000000
   43.1 Ag    1  3d1-     12480.220000     0.000000
                           3349.125000     0.000000
                           1172.286000     0.000000
                            489.316100     0.000000
                            228.706900     0.000000
                            114.839600     0.000000
                             60.396490     0.000000
                             32.787480     0.000000
                             18.206300     0.000000
                             10.248340     0.000000
                              5.765704     0.000000
                              3.163024     0.000000
                              1.699094     0.000000
                              0.900358     0.000000
                              0.467314     1.000000
                              0.228587     0.000000
                              0.086578     0.000000
   44.1 Ag    1  3d0      12480.220000     0.000000
                           3349.125000     0.000000
                           1172.286000     0.000000
                            489.316100     0.000000
                            228.706900     0.000000
                            114.839600     0.000000
                             60.396490     0.000000
                             32.787480     0.000000
                             18.206300     0.000000
                             10.248340     0.000000
                              5.765704     0.000000
                              3.163024     0.000000
                              1.699094     0.000000
                              0.900358     0.000000
                              0.467314     0.000000
                              0.228587     1.000000
                              0.086578     0.000000
   45.1 Ag    1  3d2-     12480.220000     0.000000
                           3349.125000     0.000000
                           1172.286000     0.000000
                            489.316100     0.000000
                            228.706900     0.000000
                            114.839600     0.000000
                             60.396490     0.000000
                             32.787480     0.000000
                             18.206300     0.000000
                             10.248340     0.000000
                              5.765704     0.000000
                              3.163024     0.000000
                              1.699094     0.000000
                              0.900358     0.000000
                              0.467314     0.000000
                              0.228587     1.000000
                              0.086578     0.000000
   46.1 Ag    1  3d1+     12480.220000     0.000000
                           3349.125000     0.000000
                           1172.286000     0.000000
                            489.316100     0.000000
                            228.706900     0.000000
                            114.839600     0.000000
                             60.396490     0.000000
                             32.787480     0.000000
                             18.206300     0.000000
                             10.248340     0.000000
                              5.765704     0.000000
                              3.163024     0.000000
                              1.699094     0.000000
                              0.900358     0.000000
                              0.467314     0.000000
                              0.228587     1.000000
                              0.086578     0.000000
   47.1 Ag    1  3d2+     12480.220000     0.000000
                           3349.125000     0.000000
                           1172.286000     0.000000
                            489.316100     0.000000
                            228.706900     0.000000
                            114.839600     0.000000
                             60.396490     0.000000
                             32.787480     0.000000
                             18.206300     0.000000
                             10.248340     0.000000
                              5.765704     0.000000
                              3.163024     0.000000
                              1.699094     0.000000
                              0.900358     0.000000
                              0.467314     0.000000
                              0.228587     1.000000
                              0.086578     0.000000
   48.1 Ag    1  3d1-     12480.220000     0.000000
                           3349.125000     0.000000
                           1172.286000     0.000000
                            489.316100     0.000000
                            228.706900     0.000000
                            114.839600     0.000000
                             60.396490     0.000000
                             32.787480     0.000000
                             18.206300     0.000000
                             10.248340     0.000000
                              5.765704     0.000000
                              3.163024     0.000000
                              1.699094     0.000000
                              0.900358     0.000000
                              0.467314     0.000000
                              0.228587     1.000000
                              0.086578     0.000000
   49.1 Ag    1  3d0      12480.220000     0.000000
                           3349.125000     0.000000
                           1172.286000     0.000000
                            489.316100     0.000000
                            228.706900     0.000000
                            114.839600     0.000000
                             60.396490     0.000000
                             32.787480     0.000000
                             18.206300     0.000000
                             10.248340     0.000000
                              5.765704     0.000000
                              3.163024     0.000000
                              1.699094     0.000000
                              0.900358     0.000000
                              0.467314     0.000000
                              0.228587     0.000000
                              0.086578     1.000000
   50.1 Ag    1  3d2-     12480.220000     0.000000
                           3349.125000     0.000000
                           1172.286000     0.000000
                            489.316100     0.000000
                            228.706900     0.000000
                            114.839600     0.000000
                             60.396490     0.000000
                             32.787480     0.000000
                             18.206300     0.000000
                             10.248340     0.000000
                              5.765704     0.000000
                              3.163024     0.000000
                              1.699094     0.000000
                              0.900358     0.000000
                              0.467314     0.000000
                              0.228587     0.000000
                              0.086578     1.000000
   51.1 Ag    1  3d1+     12480.220000     0.000000
                           3349.125000     0.000000
                           1172.286000     0.000000
                            489.316100     0.000000
                            228.706900     0.000000
                            114.839600     0.000000
                             60.396490     0.000000
                             32.787480     0.000000
                             18.206300     0.000000
                             10.248340     0.000000
                              5.765704     0.000000
                              3.163024     0.000000
                              1.699094     0.000000
                              0.900358     0.000000
                              0.467314     0.000000
                              0.228587     0.000000
                              0.086578     1.000000
   52.1 Ag    1  3d2+     12480.220000     0.000000
                           3349.125000     0.000000
                           1172.286000     0.000000
                            489.316100     0.000000
                            228.706900     0.000000
                            114.839600     0.000000
                             60.396490     0.000000
                             32.787480     0.000000
                             18.206300     0.000000
                             10.248340     0.000000
                              5.765704     0.000000
                              3.163024     0.000000
                              1.699094     0.000000
                              0.900358     0.000000
                              0.467314     0.000000
                              0.228587     0.000000
                              0.086578     1.000000
   53.1 Ag    1  3d1-     12480.220000     0.000000
                           3349.125000     0.000000
                           1172.286000     0.000000
                            489.316100     0.000000
                            228.706900     0.000000
                            114.839600     0.000000
                             60.396490     0.000000
                             32.787480     0.000000
                             18.206300     0.000000
                             10.248340     0.000000
                              5.765704     0.000000
                              3.163024     0.000000
                              1.699094     0.000000
                              0.900358     0.000000
                              0.467314     0.000000
                              0.228587     0.000000
                              0.086578     1.000000
   54.1 Ag    1  3d0          0.031128     1.000000
   55.1 Ag    1  3d2-         0.031128     1.000000
   56.1 Ag    1  3d1+         0.031128     1.000000
   57.1 Ag    1  3d2+         0.031128     1.000000
   58.1 Ag    1  3d1-         0.031128     1.000000
   59.1 Ag    1  3d0          0.010376     1.000000
   60.1 Ag    1  3d2-         0.010376     1.000000
   61.1 Ag    1  3d1+         0.010376     1.000000
   62.1 Ag    1  3d2+         0.010376     1.000000
   63.1 Ag    1  3d1-         0.010376     1.000000
   64.1 Ag    1  5g0          3.373318     1.000000
   65.1 Ag    1  5g2-         3.373318     1.000000
   66.1 Ag    1  5g1+         3.373318     1.000000
   67.1 Ag    1  5g4+         3.373318     1.000000
   68.1 Ag    1  5g1-         3.373318     1.000000
   69.1 Ag    1  5g2+         3.373318     1.000000
   70.1 Ag    1  5g4-         3.373318     1.000000
   71.1 Ag    1  5g3+         3.373318     1.000000
   72.1 Ag    1  5g3-         3.373318     1.000000
   73.1 Ag    1  5g0          1.084357     1.000000
   74.1 Ag    1  5g2-         1.084357     1.000000
   75.1 Ag    1  5g1+         1.084357     1.000000
   76.1 Ag    1  5g4+         1.084357     1.000000
   77.1 Ag    1  5g1-         1.084357     1.000000
   78.1 Ag    1  5g2+         1.084357     1.000000
   79.1 Ag    1  5g4-         1.084357     1.000000
   80.1 Ag    1  5g3+         1.084357     1.000000
   81.1 Ag    1  5g3-         1.084357     1.000000
   82.1 Ag    1  5g0          0.376636     1.000000
   83.1 Ag    1  5g2-         0.376636     1.000000
   84.1 Ag    1  5g1+         0.376636     1.000000
   85.1 Ag    1  5g4+         0.376636     1.000000
   86.1 Ag    1  5g1-         0.376636     1.000000
   87.1 Ag    1  5g2+         0.376636     1.000000
   88.1 Ag    1  5g4-         0.376636     1.000000
   89.1 Ag    1  5g3+         0.376636     1.000000
   90.1 Ag    1  5g3-         0.376636     1.000000
   91.1 Ag    1  5g0          0.172062     1.000000
   92.1 Ag    1  5g2-         0.172062     1.000000
   93.1 Ag    1  5g1+         0.172062     1.000000
   94.1 Ag    1  5g4+         0.172062     1.000000
   95.1 Ag    1  5g1-         0.172062     1.000000
   96.1 Ag    1  5g2+         0.172062     1.000000
   97.1 Ag    1  5g4-         0.172062     1.000000
   98.1 Ag    1  5g3+         0.172062     1.000000
   99.1 Ag    1  5g3-         0.172062     1.000000
    1.2 Au    1  2px    8028404.000000     0.000007
                        1254944.000000     0.000023
                         267145.100000     0.000076
                          72127.030000     0.000228
                          23324.350000     0.000678
                           8636.501000     0.002025
                           3537.953000     0.006070
                           1563.239000     0.017780
                            731.687200     0.048739
                            358.347100     0.117566
                            182.132500     0.229222
                             95.514180     0.327610
                             51.427170     0.288862
                             28.265390     0.128229
                             15.728380     0.023124
                              8.752581     0.001281
                              4.783919     0.000177
                              2.503843    -0.000162
                              1.279015    -0.000000
                              0.630870    -0.000025
                              0.247055     0.000005
                              0.102829    -0.000002
                              0.041864     0.000001
    2.2 Au    1  2py    8028404.000000     0.000007
                        1254944.000000     0.000023
                         267145.100000     0.000076
                          72127.030000     0.000228
                          23324.350000     0.000678
                           8636.501000     0.002025
                           3537.953000     0.006070
                           1563.239000     0.017780
                            731.687200     0.048739
                            358.347100     0.117566
                            182.132500     0.229222
                             95.514180     0.327610
                             51.427170     0.288862
                             28.265390     0.128229
                             15.728380     0.023124
                              8.752581     0.001281
                              4.783919     0.000177
                              2.503843    -0.000162
                              1.279015    -0.000000
                              0.630870    -0.000025
                              0.247055     0.000005
                              0.102829    -0.000002
                              0.041864     0.000001
    3.2 Au    1  2pz    8028404.000000     0.000007
                        1254944.000000     0.000023
                         267145.100000     0.000076
                          72127.030000     0.000228
                          23324.350000     0.000678
                           8636.501000     0.002025
                           3537.953000     0.006070
                           1563.239000     0.017780
                            731.687200     0.048739
                            358.347100     0.117566
                            182.132500     0.229222
                             95.514180     0.327610
                             51.427170     0.288862
                             28.265390     0.128229
                             15.728380     0.023124
                              8.752581     0.001281
                              4.783919     0.000177
                              2.503843    -0.000162
                              1.279015    -0.000000
                              0.630870    -0.000025
                              0.247055     0.000005
                              0.102829    -0.000002
                              0.041864     0.000001
    4.2 Au    1  2px    8028404.000000    -0.000003
                        1254944.000000    -0.000011
                         267145.100000    -0.000035
                          72127.030000    -0.000105
                          23324.350000    -0.000314
                           8636.501000    -0.000942
                           3537.953000    -0.002836
                           1563.239000    -0.008405
                            731.687200    -0.023419
                            358.347100    -0.058443
                            182.132500    -0.118894
                             95.514180    -0.180139
                             51.427170    -0.138640
                             28.265390     0.088218
                             15.728380     0.387380
                              8.752581     0.453587
                              4.783919     0.187906
                              2.503843     0.022262
                              1.279015     0.001268
                              0.630870     0.000241
                              0.247055    -0.000016
                              0.102829    -0.000002
                              0.041864    -0.000002
    5.2 Au    1  2py    8028404.000000    -0.000003
                        1254944.000000    -0.000011
                         267145.100000    -0.000035
                          72127.030000    -0.000105
                          23324.350000    -0.000314
                           8636.501000    -0.000942
                           3537.953000    -0.002836
                           1563.239000    -0.008405
                            731.687200    -0.023419
                            358.347100    -0.058443
                            182.132500    -0.118894
                             95.514180    -0.180139
                             51.427170    -0.138640
                             28.265390     0.088218
                             15.728380     0.387380
                              8.752581     0.453587
                              4.783919     0.187906
                              2.503843     0.022262
                              1.279015     0.001268
                              0.630870     0.000241
                              0.247055    -0.000016
                              0.102829    -0.000002
                              0.041864    -0.000002
    6.2 Au    1  2pz    8028404.000000    -0.000003
                        1254944.000000    -0.000011
                         267145.100000    -0.000035
                          72127.030000    -0.000105
                          23324.350000    -0.000314
                           8636.501000    -0.000942
                           3537.953000    -0.002836
                           1563.239000    -0.008405
                            731.687200    -0.023419
                            358.347100    -0.058443
                            182.132500    -0.118894
                             95.514180    -0.180139
                             51.427170    -0.138640
                             28.265390     0.088218
                             15.728380     0.387380
                              8.752581     0.453587
                              4.783919     0.187906
                              2.503843     0.022262
                              1.279015     0.001268
                              0.630870     0.000241
                              0.247055    -0.000016
                              0.102829    -0.000002
                              0.041864    -0.000002
    7.2 Au    1  2px    8028404.000000    -0.000001
                        1254944.000000    -0.000004
                         267145.100000    -0.000015
                          72127.030000    -0.000044
                          23324.350000    -0.000131
                           8636.501000    -0.000393
                           3537.953000    -0.001184
                           1563.239000    -0.003516
                            731.687200    -0.009829
                            358.347100    -0.024688
                            182.132500    -0.050664
                             95.514180    -0.077795
                             51.427170    -0.057277
                             28.265390     0.058882
                             15.728380     0.231866
                              8.752581     0.315606
                              4.783919    -0.021321
                              2.503843    -0.481848
                              1.279015    -0.493499
                              0.630870    -0.165545
                              0.247055    -0.010460
                              0.102829     0.000144
                              0.041864    -0.000205
    8.2 Au    1  2py    8028404.000000    -0.000001
                        1254944.000000    -0.000004
                         267145.100000    -0.000015
                          72127.030000    -0.000044
                          23324.350000    -0.000131
                           8636.501000    -0.000393
                           3537.953000    -0.001184
                           1563.239000    -0.003516
                            731.687200    -0.009829
                            358.347100    -0.024688
                            182.132500    -0.050664
                             95.514180    -0.077795
                             51.427170    -0.057277
                             28.265390     0.058882
                             15.728380     0.231866
                              8.752581     0.315606
                              4.783919    -0.021321
                              2.503843    -0.481848
                              1.279015    -0.493499
                              0.630870    -0.165545
                              0.247055    -0.010460
                              0.102829     0.000144
                              0.041864    -0.000205
    9.2 Au    1  2pz    8028404.000000    -0.000001
                        1254944.000000    -0.000004
                         267145.100000    -0.000015
                          72127.030000    -0.000044
                          23324.350000    -0.000131
                           8636.501000    -0.000393
                           3537.953000    -0.001184
                           1563.239000    -0.003516
                            731.687200    -0.009829
                            358.347100    -0.024688
                            182.132500    -0.050664
                             95.514180    -0.077795
                             51.427170    -0.057277
                             28.265390     0.058882
                             15.728380     0.231866
                              8.752581     0.315606
                              4.783919    -0.021321
                              2.503843    -0.481848
                              1.279015    -0.493499
                              0.630870    -0.165545
                              0.247055    -0.010460
                              0.102829     0.000144
                              0.041864    -0.000205
   10.2 Au    1  2px    8028404.000000    -0.000000
                        1254944.000000    -0.000001
                         267145.100000    -0.000003
                          72127.030000    -0.000010
                          23324.350000    -0.000031
                           8636.501000    -0.000092
                           3537.953000    -0.000277
                           1563.239000    -0.000821
                            731.687200    -0.002305
                            358.347100    -0.005768
                            182.132500    -0.011924
                             95.514180    -0.018181
                             51.427170    -0.013603
                             28.265390     0.015119
                             15.728380     0.056189
                              8.752581     0.081484
                              4.783919    -0.017417
                              2.503843     0.000000
                              1.279015     0.000000
                              0.630870     0.000000
                              0.247055     0.000000
                              0.102829     0.000000
                              0.041864     0.000000
   11.2 Au    1  2py    8028404.000000    -0.000000
                        1254944.000000    -0.000001
                         267145.100000    -0.000003
                          72127.030000    -0.000010
                          23324.350000    -0.000031
                           8636.501000    -0.000092
                           3537.953000    -0.000277
                           1563.239000    -0.000821
                            731.687200    -0.002305
                            358.347100    -0.005768
                            182.132500    -0.011924
                             95.514180    -0.018181
                             51.427170    -0.013603
                             28.265390     0.015119
                             15.728380     0.056189
                              8.752581     0.081484
                              4.783919    -0.017417
                              2.503843     0.000000
                              1.279015     0.000000
                              0.630870     0.000000
                              0.247055     0.000000
                              0.102829     0.000000
                              0.041864     0.000000
   12.2 Au    1  2pz    8028404.000000    -0.000000
                        1254944.000000    -0.000001
                         267145.100000    -0.000003
                          72127.030000    -0.000010
                          23324.350000    -0.000031
                           8636.501000    -0.000092
                           3537.953000    -0.000277
                           1563.239000    -0.000821
                            731.687200    -0.002305
                            358.347100    -0.005768
                            182.132500    -0.011924
                             95.514180    -0.018181
                             51.427170    -0.013603
                             28.265390     0.015119
                             15.728380     0.056189
                              8.752581     0.081484
                              4.783919    -0.017417
                              2.503843     0.000000
                              1.279015     0.000000
                              0.630870     0.000000
                              0.247055     0.000000
                              0.102829     0.000000
                              0.041864     0.000000
   13.2 Au    1  2px    8028404.000000     0.000000
                        1254944.000000     0.000000
                         267145.100000     0.000000
                          72127.030000     0.000000
                          23324.350000     0.000000
                           8636.501000     0.000000
                           3537.953000     0.000000
                           1563.239000     0.000000
                            731.687200     0.000000
                            358.347100     0.000000
                            182.132500     0.000000
                             95.514180     0.000000
                             51.427170     0.000000
                             28.265390     0.000000
                             15.728380     0.000000
                              8.752581     0.000000
                              4.783919     1.000000
                              2.503843     0.000000
                              1.279015     0.000000
                              0.630870     0.000000
                              0.247055     0.000000
                              0.102829     0.000000
                              0.041864     0.000000
   14.2 Au    1  2py    8028404.000000     0.000000
                        1254944.000000     0.000000
                         267145.100000     0.000000
                          72127.030000     0.000000
                          23324.350000     0.000000
                           8636.501000     0.000000
                           3537.953000     0.000000
                           1563.239000     0.000000
                            731.687200     0.000000
                            358.347100     0.000000
                            182.132500     0.000000
                             95.514180     0.000000
                             51.427170     0.000000
                             28.265390     0.000000
                             15.728380     0.000000
                              8.752581     0.000000
                              4.783919     1.000000
                              2.503843     0.000000
                              1.279015     0.000000
                              0.630870     0.000000
                              0.247055     0.000000
                              0.102829     0.000000
                              0.041864     0.000000
   15.2 Au    1  2pz    8028404.000000     0.000000
                        1254944.000000     0.000000
                         267145.100000     0.000000
                          72127.030000     0.000000
                          23324.350000     0.000000
                           8636.501000     0.000000
                           3537.953000     0.000000
                           1563.239000     0.000000
                            731.687200     0.000000
                            358.347100     0.000000
                            182.132500     0.000000
                             95.514180     0.000000
                             51.427170     0.000000
                             28.265390     0.000000
                             15.728380     0.000000
                              8.752581     0.000000
                              4.783919     1.000000
                              2.503843     0.000000
                              1.279015     0.000000
                              0.630870     0.000000
                              0.247055     0.000000
                              0.102829     0.000000
                              0.041864     0.000000
   16.2 Au    1  2px    8028404.000000     0.000000
                        1254944.000000     0.000000
                         267145.100000     0.000000
                          72127.030000     0.000000
                          23324.350000     0.000000
                           8636.501000     0.000000
                           3537.953000     0.000000
                           1563.239000     0.000000
                            731.687200     0.000000
                            358.347100     0.000000
                            182.132500     0.000000
                             95.514180     0.000000
                             51.427170     0.000000
                             28.265390     0.000000
                             15.728380     0.000000
                              8.752581     0.000000
                              4.783919     0.000000
                              2.503843     1.000000
                              1.279015     0.000000
                              0.630870     0.000000
                              0.247055     0.000000
                              0.102829     0.000000
                              0.041864     0.000000
   17.2 Au    1  2py    8028404.000000     0.000000
                        1254944.000000     0.000000
                         267145.100000     0.000000
                          72127.030000     0.000000
                          23324.350000     0.000000
                           8636.501000     0.000000
                           3537.953000     0.000000
                           1563.239000     0.000000
                            731.687200     0.000000
                            358.347100     0.000000
                            182.132500     0.000000
                             95.514180     0.000000
                             51.427170     0.000000
                             28.265390     0.000000
                             15.728380     0.000000
                              8.752581     0.000000
                              4.783919     0.000000
                              2.503843     1.000000
                              1.279015     0.000000
                              0.630870     0.000000
                              0.247055     0.000000
                              0.102829     0.000000
                              0.041864     0.000000
   18.2 Au    1  2pz    8028404.000000     0.000000
                        1254944.000000     0.000000
                         267145.100000     0.000000
                          72127.030000     0.000000
                          23324.350000     0.000000
                           8636.501000     0.000000
                           3537.953000     0.000000
                           1563.239000     0.000000
                            731.687200     0.000000
                            358.347100     0.000000
                            182.132500     0.000000
                             95.514180     0.000000
                             51.427170     0.000000
                             28.265390     0.000000
                             15.728380     0.000000
                              8.752581     0.000000
                              4.783919     0.000000
                              2.503843     1.000000
                              1.279015     0.000000
                              0.630870     0.000000
                              0.247055     0.000000
                              0.102829     0.000000
                              0.041864     0.000000
   19.2 Au    1  2px    8028404.000000     0.000000
                        1254944.000000     0.000000
                         267145.100000     0.000000
                          72127.030000     0.000000
                          23324.350000     0.000000
                           8636.501000     0.000000
                           3537.953000     0.000000
                           1563.239000     0.000000
                            731.687200     0.000000
                            358.347100     0.000000
                            182.132500     0.000000
                             95.514180     0.000000
                             51.427170     0.000000
                             28.265390     0.000000
                             15.728380     0.000000
                              8.752581     0.000000
                              4.783919     0.000000
                              2.503843     0.000000
                              1.279015     1.000000
                              0.630870     0.000000
                              0.247055     0.000000
                              0.102829     0.000000
                              0.041864     0.000000
   20.2 Au    1  2py    8028404.000000     0.000000
                        1254944.000000     0.000000
                         267145.100000     0.000000
                          72127.030000     0.000000
                          23324.350000     0.000000
                           8636.501000     0.000000
                           3537.953000     0.000000
                           1563.239000     0.000000
                            731.687200     0.000000
                            358.347100     0.000000
                            182.132500     0.000000
                             95.514180     0.000000
                             51.427170     0.000000
                             28.265390     0.000000
                             15.728380     0.000000
                              8.752581     0.000000
                              4.783919     0.000000
                              2.503843     0.000000
                              1.279015     1.000000
                              0.630870     0.000000
                              0.247055     0.000000
                              0.102829     0.000000
                              0.041864     0.000000
   21.2 Au    1  2pz    8028404.000000     0.000000
                        1254944.000000     0.000000
                         267145.100000     0.000000
                          72127.030000     0.000000
                          23324.350000     0.000000
                           8636.501000     0.000000
                           3537.953000     0.000000
                           1563.239000     0.000000
                            731.687200     0.000000
                            358.347100     0.000000
                            182.132500     0.000000
                             95.514180     0.000000
                             51.427170     0.000000
                             28.265390     0.000000
                             15.728380     0.000000
                              8.752581     0.000000
                              4.783919     0.000000
                              2.503843     0.000000
                              1.279015     1.000000
                              0.630870     0.000000
                              0.247055     0.000000
                              0.102829     0.000000
                              0.041864     0.000000
   22.2 Au    1  2px    8028404.000000     0.000000
                        1254944.000000     0.000000
                         267145.100000     0.000000
                          72127.030000     0.000000
                          23324.350000     0.000000
                           8636.501000     0.000000
                           3537.953000     0.000000
                           1563.239000     0.000000
                            731.687200     0.000000
                            358.347100     0.000000
                            182.132500     0.000000
                             95.514180     0.000000
                             51.427170     0.000000
                             28.265390     0.000000
                             15.728380     0.000000
                              8.752581     0.000000
                              4.783919     0.000000
                              2.503843     0.000000
                              1.279015     0.000000
                              0.630870     0.000000
                              0.247055     1.000000
                              0.102829     0.000000
                              0.041864     0.000000
   23.2 Au    1  2py    8028404.000000     0.000000
                        1254944.000000     0.000000
                         267145.100000     0.000000
                          72127.030000     0.000000
                          23324.350000     0.000000
                           8636.501000     0.000000
                           3537.953000     0.000000
                           1563.239000     0.000000
                            731.687200     0.000000
                            358.347100     0.000000
                            182.132500     0.000000
                             95.514180     0.000000
                             51.427170     0.000000
                             28.265390     0.000000
                             15.728380     0.000000
                              8.752581     0.000000
                              4.783919     0.000000
                              2.503843     0.000000
                              1.279015     0.000000
                              0.630870     0.000000
                              0.247055     1.000000
                              0.102829     0.000000
                              0.041864     0.000000
   24.2 Au    1  2pz    8028404.000000     0.000000
                        1254944.000000     0.000000
                         267145.100000     0.000000
                          72127.030000     0.000000
                          23324.350000     0.000000
                           8636.501000     0.000000
                           3537.953000     0.000000
                           1563.239000     0.000000
                            731.687200     0.000000
                            358.347100     0.000000
                            182.132500     0.000000
                             95.514180     0.000000
                             51.427170     0.000000
                             28.265390     0.000000
                             15.728380     0.000000
                              8.752581     0.000000
                              4.783919     0.000000
                              2.503843     0.000000
                              1.279015     0.000000
                              0.630870     0.000000
                              0.247055     1.000000
                              0.102829     0.000000
                              0.041864     0.000000
   25.2 Au    1  2px    8028404.000000     0.000000
                        1254944.000000     0.000000
                         267145.100000     0.000000
                          72127.030000     0.000000
                          23324.350000     0.000000
                           8636.501000     0.000000
                           3537.953000     0.000000
                           1563.239000     0.000000
                            731.687200     0.000000
                            358.347100     0.000000
                            182.132500     0.000000
                             95.514180     0.000000
                             51.427170     0.000000
                             28.265390     0.000000
                             15.728380     0.000000
                              8.752581     0.000000
                              4.783919     0.000000
                              2.503843     0.000000
                              1.279015     0.000000
                              0.630870     0.000000
                              0.247055     0.000000
                              0.102829     1.000000
                              0.041864     0.000000
   26.2 Au    1  2py    8028404.000000     0.000000
                        1254944.000000     0.000000
                         267145.100000     0.000000
                          72127.030000     0.000000
                          23324.350000     0.000000
                           8636.501000     0.000000
                           3537.953000     0.000000
                           1563.239000     0.000000
                            731.687200     0.000000
                            358.347100     0.000000
                            182.132500     0.000000
                             95.514180     0.000000
                             51.427170     0.000000
                             28.265390     0.000000
                             15.728380     0.000000
                              8.752581     0.000000
                              4.783919     0.000000
                              2.503843     0.000000
                              1.279015     0.000000
[...]
 13  1     1    1  |1 0>          0.00%    0.00%    0.00%    0.00%    0.01%    0.00%    0.00%    0.00%
 14  1     2    1  |1 0>          0.01%    0.00%    0.01%    0.00%    0.00%    0.00%    0.00%    0.00%
 15  1     3    1  |1 0>          0.00%    0.00%    0.00%    0.00%    0.00%    0.01%    0.00%    0.00%
 16  1     4    1  |1 0>          0.00%    0.00%    0.00%    1.43%    0.00%    0.00%    0.00%    0.00%
 17  1     5    1  |1 0>          0.00%    0.00%    0.00%    5.58%    0.00%    0.00%    0.00%    0.00%
 18  1     6    1  |1 0>          6.61%   38.57%    0.00%    0.00%    0.00%    0.00%    0.00%    0.00%
 19  1     7    1  |1 0>          0.00%    0.00%    0.00%    0.00%    5.25%    0.00%   13.92%    0.00%
 20  1     8    1  |1 0>          0.00%    0.00%    0.00%    0.00%    0.00%    5.25%    0.00%   10.81%
 21  1     9    1  |1 0>          0.00%    0.00%    0.00%    0.00%    0.00%   17.61%    0.00%    0.00%
 22  1    10    1  |1 0>          8.57%    1.47%   29.07%    0.00%    0.00%    0.00%    0.00%    0.00%
 23  1    11    1  |1 0>          0.00%    0.00%    0.00%    0.00%   17.60%    0.00%    0.00%    0.00%
 24  1    12    1  |1 0>          0.00%    0.00%    0.00%    2.55%    0.00%    0.00%    0.00%    0.00%
 25  1     1    1  |1 1>-         0.00%    0.00%    0.01%    0.00%    0.00%    0.00%    0.00%    0.00%
 26  1     2    1  |1 1>-         0.00%    0.00%    0.00%    0.00%    0.01%    0.00%    0.00%    0.00%
 27  1     3    1  |1 1>-         0.00%    0.00%    0.00%    0.01%    0.00%    0.00%    0.00%    0.00%
 28  1     4    1  |1 1>-         0.00%    0.00%    0.00%    0.00%    0.00%    2.10%    0.00%   25.82%
 29  1     5    1  |1 1>-         0.00%    0.00%    0.00%    0.00%    0.00%    4.91%    0.00%   33.20%
 30  1     6    1  |1 1>-         0.00%    0.00%    0.00%    0.00%    5.25%    0.00%   26.48%    0.00%
 31  1     7    1  |1 1>-        16.76%   28.42%    0.00%    0.00%    0.00%    0.00%    0.00%    0.00%
 32  1     8    1  |1 1>-         0.00%    0.00%    0.00%    5.25%    0.00%    0.00%    0.00%    0.00%
 33  1     9    1  |1 1>-         0.00%    0.00%    0.00%   17.61%    0.00%    0.00%    0.00%    0.00%
 34  1    10    1  |1 1>-         0.00%    0.00%    0.00%    0.00%   17.60%    0.00%    0.00%    0.00%
 35  1    11    1  |1 1>-         6.31%    3.72%   29.07%    0.00%    0.00%    0.00%    0.00%    0.00%
 36  1    12    1  |1 1>-         0.00%    0.00%    0.00%    0.00%    0.00%    2.55%    0.00%    0.00%
 37  1     1    1  |0 0>          0.00%    0.00%    0.00%    0.00%    0.00%    0.00%    0.00%    0.00%
 38  1     2    1  |0 0>          0.00%    0.02%    0.00%    0.00%    0.00%    0.00%    0.00%    0.00%
 39  1     3    1  |0 0>          0.02%    0.00%    0.00%    0.00%    0.00%    0.00%    0.00%    0.00%
 40  1     4    1  |0 0>          0.00%    0.00%    0.00%    0.00%    0.00%    0.00%    0.00%    0.00%
 41  1     5    1  |0 0>          0.00%    0.00%    0.00%    0.00%    0.00%    0.00%    0.00%    0.00%
 42  1     6    1  |0 0>          0.00%    0.00%    0.04%    0.00%    0.00%    0.00%    0.00%    0.00%
 43  1     7    1  |0 0>          0.00%    0.00%    0.00%   44.71%    0.00%    0.00%    0.00%    0.00%
 44  1     8    1  |0 0>          0.00%    0.00%    0.00%    0.00%   44.71%    0.00%    0.00%    0.00%
 45  1     9    1  |0 0>          0.00%    0.00%    0.00%    0.00%    0.00%   44.71%    0.00%    0.00%
 46  1    10    1  |0 0>          0.00%    0.00%    0.00%    0.00%    0.00%    0.00%    0.00%    0.00%
 47  1    11    1  |0 0>         15.95%    1.18%    0.00%    0.00%    0.00%    0.00%    0.00%    0.00%
 48  1    12    1  |0 0>          0.00%    0.00%    0.00%    0.00%    0.00%    0.00%    0.00%    0.00%
 49  1    13    1  |0 0>          0.00%    0.00%    0.00%    0.00%    0.00%    0.00%    0.00%    0.00%
 50  1    14    1  |0 0>          1.18%   15.95%    0.00%    0.00%    0.00%    0.00%    0.00%    0.00%
 51  1    15    1  |0 0>          0.00%    0.00%   12.72%    0.00%    0.00%    0.00%    0.00%    0.00%

   Total
 Nr Sym  State Sym Spin / Nr.     33       34       35       36       37       38       39       40

  1  1     1    1  |1 1>+         0.00%    0.00%    0.00%    0.00%    0.00%    0.00%    0.00%    0.00%
  2  1     2    1  |1 1>+         0.00%    0.00%    0.00%    0.00%    0.00%    0.00%    0.00%    0.00%
  3  1     3    1  |1 1>+         0.00%    0.00%    0.00%    0.00%    0.00%    0.00%    0.00%    0.00%
  4  1     4    1  |1 1>+         0.00%    0.00%    0.00%    0.40%    0.00%    0.00%    0.06%    0.00%
  5  1     5    1  |1 1>+         0.00%    0.00%    0.01%   33.33%    0.00%    0.00%   18.83%    0.00%
  6  1     6    1  |1 1>+         0.00%   23.17%    0.00%    0.00%    0.00%    0.00%    0.00%    4.72%
  7  1     7    1  |1 1>+        23.40%    0.00%   29.92%    0.01%    0.00%    4.72%    0.00%    0.00%
  8  1     8    1  |1 1>+         0.00%    0.00%    0.00%    0.00%   33.33%    0.00%    0.00%    0.00%
  9  1     9    1  |1 1>+         0.00%    0.00%    0.00%    0.00%    0.00%    0.00%    0.00%    0.00%
 10  1    10    1  |1 1>+         0.00%    0.00%    0.00%    0.00%    0.00%    0.00%    0.00%   30.42%
 11  1    11    1  |1 1>+         0.00%    0.00%    0.00%    0.00%    0.00%   30.42%    0.00%    0.00%
 12  1    12    1  |1 1>+         0.00%    0.00%    0.00%    0.00%    0.00%    0.00%    0.00%    0.00%
 13  1     1    1  |1 0>          0.00%    0.00%    0.00%    0.00%    0.00%    0.00%    0.00%    0.00%
 14  1     2    1  |1 0>          0.00%    0.00%    0.00%    0.00%    0.00%    0.00%    0.00%    0.00%
 15  1     3    1  |1 0>          0.00%    0.00%    0.00%    0.00%    0.00%    0.00%    0.00%    0.00%
 16  1     4    1  |1 0>         14.63%    0.01%   24.13%    0.01%    0.00%   15.03%    0.00%    0.00%
 17  1     5    1  |1 0>         45.26%    0.00%    9.30%    0.00%    0.00%    3.85%    0.00%    0.00%
 18  1     6    1  |1 0>          0.00%    0.00%    0.00%    0.00%   33.33%    0.00%    0.00%    0.00%
 19  1     7    1  |1 0>          0.00%    0.00%    0.01%   39.39%    0.00%    0.00%    4.72%    0.00%
 20  1     8    1  |1 0>          0.00%   42.50%    0.02%    0.00%    0.00%    0.00%    0.00%    4.72%
 21  1     9    1  |1 0>          0.00%    0.00%    0.00%    0.00%    0.00%    0.00%    0.00%   30.42%
 22  1    10    1  |1 0>          0.00%    0.00%    0.00%    0.00%    0.00%    0.00%    0.00%    0.00%
 23  1    11    1  |1 0>          0.00%    0.00%    0.00%    0.00%    0.00%    0.00%   30.42%    0.00%
 24  1    12    1  |1 0>          0.00%    0.00%    0.00%    0.00%    0.00%    0.00%    0.00%    0.00%
 25  1     1    1  |1 1>-         0.00%    0.00%    0.00%    0.00%    0.00%    0.00%    0.00%    0.00%
 26  1     2    1  |1 1>-         0.00%    0.00%    0.00%    0.00%    0.00%    0.00%    0.00%    0.00%
 27  1     3    1  |1 1>-         0.00%    0.00%    0.00%    0.00%    0.00%    0.00%    0.00%    0.00%
 28  1     4    1  |1 1>-         0.00%   15.48%    0.01%    0.00%    0.00%    0.00%    0.00%   13.23%
 29  1     5    1  |1 1>-         0.00%   18.81%    0.01%    0.00%    0.00%    0.00%    0.00%    5.65%
 30  1     6    1  |1 1>-         0.00%    0.00%    0.01%   26.85%    0.00%    0.00%    4.72%    0.00%
 31  1     7    1  |1 1>-         0.00%    0.00%    0.00%    0.00%   33.33%    0.00%    0.00%    0.00%
 32  1     8    1  |1 1>-        16.71%    0.01%   36.60%    0.01%    0.00%    4.72%    0.00%    0.00%
 33  1     9    1  |1 1>-         0.00%    0.00%    0.00%    0.00%    0.00%   30.42%    0.00%    0.00%
 34  1    10    1  |1 1>-         0.00%    0.00%    0.00%    0.00%    0.00%    0.00%   30.42%    0.00%
 35  1    11    1  |1 1>-         0.00%    0.00%    0.00%    0.00%    0.00%    0.00%    0.00%    0.00%
 36  1    12    1  |1 1>-         0.00%    0.00%    0.00%    0.00%    0.00%    0.00%    0.00%    0.00%
 37  1     1    1  |0 0>          0.00%    0.00%    0.00%    0.00%    0.00%    0.04%    0.00%    0.00%
 38  1     2    1  |0 0>          0.00%    0.00%    0.00%    0.00%    0.00%    0.00%    0.00%    0.00%
 39  1     3    1  |0 0>          0.00%    0.00%    0.00%    0.00%    0.00%    0.00%    0.00%    0.00%
 40  1     4    1  |0 0>          0.00%    0.00%    0.00%    0.00%    0.00%    0.00%    0.00%    0.04%
 41  1     5    1  |0 0>          0.00%    0.00%    0.00%    0.00%    0.00%    0.00%    0.04%    0.00%
 42  1     6    1  |0 0>          0.00%    0.00%    0.00%    0.00%    0.00%    0.00%    0.00%    0.00%
 43  1     7    1  |0 0>          0.00%    0.00%    0.00%    0.00%    0.00%    0.00%    0.00%    0.00%
 44  1     8    1  |0 0>          0.00%    0.00%    0.00%    0.00%    0.00%    0.00%    0.00%    0.00%
 45  1     9    1  |0 0>          0.00%    0.00%    0.00%    0.00%    0.00%    0.00%    0.00%    0.00%
 46  1    10    1  |0 0>          0.00%    0.00%    0.00%    0.00%    0.00%   10.78%    0.00%    0.00%
 47  1    11    1  |0 0>          0.00%    0.00%    0.00%    0.00%    0.00%    0.00%    0.00%    0.00%
 48  1    12    1  |0 0>          0.00%    0.00%    0.00%    0.00%    0.00%    0.00%   10.78%    0.00%
 49  1    13    1  |0 0>          0.00%    0.00%    0.00%    0.00%    0.00%    0.00%    0.00%   10.78%
 50  1    14    1  |0 0>          0.00%    0.00%    0.00%    0.00%    0.00%    0.00%    0.00%    0.00%
 51  1    15    1  |0 0>          0.00%    0.00%    0.00%    0.00%    0.00%    0.00%    0.00%    0.00%

   Total
 Nr Sym  State Sym Spin / Nr.     41       42       43       44       45       46       47       48

  1  1     1    1  |1 1>+         0.00%    0.00%    0.00%    0.01%    0.00%    0.01%    0.00%    0.00%
  2  1     2    1  |1 1>+         0.00%    0.00%    0.00%    0.00%    0.01%    0.00%    0.00%    0.00%
  3  1     3    1  |1 1>+         0.00%    0.00%    0.00%    0.00%    0.00%    0.00%    0.00%    0.01%
  4  1     4    1  |1 1>+         0.00%    0.00%    0.01%    0.00%    0.00%    0.00%    0.00%    0.00%
  5  1     5    1  |1 1>+         0.00%    0.00%    0.00%    0.00%    0.00%    0.00%    0.00%    0.00%
  6  1     6    1  |1 1>+         0.00%    0.00%    0.00%    0.00%    0.01%    0.00%    0.00%    0.00%
  7  1     7    1  |1 1>+         0.00%    0.00%    0.00%    0.01%    0.00%    0.64%    0.00%    0.00%
  8  1     8    1  |1 1>+        18.40%    0.49%    0.00%    0.00%    0.00%    0.00%    2.12%    0.42%
  9  1     9    1  |1 1>+         1.06%   39.51%    0.00%    0.00%    0.00%    0.00%    2.66%   13.40%
 10  1    10    1  |1 1>+         0.00%    0.00%    0.00%    0.01%   10.19%    0.00%    0.00%    0.00%
 11  1    11    1  |1 1>+         0.00%    0.00%    0.00%   10.19%    0.01%   12.04%    0.00%    0.00%
 12  1    12    1  |1 1>+         0.00%    0.00%   75.33%    0.00%    0.00%    0.00%    0.00%    0.00%
 13  1     1    1  |1 0>          0.00%    0.00%    0.01%    0.00%    0.00%    0.00%    0.00%    0.00%
 14  1     2    1  |1 0>          0.00%    0.00%    0.00%    0.00%    0.00%    0.00%    0.01%    0.00%
 15  1     3    1  |1 0>          0.00%    0.00%    0.00%    0.00%    0.01%    0.00%    0.00%    0.00%
 16  1     4    1  |1 0>          0.00%    0.00%    0.00%    0.00%    0.00%    2.03%    0.00%    0.00%
 17  1     5    1  |1 0>          0.00%    0.00%    0.00%    0.01%    0.00%    0.52%    0.00%    0.00%
 18  1     6    1  |1 0>          2.36%   16.52%    0.00%    0.00%    0.00%    0.00%    0.03%    2.52%
 19  1     7    1  |1 0>          0.00%    0.00%    0.01%    0.00%    0.00%    0.00%    0.00%    0.00%
 20  1     8    1  |1 0>          0.00%    0.00%    0.00%    0.00%    0.01%    0.00%    0.00%    0.00%
 21  1     9    1  |1 0>          0.00%    0.00%    0.00%    0.00%   10.20%    0.00%    0.00%    0.00%
 22  1    10    1  |1 0>         35.49%    5.08%    0.00%    0.00%    0.00%    0.00%   15.88%    0.18%
 23  1    11    1  |1 0>          0.00%    0.00%   10.20%    0.00%    0.00%    0.00%    0.00%    0.00%
 24  1    12    1  |1 0>          0.00%    0.00%    0.00%   75.30%    0.03%    0.00%    0.00%    0.00%
 25  1     1    1  |1 1>-         0.00%    0.00%    0.00%    0.00%    0.00%    0.00%    0.01%    0.01%
 26  1     2    1  |1 1>-         0.00%    0.00%    0.01%    0.00%    0.00%    0.00%    0.00%    0.00%
 27  1     3    1  |1 1>-         0.00%    0.00%    0.00%    0.01%    0.00%    0.01%    0.00%    0.00%
 28  1     4    1  |1 1>-         0.00%    0.00%    0.00%    0.00%    0.00%    0.00%    0.00%    0.00%
 29  1     5    1  |1 1>-         0.00%    0.00%    0.00%    0.00%    0.01%    0.00%    0.00%    0.00%
 30  1     6    1  |1 1>-         0.00%    0.00%    0.01%    0.00%    0.00%    0.00%    0.00%    0.00%
 31  1     7    1  |1 1>-         7.57%   11.31%    0.00%    0.00%    0.00%    0.00%    1.67%    0.88%
 32  1     8    1  |1 1>-         0.00%    0.00%    0.00%    0.01%    0.00%    0.64%    0.00%    0.00%
 33  1     9    1  |1 1>-         0.00%    0.00%    0.00%   10.20%    0.00%   12.04%    0.00%    0.00%
 34  1    10    1  |1 1>-         0.00%    0.00%   10.20%    0.00%    0.00%    0.00%    0.00%    0.00%
 35  1    11    1  |1 1>-        24.30%   16.26%    0.00%    0.00%    0.00%    0.00%    5.55%   10.51%
 36  1    12    1  |1 1>-         0.00%    0.00%    0.00%    0.03%   75.30%    0.00%    0.00%    0.00%
 37  1     1    1  |0 0>          0.00%    0.00%    0.00%    0.00%    0.00%    0.00%    0.00%    0.00%
 38  1     2    1  |0 0>          0.00%    0.03%    0.00%    0.00%    0.00%    0.00%    0.00%    0.00%
 39  1     3    1  |0 0>          0.03%    0.00%    0.00%    0.00%    0.00%    0.00%    0.00%    0.00%
 40  1     4    1  |0 0>          0.00%    0.00%    0.00%    0.00%    0.00%    0.00%    0.00%    0.00%
 41  1     5    1  |0 0>          0.00%    0.00%    0.00%    0.00%    0.00%    0.00%    0.00%    0.00%
 42  1     6    1  |0 0>          0.00%    0.00%    0.00%    0.00%    0.00%    0.00%    0.00%    0.00%
 43  1     7    1  |0 0>          0.00%    0.00%    0.00%    4.21%    0.00%    0.00%    0.00%    0.00%
 44  1     8    1  |0 0>          0.00%    0.00%    4.21%    0.00%    0.00%    0.00%    0.00%    0.00%
 45  1     9    1  |0 0>          0.00%    0.00%    0.00%    0.00%    4.21%    0.00%    0.00%    0.00%
 46  1    10    1  |0 0>          0.00%    0.00%    0.00%    0.00%    0.00%   72.07%    0.00%    0.00%
 47  1    11    1  |0 0>         10.20%    0.58%    0.00%    0.00%    0.00%    0.00%   72.04%    0.04%
 48  1    12    1  |0 0>          0.00%    0.00%    0.00%    0.00%    0.00%    0.00%    0.00%    0.00%
 49  1    13    1  |0 0>          0.00%    0.00%    0.00%    0.00%    0.00%    0.00%    0.00%    0.00%
 50  1    14    1  |0 0>          0.58%   10.20%    0.00%    0.00%    0.00%    0.00%    0.04%   72.04%
 51  1    15    1  |0 0>          0.00%    0.00%    0.00%    0.00%    0.00%    0.00%    0.00%    0.00%

   Total
 Nr Sym  State Sym Spin / Nr.     49       50       51

  1  1     1    1  |1 1>+         0.00%    0.00%    0.00%
  2  1     2    1  |1 1>+         0.00%    0.01%    0.00%
  3  1     3    1  |1 1>+         0.00%    0.00%    0.01%
  4  1     4    1  |1 1>+         0.01%    0.00%    0.00%
  5  1     5    1  |1 1>+         2.54%    0.00%    0.00%
  6  1     6    1  |1 1>+         0.00%    0.64%    0.00%
  7  1     7    1  |1 1>+         0.00%    0.00%    0.00%
  8  1     8    1  |1 1>+         0.00%    0.00%    0.00%
  9  1     9    1  |1 1>+         0.00%    0.00%    4.24%
 10  1    10    1  |1 1>+         0.00%   12.04%    0.00%
 11  1    11    1  |1 1>+         0.00%    0.00%    0.00%
 12  1    12    1  |1 1>+         0.00%    0.00%    0.00%
 13  1     1    1  |1 0>          0.01%    0.00%    0.00%
 14  1     2    1  |1 0>          0.00%    0.00%    0.01%
 15  1     3    1  |1 0>          0.00%    0.01%    0.00%
 16  1     4    1  |1 0>          0.00%    0.00%    0.00%
 17  1     5    1  |1 0>          0.00%    0.00%    0.00%
 18  1     6    1  |1 0>          0.00%    0.00%    0.00%
 19  1     7    1  |1 0>          0.64%    0.00%    0.00%
 20  1     8    1  |1 0>          0.00%    0.64%    0.00%
 21  1     9    1  |1 0>          0.00%   12.04%    0.00%
 22  1    10    1  |1 0>          0.00%    0.00%    4.24%
 23  1    11    1  |1 0>         12.04%    0.00%    0.00%
 24  1    12    1  |1 0>          0.00%    0.00%    0.00%
 25  1     1    1  |1 1>-         0.00%    0.00%    0.01%
 26  1     2    1  |1 1>-         0.01%    0.00%    0.00%
 27  1     3    1  |1 1>-         0.00%    0.00%    0.00%
 28  1     4    1  |1 1>-         0.00%    1.78%    0.00%
 29  1     5    1  |1 1>-         0.00%    0.76%    0.00%
 30  1     6    1  |1 1>-         0.64%    0.00%    0.00%
 31  1     7    1  |1 1>-         0.00%    0.00%    0.00%
 32  1     8    1  |1 1>-         0.00%    0.00%    0.00%
 33  1     9    1  |1 1>-         0.00%    0.00%    0.00%
 34  1    10    1  |1 1>-        12.04%    0.00%    0.00%
 35  1    11    1  |1 1>-         0.00%    0.00%    4.24%
 36  1    12    1  |1 1>-         0.00%    0.00%    0.00%
 37  1     1    1  |0 0>          0.00%    0.00%    0.00%
 38  1     2    1  |0 0>          0.00%    0.00%    0.00%
 39  1     3    1  |0 0>          0.00%    0.00%    0.00%
 40  1     4    1  |0 0>          0.00%    0.00%    0.00%
 41  1     5    1  |0 0>          0.00%    0.00%    0.00%
 42  1     6    1  |0 0>          0.00%    0.00%    0.01%
 43  1     7    1  |0 0>          0.00%    0.00%    0.00%
 44  1     8    1  |0 0>          0.00%    0.00%    0.00%
 45  1     9    1  |0 0>          0.00%    0.00%    0.00%
 46  1    10    1  |0 0>          0.00%    0.00%    0.00%
 47  1    11    1  |0 0>          0.00%    0.00%    0.00%
 48  1    12    1  |0 0>         72.08%    0.00%    0.00%
 49  1    13    1  |0 0>          0.00%   72.08%    0.00%
 50  1    14    1  |0 0>          0.00%    0.00%    0.00%
 51  1    15    1  |0 0>          0.00%    0.00%   87.23%


 No matrix element <i|DMX|i> larger than 5E-7
 No matrix element <i|DMX|1> larger than 5E-7

 No matrix element <i|DMY|i> larger than 5E-7
 No matrix element <i|DMY|1> larger than 5E-7

 No matrix element <i|DMZ|i> larger than 5E-7
 No matrix element <i|DMZ|1> larger than 5E-7


 **********************************************************************************************************************************
 DATASETS  * FILE   NREC   LENGTH (MB)   RECORD NAMES
              1      24     1819.78       500      610      700      900      950      970     1000      129      960     1700   
                                          VAR    BASINP    GEOM    SYMINP    ZMAT    AOBASIS   BASIS     P2S    ABASIS    OPER   
                                         1101     1401     1411     1412     1650     1100     1400     1410     1200     1210   
                                          SR      EKINR    POTR     PVPR    MOLCAS      S      EKIN      POT      H0       H01  
                                         1080     1600     1380     1700(1)
                                         AOSYM     SMH     JKOP     OPER   

              2       7     4879.29       700     1000      520     2100     2140     5203     5201   
                                         GEOM     BASIS   MCVARS     RHF     MCSCF    MRCI     MRCI   

 PROGRAMS   *        TOTAL        CI        CI        CI     MULTI   RHF-SCF       INT
 CPU TIMES  *    106780.41  93181.14   6310.07   7270.70     12.14      0.50      5.67
 REAL TIME  *    108103.50 SEC
 DISK USED  *         4.89 GB (local),       74.38 GB (total)
 SF USED    *        25.45 GB
 GA USED    *         0.00 MB       (max)       0.00 MB       (current)
 **********************************************************************************************************************************

 CI/USERDEF energy=  -6174.374561100908

              CI              CI           MULTI         RHF-SCF
  -6174.31439503  -6174.33010930  -6173.57823509  -6173.00975448
 **********************************************************************************************************************************
 Molpro calculation terminated with 1 warning(s)
