
 Working directory              : /wrk/irikura/molpro.SrvizJNrCY/
 Global scratch directory       : /wrk/irikura/molpro.SrvizJNrCY/
 Wavefunction directory         : /home/irikura/wfu/
 Main file repository           : /wrk/irikura/molpro.SrvizJNrCY/

 id        : nistki

 Nodes            nprocs
 pn125343.nist.gov   32
 GA implementation: MPI file
 GA implementation (serial work in mppx): MPI file

 Using customized tuning parameters: mindgm=1; mindgv=20; mindgc=4; mindgr=1; noblas=0; minvec=7
 default implementation of scratch files=sf  


 Variables initialized (1042), CPU time= 0.02 sec
 ***,Sb SO-CI
 memory,1500,M;
 
 gprint,orbitals,civector;
 
 symmetry,xyz
 geometry={Sb};
 
 basis={
 ecp,sb,ECP28MDF;
 spdfgh,sb,aug-cc-pwCVQZ-PP;C; spdf,1,even,nprim=1,ratio=3.0;
 }
 
 PAR=2                                                                           ! parity even (1) or odd (2)
 NQ=1
 ND=17
 
 {multi
     closed,6,3
     occ,7,9
     wf,charge=0,sym=PAR,spin=3;state,NQ;
     wf,charge=0,sym=PAR,spin=1;state,ND;
     expec2,lxx,lyy,lzz;
 }
 table, energy, ll
 title, Energies and &lt;L**2&gt; values
 
 core,0,0
 
 {ci;wf,sym=PAR,spin=3;state,NQ; save,5302.2}
 if NQ.LT.2 then
 hlsdiag(1) = energd
 else
 hlsdiag = energd4
 endif
 
 {ci;wf,sym=PAR,spin=1;state,ND; save,5102.2}
 hlsdiag(NQ+1) = energd4
 
 table,hlsdiag
 
 {ci;hlsmat,ecp,5302.2,5102.2;print,vls=0,hls=0}                                 !compute and diagonalize SO matrix
 Commands initialized (847), CPU time= 0.02 sec, 718 directives.
 Default parameters read. Elapsed time= 0.17 sec

 Checking input...
 Passed
1


                                         ***  PROGRAM SYSTEM MOLPRO  ***
                                       Copyright, TTI GmbH Stuttgart, 2015
                                    Version 2024.1 linked Mon Jun 17 07:53:25 2024


 **********************************************************************************************************************************
 LABEL *   Sb SO-CI                                                                                                                                                      
  (64 PROC) 64 bit mpp version                                                           DATE: 27-Nov-24          TIME: 12:43:28  
 **********************************************************************************************************************************

 SHA1:             0134236b472f03f1f5189f93707d8671e415b05c
 **********************************************************************************************************************************

 Memory per process:      1500 MW
 Total memory per node:  48000 MW

 GA preallocation disabled
 GA check disabled

 Variable memory set to 1500.0 MW


 ZSYMEL=XYZ

 SETTING BASIS          =    USERDEF
 SETTING PAR            =         2.00000000                                  
 SETTING NQ             =         1.00000000                                  
 SETTING ND             =        17.00000000                                  


 Recomputing integrals since basis changed


 Using spherical harmonics

 Library entry Sb   ECP ECP28MDF                 selected for group  1
 Library entry SB     S AUG-CC-PWCVQZ-PP     selected for orbital group  1
 Even tempered Sb S diffuse               selected for group 1    nprim= 1    centre=  0.009    ratio= 3.000    dratio= 1.000
 Library entry SB     P AUG-CC-PWCVQZ-PP     selected for orbital group  1
 Even tempered Sb P diffuse               selected for group 1    nprim= 1    centre=  0.006    ratio= 3.000    dratio= 1.000
 Library entry SB     D AUG-CC-PWCVQZ-PP     selected for orbital group  1
 Even tempered Sb D diffuse               selected for group 1    nprim= 1    centre=  0.013    ratio= 3.000    dratio= 1.000
 Library entry SB     F AUG-CC-PWCVQZ-PP     selected for orbital group  1
 Even tempered Sb F diffuse               selected for group 1    nprim= 1    centre=  0.028    ratio= 3.000    dratio= 1.000
 Library entry SB     G AUG-CC-PWCVQZ-PP     selected for orbital group  1
 Library entry SB     H AUG-CC-PWCVQZ-PP     selected for orbital group  1


 PROGRAM * SEWARD (Integral evaluation for generally contracted gaussian basis sets)     Author: Roland Lindh, 1990

 Geometry written to block  1 of record 700

 Orientation using atomic masses  
 Molecule type: Atom
 User-specified symmetry elements: XYZ
 Symmetry elements: XYZ
 Rotational constants:       0.0000000      0.0000000      0.0000000 GHz  (calculated with average atomic masses)

 Point group  Ci  



 ATOMIC COORDINATES

 NR  ATOM    CHARGE       X              Y              Z

   1  SB     23.00    0.000000000    0.000000000    0.000000000

 NUCLEAR CHARGE:                   23
 NUMBER OF PRIMITIVE AOS:         320
 NUMBER OF SYMMETRY AOS:          248
 NUMBER OF CONTRACTIONS:          185   (   92Ag  +   93Au  )
 NUMBER OF INNER CORE ORBITALS:     0   (    0Ag  +    0Au  )
 NUMBER OF OUTER CORE ORBITALS:     9   (    6Ag  +    3Au  )
 NUMBER OF VALENCE ORBITALS:        4   (    1Ag  +    3Au  )


 LX: Ag           LY: Ag           LZ: Ag 


 NUCLEAR REPULSION ENERGY    0.00000000

 EXTRA SYMMETRY OF AOS IN SYMMETRY 1:   1 1 1 1 1 1 1 1 1 1   1 2 3 4 5 6 2 3 4 5   6 2 3 4 5 6 2 3 4 5   6 2 3 4 5 6 2 3 4 5
                                        6 2 3 4 5 6 2 3 4 5   6 2 3 4 5 6 7 8 910  1112131415 7 8 91011  12131415 7 8 9101112
                                       131415 7 8 910111213  1415
 EXTRA SYMMETRY OF AOS IN SYMMETRY 2:   1 2 3 1 2 3 1 2 3 1   2 3 1 2 3 1 2 3 1 2   3 1 2 3 1 2 3 1 2 3   1 2 3 4 5 6 7 8 910
                                        4 5 6 7 8 910 4 5 6   7 8 910 4 5 6 7 8 9  10 4 5 6 7 8 910 4 5   6 7 8 910 4 5 6 7 8
                                        9101112131415161718  192021


 Eigenvalues of metric

         1 0.512E-04 0.512E-04 0.512E-04 0.512E-04 0.512E-04 0.558E-04 0.833E-03 0.438E-02
         2 0.152E-03 0.152E-03 0.152E-03 0.213E-02 0.213E-02 0.213E-02 0.103E-01 0.103E-01


 Contracted 2-electron integrals neglected if value below      1.0D-11
 AO integral compression algorithm  1   Integral accuracy      1.0D-11

     141.033 MB (compressed) written to integral file ( 13.1%)

     Node minimum: 1.311 MB, node maximum: 8.389 MB


 NUMBER OF SORTED TWO-ELECTRON INTEGRALS:    2328688.     BUFFER LENGTH:  32768
 NUMBER OF SEGMENTS:   1  SEGMENT LENGTH:    2328688      RECORD LENGTH: 524288

 Memory used in sort:       2.89 MW

 SORT1 READ   134353782. AND WROTE      426577. INTEGRALS IN      2 RECORDS. CPU TIME:     1.04 SEC, REAL TIME:     1.08 SEC
 SORT2 READ    13878186. AND WROTE    74805201. INTEGRALS IN    608 RECORDS. CPU TIME:     0.07 SEC, REAL TIME:     0.08 SEC

 Node minimum:     2326267.  Node maximum:     2346671. integrals

 OPERATOR DM      FOR CENTER  0  COORDINATES:    0.000000    0.000000    0.000000


 **********************************************************************************************************************************
 DATASETS  * FILE   NREC   LENGTH (MB)   RECORD NAMES
              1      19       29.52       500      610      700      900      950      970     1000      129      960     1100   
                                          VAR    BASINP    GEOM    SYMINP    ZMAT    AOBASIS   BASIS     P2S    ABASIS      S 
                                         1400     1410     1420     1200     1210     1080     1700     1600     1650   
                                           T        V       ECP      H0       H01     AOSYM    OPER      SMH    MOLCAS    

 PROGRAMS   *        TOTAL       INT
 CPU TIMES  *         4.77      4.47
 REAL TIME  *         6.36 SEC
 DISK USED  *        29.89 MB (local),        1.26 GB (total)
 GA USED    *         0.00 MB       (max)       0.00 MB       (current)
 **********************************************************************************************************************************

 PROGRAM * MULTI (Direct Multiconfiguration SCF)       Authors: P.J. Knowles, H.-J. Werner (1984)
                                                                D.A. Kreplin, P.J. Knowles, H.-J. Werner (2019)

 Number of closed-shell orbitals:   9 (    6    3)
 Number of active  orbitals:        7 (    1    6)
 Number of external orbitals:     169 (   85   84)

 State symmetry 1

 Number of active electrons:   5    Spin symmetry=Quartet   Space symmetry=2
 Number of states:             1
 Number of CSFs:             104   (110 determinants, 245 intermediate states)

 State symmetry 2

 Number of active electrons:   5    Spin symmetry=Doublet   Space symmetry=2
 Number of states:            17
 Number of CSFs:             280   (390 determinants, 735 intermediate states)

 Orbital guess generated from atomic densities.
 *** IN SYMMETRY 1 ORBITAL  2 SYMMETRY CONTAMINATION OF 0.552D-04 HAS BEEN REMOVED
 *** IN SYMMETRY 1 ORBITAL  3 SYMMETRY CONTAMINATION OF 0.609D-02 HAS BEEN REMOVED
 *** IN SYMMETRY 1 ORBITAL  4 SYMMETRY CONTAMINATION OF 0.379D-02 HAS BEEN REMOVED
 *** IN SYMMETRY 1 ORBITAL  5 SYMMETRY CONTAMINATION OF 0.465D-02 HAS BEEN REMOVED
 *** IN SYMMETRY 1 ORBITAL  6 SYMMETRY CONTAMINATION OF 0.719D-02 HAS BEEN REMOVED

 EXTRA SYMMETRY OF MOS IN SYMMETRY 1:   1 2 5 3 6 4 1 1 6 4   3 5 2 1 2 4 6 3 5 1   4 6 5 3 2 4 6 5 3 2  1415 7 9111310 812 1
                                        4 6 2 5 31415 7 911   8121310 11415 7 911  1310 812 4 6 2 5 3 1   2 5 3 6 4 715141310
                                        812 911 1 5 3 2 6 4   1 1
 *** IN SYMMETRY 2 ORBITAL  1 SYMMETRY CONTAMINATION OF 0.981D-04 HAS BEEN REMOVED
 *** IN SYMMETRY 2 ORBITAL  3 SYMMETRY CONTAMINATION OF 0.981D-04 HAS BEEN REMOVED
 *** IN SYMMETRY 2 ORBITAL  4 SYMMETRY CONTAMINATION OF 0.186D-03 HAS BEEN REMOVED
 *** IN SYMMETRY 2 ORBITAL  5 SYMMETRY CONTAMINATION OF 0.159D-03 HAS BEEN REMOVED
 *** IN SYMMETRY 2 ORBITAL  6 SYMMETRY CONTAMINATION OF 0.208D-03 HAS BEEN REMOVED
 *** IN SYMMETRY 2 ORBITAL  7 SYMMETRY CONTAMINATION OF 0.359D-03 HAS BEEN REMOVED
 *** IN SYMMETRY 2 ORBITAL  8 SYMMETRY CONTAMINATION OF 0.269D-02 HAS BEEN REMOVED
 *** IN SYMMETRY 2 ORBITAL  9 SYMMETRY CONTAMINATION OF 0.300D-02 HAS BEEN REMOVED
 EXTRA SYMMETRY OF MOS IN SYMMETRY 2:   2 1 3 3 1 2 3 2 1 3   2 110 8 6 4 5 9 7 1   2 3 810 6 9 7 5 4 1   2 310 8 6 4 5 9 7 8
                                       10 6 4 5 7 9 1 2 3 8  10 6 4 5 9 7 2 1 319  16141112211318201517   6 810 9 7 4 5 2 1 3
                                       10 8 7 9 6 4 5 1 2 3   1 2 3

 Wavefunction dump at record             2140.2

 Convergence thresholds  0.10E-04 (gradient)  0.10E-05 (energy)

 Weight factors for state symmetry  1:    0.05556
 Weight factors for state symmetry  2:    0.05556   0.05556   0.05556   0.05556   0.05556   0.05556   0.05556   0.05556
                                          0.05556   0.05556   0.05556   0.05556   0.05556   0.05556   0.05556   0.05556
                                          0.05556
 
 Number of orbital rotations:  1375  ( 24 closed/active, 762 closed/virtual, 0 active/active, 589 active/virtual )
 Total number of variables:    8115
 
 Second-order MCSCF: L-BFGS accelerated
 
 ITER  MIC  NCI  NEG     ENERGY(VAR)    ENERGY(PROJ) ENERGY CHANGE       GRAD(0)  GRAD(ORB)   GRAD(CI)      STEP      TIME
   1   12   20    0   -239.09334040    -239.12147512   -0.02813472    0.12871318 0.00052248 0.00000000  0.10E+01      2.79
   2    7   12    0   -239.11950920    -239.12153620   -0.00202701    0.11160331 0.00020752 0.00000000  0.23E+00      4.91
   3    5   10    0   -239.12154391    -239.12154409   -0.00000018    0.00060256 0.00000001 0.00000000  0.30E-02      6.69
   4    3    6    0   -239.12154409    -239.12154409   -0.00000000    0.00000008 0.00000001 0.00000000  0.27E-06      8.14

 CONVERGENCE REACHED!  Final gradient:    0.00000001 ( 0.60E-08)
                       Final energy:   -239.12154409
 
 Results for state 1.2 Quartet
 =============================
 !MCSCF STATE 1.2 Quartet Energy              -239.274130130179
 Nuclear energy                                  0.00000000
 Kinetic energy                                 92.54637788
 One electron energy                          -420.24083929
 Two electron energy                           180.96670916
 Virial ratio                                    3.58545105
 
 !MCSCF STATE 1.2 Quartet Dipole moment          0.00000000     0.00000000     0.00000000
 Dipole moment /Debye                            0.00000000     0.00000000     0.00000000
 
 Results for state 1.2 Doublet
 =============================
 !MCSCF STATE 1.2 Doublet Energy              -239.213825368542
 Nuclear energy                                  0.00000000
 Kinetic energy                                 92.50819707
 One electron energy                          -420.04196490
 Two electron energy                           180.82813954
 Virial ratio                                    3.58586626
 
 !MCSCF STATE 1.2 Doublet Dipole moment          0.00000000     0.00000000     0.00000000
 Dipole moment /Debye                            0.00000000     0.00000000     0.00000000
 
 Results for state 2.2 Doublet
 =============================
 !MCSCF STATE 2.2 Doublet Energy              -239.213825368529
 Nuclear energy                                  0.00000000
 Kinetic energy                                 92.50819707
 One electron energy                          -420.04196491
 Two electron energy                           180.82813954
 Virial ratio                                    3.58586626
 
 !MCSCF STATE 2.2 Doublet Dipole moment          0.00000000     0.00000000     0.00000000
 Dipole moment /Debye                            0.00000000     0.00000000     0.00000000
 
 Results for state 3.2 Doublet
 =============================
 !MCSCF STATE 3.2 Doublet Energy              -239.213825368499
 Nuclear energy                                  0.00000000
 Kinetic energy                                 92.50819707
 One electron energy                          -420.04196491
 Two electron energy                           180.82813954
 Virial ratio                                    3.58586626
 
 !MCSCF STATE 3.2 Doublet Dipole moment          0.00000000     0.00000000     0.00000000
 Dipole moment /Debye                            0.00000000     0.00000000     0.00000000
 
 Results for state 4.2 Doublet
 =============================
 !MCSCF STATE 4.2 Doublet Energy              -239.213825368497
 Nuclear energy                                  0.00000000
 Kinetic energy                                 92.50819707
 One electron energy                          -420.04196493
 Two electron energy                           180.82813956
 Virial ratio                                    3.58586626
 
 !MCSCF STATE 4.2 Doublet Dipole moment          0.00000000     0.00000000     0.00000000
 Dipole moment /Debye                            0.00000000     0.00000000     0.00000000
 
 Results for state 5.2 Doublet
 =============================
 !MCSCF STATE 5.2 Doublet Energy              -239.213825368492
 Nuclear energy                                  0.00000000
 Kinetic energy                                 92.50819707
 One electron energy                          -420.04196494
 Two electron energy                           180.82813957
 Virial ratio                                    3.58586626
 
 !MCSCF STATE 5.2 Doublet Dipole moment          0.00000000     0.00000000     0.00000000
 Dipole moment /Debye                            0.00000000     0.00000000     0.00000000
 
 Results for state 6.2 Doublet
 =============================
 !MCSCF STATE 6.2 Doublet Energy              -239.190650902476
 Nuclear energy                                  0.00000000
 Kinetic energy                                 92.48325409
 One electron energy                          -419.85366836
 Two electron energy                           180.66301745
 Virial ratio                                    3.58631309
 
 !MCSCF STATE 6.2 Doublet Dipole moment          0.00000000     0.00000000     0.00000000
 Dipole moment /Debye                            0.00000000     0.00000000     0.00000000
 
 Results for state 7.2 Doublet
 =============================
 !MCSCF STATE 7.2 Doublet Energy              -239.190650902439
 Nuclear energy                                  0.00000000
 Kinetic energy                                 92.48325409
 One electron energy                          -419.85366836
 Two electron energy                           180.66301745
 Virial ratio                                    3.58631309
 
 !MCSCF STATE 7.2 Doublet Dipole moment          0.00000000     0.00000000     0.00000000
 Dipole moment /Debye                            0.00000000     0.00000000     0.00000000
 
 Results for state 8.2 Doublet
 =============================
 !MCSCF STATE 8.2 Doublet Energy              -239.190650902310
 Nuclear energy                                  0.00000000
 Kinetic energy                                 92.48325409
 One electron energy                          -419.85366840
 Two electron energy                           180.66301750
 Virial ratio                                    3.58631309
 
 !MCSCF STATE 8.2 Doublet Dipole moment          0.00000000     0.00000000     0.00000000
 Dipole moment /Debye                            0.00000000     0.00000000     0.00000000
 
 Results for state 9.2 Doublet
 =============================
 !MCSCF STATE 9.2 Doublet Energy              -239.043550212749
 Nuclear energy                                  0.00000000
 Kinetic energy                                 91.89432109
 One electron energy                          -414.33120707
 Two electron energy                           175.28765686
 Virial ratio                                    3.60128752
 
 !MCSCF STATE 9.2 Doublet Dipole moment          0.00000000     0.00000000     0.00000000
 Dipole moment /Debye                            0.00000000     0.00000000     0.00000000
 
 Results for state 10.2 Doublet
 ==============================
 !MCSCF STATE 10.2 Doublet Energy             -239.030766441484
 Nuclear energy                                  0.00000000
 Kinetic energy                                 91.94441761
 One electron energy                          -414.57416350
 Two electron energy                           175.54339706
 Virial ratio                                    3.59973115
 
 !MCSCF STATE 10.2 Doublet Dipole moment         0.00000000     0.00000000     0.00000000
 Dipole moment /Debye                            0.00000000     0.00000000     0.00000000
 
 Results for state 11.2 Doublet
 ==============================
 !MCSCF STATE 11.2 Doublet Energy             -239.030766441475
 Nuclear energy                                  0.00000000
 Kinetic energy                                 91.94441761
 One electron energy                          -414.57416350
 Two electron energy                           175.54339706
 Virial ratio                                    3.59973115
 
 !MCSCF STATE 11.2 Doublet Dipole moment         0.00000000     0.00000000     0.00000000
 Dipole moment /Debye                            0.00000000     0.00000000     0.00000000
 
 Results for state 12.2 Doublet
 ==============================
 !MCSCF STATE 12.2 Doublet Energy             -239.030766439680
 Nuclear energy                                  0.00000000
 Kinetic energy                                 91.94441763
 One electron energy                          -414.57416367
 Two electron energy                           175.54339723
 Virial ratio                                    3.59973115
 
 !MCSCF STATE 12.2 Doublet Dipole moment         0.00000000     0.00000000     0.00000000
 Dipole moment /Debye                            0.00000000     0.00000000     0.00000000
 
 Results for state 13.2 Doublet
 ==============================
 !MCSCF STATE 13.2 Doublet Energy             -239.030766439591
 Nuclear energy                                  0.00000000
 Kinetic energy                                 91.94441763
 One electron energy                          -414.57416367
 Two electron energy                           175.54339723
 Virial ratio                                    3.59973115
 
 !MCSCF STATE 13.2 Doublet Dipole moment         0.00000000     0.00000000     0.00000000
 Dipole moment /Debye                            0.00000000     0.00000000     0.00000000
 
 Results for state 14.2 Doublet
 ==============================
 !MCSCF STATE 14.2 Doublet Energy             -239.030766439029
 Nuclear energy                                  0.00000000
 Kinetic energy                                 91.94441764
 One electron energy                          -414.57416373
 Two electron energy                           175.54339729
 Virial ratio                                    3.59973115
 
 !MCSCF STATE 14.2 Doublet Dipole moment         0.00000000     0.00000000     0.00000000
 Dipole moment /Debye                            0.00000000     0.00000000     0.00000000
 
 Results for state 15.2 Doublet
 ==============================
 !MCSCF STATE 15.2 Doublet Energy             -239.025067180848
 Nuclear energy                                  0.00000000
 Kinetic energy                                 91.95870284
 One electron energy                          -414.64668915
 Two electron energy                           175.62162197
 Virial ratio                                    3.59926532
 
 !MCSCF STATE 15.2 Doublet Dipole moment         0.00000000     0.00000000     0.00000000
 Dipole moment /Debye                            0.00000000     0.00000000     0.00000000
 
 Results for state 16.2 Doublet
 ==============================
 !MCSCF STATE 16.2 Doublet Energy             -239.025067178306
 Nuclear energy                                  0.00000000
 Kinetic energy                                 91.95870286
 One electron energy                          -414.64668933
 Two electron energy                           175.62162215
 Virial ratio                                    3.59926532
 
 !MCSCF STATE 16.2 Doublet Dipole moment         0.00000000     0.00000000     0.00000000
 Dipole moment /Debye                            0.00000000     0.00000000     0.00000000
 
 Results for state 17.2 Doublet
 ==============================
 !MCSCF STATE 17.2 Doublet Energy             -239.025067178203
 Nuclear energy                                  0.00000000
 Kinetic energy                                 91.95870286
 One electron energy                          -414.64668933
 Two electron energy                           175.62162215
 Virial ratio                                    3.59926532
 
 !MCSCF STATE 17.2 Doublet Dipole moment         0.00000000     0.00000000     0.00000000
 Dipole moment /Debye                            0.00000000     0.00000000     0.00000000
 
 State-averaged charge density matrix saved on record 2140.2 (density set 1)
 
 No non-zero expectation values
 
 Expectation values for two-electron operators:
 
 ? Warning
 ? Transition properties are only calculated between states of the same symmetry
 ? The problem occurs in mu_properties_expec2

 !MCSCF expec      <1.2 Quartet|LXLX|1.2 Quartet>    -0.000000000000
 !MCSCF expec      <1.2 Doublet|LXLX|1.2 Doublet>     3.968015839034
 !MCSCF expec      <2.2 Doublet|LXLX|2.2 Doublet>     4.000000000000
 !MCSCF expec      <3.2 Doublet|LXLX|3.2 Doublet>     0.999998008472
 !MCSCF expec      <4.2 Doublet|LXLX|4.2 Doublet>     0.031991286128
 !MCSCF expec      <5.2 Doublet|LXLX|5.2 Doublet>     0.999994301026
 !MCSCF expec      <6.2 Doublet|LXLX|6.2 Doublet>    -0.000000000000
 !MCSCF expec      <7.2 Doublet|LXLX|7.2 Doublet>     0.999999999998
 !MCSCF expec      <8.2 Doublet|LXLX|8.2 Doublet>     1.000000000000
 !MCSCF expec      <9.2 Doublet|LXLX|9.2 Doublet>     0.000000000000
 !MCSCF expec    <10.2 Doublet|LXLX|10.2 Doublet>     1.073078723466
 !MCSCF expec    <11.2 Doublet|LXLX|11.2 Doublet>     1.000000049916
 !MCSCF expec    <12.2 Doublet|LXLX|12.2 Doublet>     3.999999999999
 !MCSCF expec    <13.2 Doublet|LXLX|13.2 Doublet>     1.000000000811
 !MCSCF expec    <14.2 Doublet|LXLX|14.2 Doublet>     2.926921468766
 !MCSCF expec    <15.2 Doublet|LXLX|15.2 Doublet>     1.000000000000
 !MCSCF expec    <16.2 Doublet|LXLX|16.2 Doublet>     0.000000000000
 !MCSCF expec    <17.2 Doublet|LXLX|17.2 Doublet>     1.000000000000
 
 !MCSCF expec      <1.2 Quartet|LYLY|1.2 Quartet>    -0.000000000000
 !MCSCF expec      <1.2 Doublet|LYLY|1.2 Doublet>     0.707471184969
 !MCSCF expec      <2.2 Doublet|LYLY|2.2 Doublet>     1.000000000000
 !MCSCF expec      <3.2 Doublet|LYLY|3.2 Doublet>     1.000004870529
 !MCSCF expec      <4.2 Doublet|LYLY|4.2 Doublet>     3.292539052530
 !MCSCF expec      <5.2 Doublet|LYLY|5.2 Doublet>     3.999995739904
 !MCSCF expec      <6.2 Doublet|LYLY|6.2 Doublet>     1.000000000000
 !MCSCF expec      <7.2 Doublet|LYLY|7.2 Doublet>     0.999999999633
 !MCSCF expec      <8.2 Doublet|LYLY|8.2 Doublet>     0.000000000258
 !MCSCF expec      <9.2 Doublet|LYLY|9.2 Doublet>    -0.000000000000
 !MCSCF expec    <10.2 Doublet|LYLY|10.2 Doublet>     3.998261180845
 !MCSCF expec    <11.2 Doublet|LYLY|11.2 Doublet>     3.999999998891
 !MCSCF expec    <12.2 Doublet|LYLY|12.2 Doublet>     1.000000000000
 !MCSCF expec    <13.2 Doublet|LYLY|13.2 Doublet>     0.999999999550
 !MCSCF expec    <14.2 Doublet|LYLY|14.2 Doublet>     0.001738808893
 !MCSCF expec    <15.2 Doublet|LYLY|15.2 Doublet>    -0.000000000000
 !MCSCF expec    <16.2 Doublet|LYLY|16.2 Doublet>     1.000000000000
 !MCSCF expec    <17.2 Doublet|LYLY|17.2 Doublet>     1.000000000000
 
 !MCSCF expec      <1.2 Quartet|LZLZ|1.2 Quartet>    -0.000000000000
 !MCSCF expec      <1.2 Doublet|LZLZ|1.2 Doublet>     1.324512975997
 !MCSCF expec      <2.2 Doublet|LZLZ|2.2 Doublet>     1.000000000000
 !MCSCF expec      <3.2 Doublet|LZLZ|3.2 Doublet>     3.999997120999
 !MCSCF expec      <4.2 Doublet|LZLZ|4.2 Doublet>     2.675469661342
 !MCSCF expec      <5.2 Doublet|LZLZ|5.2 Doublet>     1.000009959069
 !MCSCF expec      <6.2 Doublet|LZLZ|6.2 Doublet>     1.000000000000
 !MCSCF expec      <7.2 Doublet|LZLZ|7.2 Doublet>     0.000000000369
 !MCSCF expec      <8.2 Doublet|LZLZ|8.2 Doublet>     0.999999999742
 !MCSCF expec      <9.2 Doublet|LZLZ|9.2 Doublet>     0.000000000000
 !MCSCF expec    <10.2 Doublet|LZLZ|10.2 Doublet>     0.928660095689
 !MCSCF expec    <11.2 Doublet|LZLZ|11.2 Doublet>     0.999999951193
 !MCSCF expec    <12.2 Doublet|LZLZ|12.2 Doublet>     1.000000000001
 !MCSCF expec    <13.2 Doublet|LZLZ|13.2 Doublet>     3.999999999639
 !MCSCF expec    <14.2 Doublet|LZLZ|14.2 Doublet>     3.071339722342
 !MCSCF expec    <15.2 Doublet|LZLZ|15.2 Doublet>     1.000000000000
 !MCSCF expec    <16.2 Doublet|LZLZ|16.2 Doublet>     1.000000000000
 !MCSCF expec    <17.2 Doublet|LZLZ|17.2 Doublet>     0.000000000000
 
 !MCSCF expec      <1.2 Quartet|L**2|1.2 Quartet>    -0.000000000000
 !MCSCF expec      <1.2 Doublet|L**2|1.2 Doublet>     6.000000000000
 !MCSCF expec      <2.2 Doublet|L**2|2.2 Doublet>     6.000000000000
 !MCSCF expec      <3.2 Doublet|L**2|3.2 Doublet>     6.000000000000
 !MCSCF expec      <4.2 Doublet|L**2|4.2 Doublet>     6.000000000000
 !MCSCF expec      <5.2 Doublet|L**2|5.2 Doublet>     6.000000000000
 !MCSCF expec      <6.2 Doublet|L**2|6.2 Doublet>     2.000000000000
 !MCSCF expec      <7.2 Doublet|L**2|7.2 Doublet>     2.000000000000
 !MCSCF expec      <8.2 Doublet|L**2|8.2 Doublet>     2.000000000000
 !MCSCF expec      <9.2 Doublet|L**2|9.2 Doublet>     0.000000000000
 !MCSCF expec    <10.2 Doublet|L**2|10.2 Doublet>     6.000000000000
 !MCSCF expec    <11.2 Doublet|L**2|11.2 Doublet>     6.000000000000
 !MCSCF expec    <12.2 Doublet|L**2|12.2 Doublet>     6.000000000000
 !MCSCF expec    <13.2 Doublet|L**2|13.2 Doublet>     6.000000000000
 !MCSCF expec    <14.2 Doublet|L**2|14.2 Doublet>     6.000000000000
 !MCSCF expec    <15.2 Doublet|L**2|15.2 Doublet>     2.000000000000
 !MCSCF expec    <16.2 Doublet|L**2|16.2 Doublet>     2.000000000000
 !MCSCF expec    <17.2 Doublet|L**2|17.2 Doublet>     2.000000000000
 
 EXTRA SYMMETRY OF MOS IN SYMMETRY 1:   1 4 2 6 3 5 1 1 4 3   5 6 2 1 4 2 6 3 5 1   4 2 6 5 3 6 4 5 3 2   9 71415 812111310 1
                                        4 6 2 5 3 9 71415 8  12111310 1 9 7111415   8121310 4 2 6 5 3 1   2 5 3 4 6 9 7 81211
                                       14151310 1 2 5 3 4 6   1 1
 EXTRA SYMMETRY OF MOS IN SYMMETRY 2:   3 1 2 1 2 3 3 2 1 2   1 3 810 7 9 6 5 4 2   1 3 6 810 4 7 9 5 2   1 3 810 6 4 5 9 7 8
                                       10 4 6 5 7 9 1 2 3 4   810 6 5 9 7 1 2 311  19211312161415171820   6 810 4 5 9 7 1 2 3
                                        6 410 8 5 9 7 1 2 3   1 2 3
 
  NATURAL ORBITALS (STATE AVERAGED)
  =================================

  Orbital  Occupation    Energy    Cen Mu Typ  Coefficients
    1.1     2.00000    -6.62466     1  1  s    0.99996
    2.1     2.00000    -1.71900     1  1  d1+  1.00082
    3.1     2.00000    -1.71900     1  1  d0   1.00082
    4.1     2.00000    -1.71900     1  1  d1-  1.00082
    5.1     2.00000    -1.71900     1  1  d2-  1.00082
    6.1     2.00000    -1.71900     1  1  d2+  1.00082
    7.1     1.97996    -0.69992     1  1  s   -0.35230    1  4  s    0.57804    1  5  s    0.63409    1  9  s   -0.28901
    1.2     2.00000    -4.69150     1  1  pz   0.99963
    2.2     2.00000    -4.69150     1  1  px   0.99963
    3.2     2.00000    -4.69150     1  1  py   0.99963
    4.2     0.83866    -0.19719     1  1  px  -0.30405    1  4  px   0.46920    1  5  px   0.49073
    5.2     0.83866    -0.19719     1  1  py  -0.30405    1  4  py   0.46920    1  5  py   0.49073
    6.2     0.83866    -0.19719     1  1  pz  -0.30405    1  4  pz   0.46920    1  5  pz   0.49073
    7.2     0.16802     0.02289     1 10  pz   0.78719    1 11  pz   0.38918
    8.2     0.16802     0.02289     1 10  py   0.78719    1 11  py   0.38918
    9.2     0.16802     0.02289     1 10  px   0.78719    1 11  px   0.38918
 
 Natural orbital dump (state averaged) at molpro section 2140.2 (Orbital set 2)
 
 Transform the CI vectors
 
 CI Coefficients of symmetry 2 (Quartet)
 =======================================
 
 2 aaa000       0.99873691
 
 Energy:     -239.27413013
 
 
 CI Coefficients of symmetry 2 (Doublet)
 =======================================

 State:              1               2               3               4               5               6               7
 2 baa000      -0.07262962     -0.00000001      0.00116083      0.80896969     -0.00120250      0.00000000     -0.00000000
 2 aba000       0.73690460      0.00000011     -0.00046884     -0.34158602      0.00043934     -0.00000000      0.00000000
 2 a02000       0.00000011     -0.70340769      0.00000000      0.00000000      0.00000000      0.69288321      0.00000000
 2 a20000      -0.00000011      0.70340766     -0.00000000     -0.00000000     -0.00000000      0.69288324      0.00000000
 2 20a000      -0.00002122     -0.00000000      0.70340695     -0.00101107      0.00012581     -0.00000000      0.69288322
 2 02a000       0.00002122      0.00000000     -0.70340692      0.00101107     -0.00012581     -0.00000000      0.69288324
 2 0a2000      -0.00006815     -0.00000000      0.00012430     -0.00105188     -0.70340688      0.00000000      0.00001328
 2 2a0000       0.00006815      0.00000000     -0.00012430      0.00105188      0.70340687     -0.00000000      0.00001328
 2 aab000      -0.66427499     -0.00000010     -0.00069199     -0.46738367      0.00076316     -0.00000000      0.00000000
 2 a0a0b0      -0.05176124     -0.00000001      0.00003293      0.02399349     -0.00003086      0.00000000     -0.00000000
 2 aa0b00      -0.04665961     -0.00000001     -0.00004861     -0.03282969      0.00005361      0.00000000      0.00000000
 2 a0a00b       0.00000149      0.00000000     -0.04940830      0.00007102     -0.00000884      0.00000000     -0.06570738
 2 a0ab00       0.00000001     -0.04940835     -0.00000000     -0.00000000      0.00000000      0.06570738     -0.00000000
 2 aa00b0      -0.00000001      0.04940837      0.00000000     -0.00000000      0.00000000      0.06570741      0.00000000
 2 0aa0b0      -0.00000149     -0.00000000      0.04940832     -0.00007102      0.00000884      0.00000000     -0.06570740
 2 aa000b      -0.00000479     -0.00000000      0.00000873     -0.00007389     -0.04940830      0.00000000     -0.00000126
 2 0aab00      -0.00000479     -0.00000000      0.00000873     -0.00007389     -0.04940829      0.00000000      0.00000126
 2 0aa00b      -0.00510161     -0.00000000      0.00008154      0.05682318     -0.00008447     -0.00000000     -0.00000000
 2 0ab0a0       0.00000037      0.00000000     -0.01219730      0.00001753     -0.00000218     -0.00000000      0.01504636
 2 ba00a0       0.00000000     -0.01219731     -0.00000000     -0.00000000     -0.00000000     -0.01504636      0.00000000
 2 0baa00       0.00000118      0.00000000     -0.00000216      0.00001824      0.01219730     -0.00000000     -0.00000029
 2 ab000a       0.00000118      0.00000000     -0.00000216      0.00001824      0.01219730     -0.00000000      0.00000029
 2 a0b00a      -0.00000037     -0.00000000      0.01219730     -0.00001753      0.00000218     -0.00000000      0.01504636
 2 b0aa00      -0.00000000      0.01219731      0.00000000      0.00000000     -0.00000000     -0.01504636      0.00000000
 2 ab0a00       0.03772364      0.00000001     -0.00000467     -0.00404249      0.00000239     -0.00000000      0.00000000
 2 0ba00a       0.02746433      0.00000000     -0.00003680     -0.02617486      0.00003647      0.00000000      0.00000000
 2 a0b0a0       0.03640031      0.00000001      0.00001648      0.01069733     -0.00001952     -0.00000000      0.00000000
 2 b0a0a0       0.01536093      0.00000000     -0.00004941     -0.03469082      0.00005038     -0.00000000      0.00000000
 2 0ab00a      -0.02236272     -0.00000000     -0.00004474     -0.03064832      0.00004799      0.00000000      0.00000000
 2 ba0a00       0.00893597      0.00000000      0.00005328      0.03687217     -0.00005600     -0.00000000     -0.00000000
 2 a0ba00      -0.00000001      0.03721104      0.00000000     -0.00000000      0.00000000     -0.05066102      0.00000000
 2 b0a00a      -0.00000112     -0.00000000      0.03721100     -0.00005349      0.00000666     -0.00000000      0.05066102
 2 ab00a0       0.00000001     -0.03721106     -0.00000000      0.00000000     -0.00000000     -0.05066104     -0.00000000
 2 0ba0a0       0.00000112      0.00000000     -0.03721102      0.00005349     -0.00000666     -0.00000000      0.05066104
 2 0aba00       0.00000361      0.00000000     -0.00000658      0.00005565      0.03721099     -0.00000000     -0.00000097
 2 ba000a       0.00000361      0.00000000     -0.00000658      0.00005565      0.03721100     -0.00000000      0.00000097
 0 22a000       0.00000000     -0.00000000     -0.00000000      0.00000000     -0.00000000      0.00000000     -0.15389099
 0 a22000       0.00000000      0.00000000     -0.00000000      0.00000000     -0.00000000     -0.15389099      0.00000000
 0 2a2000       0.00000000     -0.00000000     -0.00000000      0.00000000      0.00000000      0.00000000     -0.00000295
 2 200a00      -0.00000075     -0.00000000      0.02501370     -0.00003595      0.00000447     -0.00000000      0.02402701
 2 00200a       0.00000000     -0.02501373      0.00000000     -0.00000000      0.00000000      0.02402701     -0.00000000
 2 02000a      -0.00000000      0.02501373     -0.00000000      0.00000000     -0.00000000      0.02402701     -0.00000000
 2 020a00       0.00000075      0.00000000     -0.02501370      0.00003595     -0.00000447     -0.00000000      0.02402701
 2 2000a0       0.00000242      0.00000000     -0.00000442      0.00003741      0.02501371      0.00000000      0.00000046
 2 0020a0      -0.00000242     -0.00000000      0.00000442     -0.00003741     -0.02501371     -0.00000000      0.00000046
 0 a2a0b0       0.01452728      0.00000000     -0.00000924     -0.00673400      0.00000866     -0.00000000      0.00000000
 0 2aa0b0       0.00000042      0.00000000     -0.01386691      0.00001993     -0.00000248     -0.00000000     -0.00259697
 0 aa20b0       0.00000000     -0.01386693     -0.00000000      0.00000000     -0.00000000      0.00259697      0.00000000
 0 2aab00       0.00000134      0.00000000     -0.00000245      0.00002074      0.01386691     -0.00000000      0.00000005
 0 aa200b       0.00000134      0.00000000     -0.00000245      0.00002074      0.01386691     -0.00000000     -0.00000005
 0 a2ab00      -0.00000000      0.01386692     -0.00000000      0.00000000     -0.00000000      0.00259698      0.00000000
 0 a2a00b      -0.00000042     -0.00000000      0.01386691     -0.00001993      0.00000248     -0.00000000     -0.00259698
 0 aa2b00       0.01309547      0.00000000      0.00001364      0.00921397     -0.00001504     -0.00000000     -0.00000000
 0 2aa00b       0.00143181      0.00000000     -0.00002288     -0.01594797      0.00002371      0.00000000      0.00000000
 
 Energy:     -239.21382537   -239.21382537   -239.21382537   -239.21382537   -239.21382537   -239.19065090   -239.19065090

 State:              8               9              10              11              12              13              14
 2 baa000      -0.00000000      0.00000000      0.05563816      0.00005339     -0.00000001     -0.00000085     -0.03368863
 2 aba000      -0.00000000     -0.00000001      0.00135611      0.00000121     -0.00000001      0.00000141      0.06502841
 2 a02000       0.00000000      0.00000000      0.00000001     -0.00000001      0.05632850     -0.00000002      0.00000001
 2 a20000       0.00000000     -0.00000000     -0.00000001      0.00000001     -0.05632850      0.00000002     -0.00000001
 2 20a000      -0.00001328     -0.00000000      0.00000011     -0.00000009      0.00000002      0.05632850     -0.00000123
 2 02a000      -0.00001328      0.00000000     -0.00000011      0.00000009     -0.00000002     -0.05632850      0.00000123
 2 0a2000       0.69288323     -0.00000000      0.00005401     -0.05632846     -0.00000001     -0.00000009     -0.00000007
 2 2a0000       0.69288323      0.00000000     -0.00005401      0.05632846      0.00000001      0.00000009      0.00000007
 2 aab000       0.00000000      0.00000001     -0.05699427     -0.00005461      0.00000002     -0.00000057     -0.03133978
 2 a0a0b0       0.00000000     -0.46849042      0.01356246      0.00001214     -0.00000009      0.00001413      0.65034942
 2 aa0b00      -0.00000000      0.46849045      0.57000008      0.00054612     -0.00000017      0.00000567      0.31342925
 2 a0a00b       0.00000126     -0.00000000      0.00000114     -0.00000090      0.00000024      0.56334169     -0.00001226
 2 a0ab00       0.00000000     -0.00000000     -0.00000012      0.00000009     -0.56334169      0.00000024     -0.00000008
 2 aa00b0      -0.00000000      0.00000000      0.00000012     -0.00000009      0.56334145     -0.00000024      0.00000008
 2 0aa0b0       0.00000126      0.00000000     -0.00000114      0.00000090     -0.00000024     -0.56334144      0.00001226
 2 aa000b      -0.06570738     -0.00000000     -0.00054015      0.56334131      0.00000009      0.00000090      0.00000074
 2 0aab00       0.06570738     -0.00000000     -0.00054015      0.56334131      0.00000009      0.00000090      0.00000074
 2 0aa00b      -0.00000000      0.46849045     -0.55643763     -0.00053398      0.00000008      0.00000846      0.33692013
 2 0ab0a0      -0.00000029     -0.00000000      0.00000067     -0.00000053      0.00000014      0.32960059     -0.00000718
 2 ba00a0       0.00000000     -0.00000000     -0.00000007      0.00000005     -0.32960059      0.00000014     -0.00000005
 2 0baa00      -0.01504636      0.00000000      0.00031603     -0.32960049     -0.00000005     -0.00000053     -0.00000044
 2 ab000a       0.01504636      0.00000000      0.00031603     -0.32960049     -0.00000005     -0.00000053     -0.00000044
 2 a0b00a      -0.00000029      0.00000000     -0.00000067      0.00000053     -0.00000014     -0.32960071      0.00000718
 2 b0aa00       0.00000000      0.00000000      0.00000007     -0.00000005      0.32960071     -0.00000014      0.00000005
 2 ab0a00       0.00000000     -0.23424523     -0.33118859     -0.00031746      0.00000008     -0.00000091     -0.07271639
 2 0ba00a       0.00000000     -0.23424523      0.32786910      0.00031449     -0.00000006     -0.00000255     -0.08646046
 2 a0b0a0      -0.00000000      0.23424521      0.08905762      0.00008582      0.00000003     -0.00000730     -0.32717335
 2 b0a0a0      -0.00000000      0.23424521     -0.10262008     -0.00009797      0.00000007     -0.00000683     -0.32317608
 2 0ab00a       0.00000000     -0.23424522      0.22856853      0.00021949     -0.00000002     -0.00000591     -0.25045966
 2 ba0a00       0.00000000     -0.23424522     -0.23881149     -0.00022866      0.00000009     -0.00000476     -0.24071286
 2 a0ba00      -0.00000000      0.00000000      0.00000005     -0.00000004      0.23374098     -0.00000010      0.00000003
 2 b0a00a      -0.00000097      0.00000000     -0.00000047      0.00000037     -0.00000010     -0.23374098      0.00000509
 2 ab00a0       0.00000000     -0.00000000     -0.00000005      0.00000004     -0.23374085      0.00000010     -0.00000003
 2 0ba0a0      -0.00000097     -0.00000000      0.00000047     -0.00000037      0.00000010      0.23374085     -0.00000509
 2 0aba00      -0.05066102     -0.00000000      0.00022412     -0.23374082     -0.00000004     -0.00000037     -0.00000031
 2 ba000a       0.05066102      0.00000000      0.00022412     -0.23374082     -0.00000004     -0.00000037     -0.00000031
 0 22a000       0.00000295     -0.00000000     -0.00000000     -0.00000000      0.00000000     -0.00000000      0.00000000
 0 a22000       0.00000000     -0.00000000     -0.00000000      0.00000000     -0.00000000     -0.00000000      0.00000000
 0 2a2000      -0.15389099     -0.00000000      0.00000000     -0.00000000      0.00000000      0.00000000      0.00000000
 2 200a00      -0.00000046     -0.00000000      0.00000019     -0.00000015      0.00000004      0.09585973     -0.00000209
 2 00200a      -0.00000000     -0.00000000      0.00000002     -0.00000001      0.09585973     -0.00000004      0.00000001
 2 02000a      -0.00000000     -0.00000000     -0.00000002      0.00000001     -0.09585972      0.00000004     -0.00000001
 2 020a00      -0.00000046      0.00000000     -0.00000019      0.00000015     -0.00000004     -0.09585972      0.00000209
 2 2000a0       0.02402702     -0.00000000     -0.00009191      0.09585969      0.00000001      0.00000015      0.00000013
 2 0020a0       0.02402702     -0.00000000      0.00009191     -0.09585969     -0.00000001     -0.00000015     -0.00000013
 0 a2a0b0      -0.00000000      0.04839433     -0.00140810     -0.00000126      0.00000001     -0.00000147     -0.06752131
 0 2aa0b0       0.00000005     -0.00000000      0.00000012     -0.00000009      0.00000002      0.05848787     -0.00000127
 0 aa20b0       0.00000000     -0.00000000     -0.00000001      0.00000001     -0.05848787      0.00000002     -0.00000001
 0 2aab00       0.00259698      0.00000000      0.00005608     -0.05848785     -0.00000001     -0.00000009     -0.00000008
 0 aa200b      -0.00259698      0.00000000      0.00005608     -0.05848785     -0.00000001     -0.00000009     -0.00000008
 0 a2ab00      -0.00000000      0.00000000      0.00000001     -0.00000001      0.05848789     -0.00000002      0.00000001
 0 a2a00b       0.00000005      0.00000000     -0.00000012      0.00000009     -0.00000002     -0.05848789      0.00000127
 0 aa2b00       0.00000000     -0.04839433     -0.05917919     -0.00005670      0.00000002     -0.00000059     -0.03254120
 0 2aa00b       0.00000000     -0.04839433      0.05777109      0.00005544     -0.00000001     -0.00000088     -0.03498010
 
 Energy:     -239.19065090   -239.04355021   -239.03076644   -239.03076644   -239.03076644   -239.03076644   -239.03076644

 State:             15              16              17
 2 baa000      -0.00000000     -0.00000000      0.00000000
 2 aba000       0.00000000      0.00000000     -0.00000000
 2 a02000       0.00000000     -0.07203458      0.00000000
 2 a20000       0.00000000     -0.07203463      0.00000000
 2 20a000      -0.00000000      0.00000000      0.07203459
 2 02a000      -0.00000000      0.00000000      0.07203463
 2 0a2000       0.07203459      0.00000000      0.00000000
 2 2a0000       0.07203460      0.00000000      0.00000000
 2 aab000      -0.00000000      0.00000000     -0.00000000
 2 a0a0b0      -0.00000000     -0.00000000     -0.00000000
 2 aa0b00       0.00000000      0.00000000      0.00000000
 2 a0a00b      -0.00000001      0.00000000      0.56113054
 2 a0ab00      -0.00000002      0.56113054     -0.00000000
 2 aa00b0      -0.00000002      0.56113077     -0.00000000
 2 0aa0b0      -0.00000001      0.00000000      0.56113077
 2 aa000b       0.56113065      0.00000002      0.00000001
 2 0aab00      -0.56113066     -0.00000002     -0.00000001
 2 0aa00b      -0.00000000      0.00000000     -0.00000000
 2 0ab0a0       0.00000000     -0.00000000     -0.34271967
 2 ba00a0       0.00000001     -0.34271967      0.00000000
 2 0baa00       0.34271957      0.00000001      0.00000000
 2 ab000a      -0.34271957     -0.00000001     -0.00000000
 2 a0b00a       0.00000000     -0.00000000     -0.34271950
 2 b0aa00       0.00000001     -0.34271950      0.00000000
 2 ab0a00      -0.00000000     -0.00000000     -0.00000000
 2 0ba00a       0.00000000     -0.00000000      0.00000000
 2 a0b0a0       0.00000000      0.00000000      0.00000000
 2 b0a0a0       0.00000000      0.00000000      0.00000000
 2 0ab00a       0.00000000     -0.00000000      0.00000000
 2 ba0a00      -0.00000000     -0.00000000     -0.00000000
 2 a0ba00       0.00000001     -0.21841104      0.00000000
 2 b0a00a       0.00000000     -0.00000000     -0.21841104
 2 ab00a0       0.00000001     -0.21841109      0.00000000
 2 0ba0a0       0.00000000     -0.00000000     -0.21841109
 2 0aba00       0.21841109      0.00000001      0.00000000
 2 ba000a      -0.21841109     -0.00000001     -0.00000000
 0 22a000       0.00000000     -0.00000000     -0.01795217
 0 a22000      -0.00000000      0.01795217     -0.00000000
 0 2a2000      -0.01795216     -0.00000000     -0.00000000
 2 200a00      -0.00000000      0.00000000      0.07563584
 2 00200a       0.00000000     -0.07563584      0.00000000
 2 02000a       0.00000000     -0.07563592      0.00000000
 2 020a00      -0.00000000      0.00000000      0.07563592
 2 2000a0       0.07563589      0.00000000      0.00000000
 2 0020a0       0.07563589      0.00000000      0.00000000
 0 a2a0b0       0.00000000      0.00000000      0.00000000
 0 2aa0b0       0.00000000     -0.00000000     -0.06060068
 0 aa20b0       0.00000000     -0.06060068      0.00000000
 0 2aab00       0.06060066      0.00000000      0.00000000
 0 aa200b      -0.06060066     -0.00000000     -0.00000000
 0 a2ab00       0.00000000     -0.06060065      0.00000000
 0 a2a00b       0.00000000     -0.00000000     -0.06060065
 0 aa2b00      -0.00000000     -0.00000000     -0.00000000
 0 2aa00b       0.00000000     -0.00000000      0.00000000
 
 Energy:     -239.02506718   -239.02506718   -239.02506718
 


 **********************************************************************************************************************************
 DATASETS  * FILE   NREC   LENGTH (MB)   RECORD NAMES
              1      21       57.06       500      610      700      900      950      970     1000      129      960     1100   
                                          VAR    BASINP    GEOM    SYMINP    ZMAT    AOBASIS   BASIS     P2S    ABASIS      S 
                                         1400     1410     1420     1200     1210     1080     1700     1600     1650     1380   
                                           T        V       ECP      H0       H01     AOSYM    OPER      SMH    MOLCAS    JKOP   
                                         1700(1)
                                         OPER   

              2       4        0.87       700     1000      520     2140   
                                         GEOM     BASIS   MCVARS    MCSCF   

 PROGRAMS   *        TOTAL     MULTI       INT
 CPU TIMES  *        12.78      8.01      4.47
 REAL TIME  *        15.71 SEC
 DISK USED  *        58.03 MB (local),        2.14 GB (total)
 SF USED    *        72.64 MB
 GA USED    *         0.00 MB       (max)       0.00 MB       (current)
 **********************************************************************************************************************************

 Energies and &lt;L**2&gt; values

         ENERGY     LL
    -239.2741301  -0.0
    -239.2138254   6.0
    -239.2138254   6.0
    -239.2138254   6.0
    -239.2138254   6.0
    -239.2138254   6.0
    -239.1906509   2.0
    -239.1906509   2.0
    -239.1906509   2.0
    -239.0435502   0.0
    -239.0307664   6.0
    -239.0307664   6.0
    -239.0307664   6.0
    -239.0307664   6.0
    -239.0307664   6.0
    -239.0250672   2.0
    -239.0250672   2.0
    -239.0250672   2.0
                                                  


 PROGRAM * CI (Multireference internally contracted CI)     Authors: H.-J. Werner, P.J. Knowles, 1987


 Convergence thresholds:  THRVAR = 1.00D-08  THRDEN = 1.00D-06

 Number of optimized states: 1  Roots:    1
 Number of reference states: 1  Roots:    1

 Reference symmetry:                   2   Quartet 
 Number of electrons:                 23
 Maximum number of shells:             5
 Maximum number of spin couplings:   165

 Reference space:       86 conf      104 CSFs
 N elec internal:    18764 conf    67760 CSFs
 N-1 el internal:    14189 conf   101369 CSFs
 N-2 el internal:     4931 conf    61610 CSFs

 Number of electrons in valence space:                     23
 Maximum number of open shell orbitals in reference space:  5
 Maximum number of open shell orbitals in internal spaces: 11


 Number of closed-shell orbitals:   9 (   6   3 )
 Number of active  orbitals:        7 (   1   6 )
 Number of external orbitals:     169 (  85  84 )

 Molecular orbitals read from record     2140.2  Type=MCSCF/NATURAL (state averaged)

 Valence orbitals related to previous ones by unitary transformation. Operators transformed.


 Number of p-space configurations:  10

 Reference wavefunction optimized for reference space (refopt=1)

 State     Reference Energy 
     1      -239.27413013

 Number of blocks in overlap matrix:   167   Smallest eigenvalue:  0.13D-04
 Number of N-2 electron functions:     250
 Number of N-1 electron functions:  101369

 Number of internal configurations:                33680
 Number of singly external configurations:       8565644
 Number of doubly external configurations:       1785907
 Total number of contracted configurations:     10385231
 Total number of uncontracted configurations:  447321117

 Diagonal Coupling coefficients finished.               Storage:  10292981 words, CPU-Time:      0.70 seconds.
 Energy denominators for pairs finished in 1 passes.    Storage:   1993866 words, CPU-time:      0.45 seconds.

  ITER. STATE  ROOT     SQ.NORM     CORR.ENERGY   TOTAL ENERGY   ENERGY CHANGE       DEN1      VAR(S)    VAR(P)      TIME
    1     1     1     1.00000000     0.00000000  -239.27413013     0.00000000    -1.03601396  0.50D-01  0.12D+00     2.65
    2     1     1     1.10420848    -0.81739419  -240.09152432    -0.81739419    -0.02733643  0.48D-02  0.17D-02    20.11
    3     1     1     1.08874509    -0.84330323  -240.11743336    -0.02590904    -0.00043977  0.69D-04  0.38D-04    37.23
    4     1     1     1.08829723    -0.84374959  -240.11787972    -0.00044636    -0.00001207  0.20D-05  0.12D-05    54.13
    5     1     1     1.08836052    -0.84376189  -240.11789202    -0.00001229    -0.00000039  0.32D-07  0.64D-07    71.23
    6     1     1     1.08837793    -0.84376230  -240.11789243    -0.00000041    -0.00000002  0.15D-08  0.36D-08    88.42


 =====================================
 Analysis of CPU times by interactions
 =====================================

       I      S      P

 I   2.9%
 S   3.1%  27.3%
 P   0.8%  52.6%   3.9%

 Initialization:   1.6%
 Other:            7.9%

 Total CPU:       88.4 seconds
 =====================================



 Wavefunction saved on  5302.2

 Reference coefficients greater than 0.0500000
 =============================================
 2222222222///000           0.9576637


 RESULTS FOR STATE 1.2
 =====================

 Coefficient of reference function:   C(0) = 0.95848030 (fixed)   0.95851390 (relaxed)

 Energy contributions of configuration classes

 CLASS          SQ.NORM        ECORR1        ECORR2
 +++++++++++++++++++++++++++++++++++++++++++++++++++
 Internals    0.00012409   -0.00021009   -0.00028920
 Singles      0.01382789   -0.05055800   -0.05716828
 Pairs        0.07456100   -0.79299422   -0.78630482
 Total        1.08851299   -0.84376230   -0.84376230
 +++++++++++++++++++++++++++++++++++++++++++++++++++


 Reference energy                    -239.27413013
 Nuclear energy                         0.00000000
 Kinetic energy                        93.13880901
 One electron energy                 -419.51401434
 Two electron energy                  179.39612191
 Virial quotient                       -2.57806488
 Correlation energy                    -0.84376230
 !MRCI STATE 1.2 Energy              -240.117892427716

 Properties without orbital relaxation:

 !MRCI STATE 1.2 Dipole moment          0.00000000     0.00000000     0.00000000
 Dipole moment /Debye                   0.00000000     0.00000000     0.00000000

 Cluster corrected energies          -240.19257635 (Davidson, fixed reference)
 Cluster corrected energies          -240.19251196 (Davidson, relaxed reference)

 Cluster corrected energies          -240.19017125 (Pople, fixed reference)
 Cluster corrected energies          -240.19010429 (Pople, relaxed reference)



 **********************************************************************************************************************************
 DATASETS  * FILE   NREC   LENGTH (MB)   RECORD NAMES
              1      21       57.06       500      610      700      900      950      970     1000      129      960     1100   
                                          VAR    BASINP    GEOM    SYMINP    ZMAT    AOBASIS   BASIS     P2S    ABASIS      S 
                                         1400     1410     1420     1200     1210     1080     1700     1600     1650     1380   
                                           T        V       ECP      H0       H01     AOSYM    OPER      SMH    MOLCAS    JKOP   
                                         1700(1)
                                         OPER   

              2       5       82.39       700     1000      520     2140     5302   
                                         GEOM     BASIS   MCVARS    MCSCF    MRCI   

 PROGRAMS   *        TOTAL        CI     MULTI       INT
 CPU TIMES  *       102.99     90.17      8.01      4.47
 REAL TIME  *       109.61 SEC
 DISK USED  *       139.56 MB (local),        4.69 GB (total)
 SF USED    *         1.09 GB
 GA USED    *         0.00 MB       (max)       0.00 MB       (current)
 **********************************************************************************************************************************
 SETTING HLSDIAG(1)     =      -240.19251196  AU                              


 PROGRAM * CI (Multireference internally contracted CI)     Authors: H.-J. Werner, P.J. Knowles, 1987


 Convergence thresholds:  THRVAR = 1.00D-08  THRDEN = 1.00D-06

 Number of optimized states: 17  Roots:   1   2   3   4   5   6   7   8   9  10  11  12  13  14  15  16  17
 Number of reference states: 17  Roots:   1   2   3   4   5   6   7   8   9  10  11  12  13  14  15  16  17

 Reference symmetry:                   2   Doublet 
 Number of electrons:                 23
 Maximum number of shells:             6
 Maximum number of spin couplings:   132

 Reference space:      176 conf      280 CSFs
 N elec internal:    21164 conf    87808 CSFs
 N-1 el internal:    18620 conf   124768 CSFs
 N-2 el internal:     9446 conf    81340 CSFs

 Number of electrons in valence space:                     23
 Maximum number of open shell orbitals in reference space:  5
 Maximum number of open shell orbitals in internal spaces: 11


 Number of closed-shell orbitals:   9 (   6   3 )
 Number of active  orbitals:        7 (   1   6 )
 Number of external orbitals:     169 (  85  84 )

 Molecular orbitals read from record     2140.2  Type=MCSCF/NATURAL (state averaged)

 Coulomb and exchange operators available. No transformation done.


 Number of p-space configurations:  35

 Reference wavefunction optimized for reference space (refopt=1)

 State     Reference Energy 
     1      -239.21382537
     2      -239.21382537
     3      -239.21382537
     4      -239.21382537
     5      -239.21382537
     6      -239.19065090
     7      -239.19065090
     8      -239.19065090
     9      -239.04355021
    10      -239.03076644
    11      -239.03076644
    12      -239.03076644
    13      -239.03076644
    14      -239.03076644
    15      -239.02506718
    16      -239.02506718
    17      -239.02506718

 ?WARNING: SMALL EIGENVALUE OF PAIR OVERLAP MATRIX:  0.1347D-06

 ?WARNING: SMALL EIGENVALUE OF PAIR OVERLAP MATRIX:  0.1435D-06

 ?WARNING: SMALL EIGENVALUE OF PAIR OVERLAP MATRIX:  0.1435D-06

 ?WARNING: SMALL EIGENVALUE OF PAIR OVERLAP MATRIX:  0.1435D-06

 ?WARNING: SMALL EIGENVALUE OF PAIR OVERLAP MATRIX:  0.1435D-06

 ?WARNING: SMALL EIGENVALUE OF PAIR OVERLAP MATRIX:  0.1435D-06

 ?WARNING: SMALL EIGENVALUE OF PAIR OVERLAP MATRIX:  0.1435D-06

 ?WARNING: SMALL EIGENVALUE OF PAIR OVERLAP MATRIX:  0.1435D-06

 ?WARNING: SMALL EIGENVALUE OF PAIR OVERLAP MATRIX:  0.1435D-06

 ?WARNING: SMALL EIGENVALUE OF PAIR OVERLAP MATRIX:  0.1435D-06

 ?WARNING: SMALL EIGENVALUE OF PAIR OVERLAP MATRIX:  0.1435D-06

 ?WARNING: SMALL EIGENVALUE OF PAIR OVERLAP MATRIX:  0.1435D-06

 ?WARNING: SMALL EIGENVALUE OF PAIR OVERLAP MATRIX:  0.1435D-06

 ?WARNING: SMALL EIGENVALUE OF PAIR OVERLAP MATRIX:  0.1435D-06

 ?WARNING: SMALL EIGENVALUE OF PAIR OVERLAP MATRIX:  0.1435D-06

 ?WARNING: SMALL EIGENVALUE OF PAIR OVERLAP MATRIX:  0.1435D-06

 ?WARNING: SMALL EIGENVALUE OF PAIR OVERLAP MATRIX:  0.1435D-06

 ?WARNING: SMALL EIGENVALUE OF PAIR OVERLAP MATRIX:  0.1435D-06

 ?WARNING: SMALL EIGENVALUE OF PAIR OVERLAP MATRIX:  0.1435D-06

 Number of blocks in overlap matrix:  1471   Smallest eigenvalue:  0.13D-06
 Number of N-2 electron functions:    3556
 Number of N-1 electron functions:  124768

 Number of internal configurations:                44086
 Number of singly external configurations:      10542724
 Number of doubly external configurations:      25402678
 Total number of contracted configurations:     35989488
 Total number of uncontracted configurations:  590453964

 Diagonal Coupling coefficients finished.               Storage:  46681860 words, CPU-Time:    391.69 seconds.
 Energy denominators for pairs finished in 1 passes.    Storage:   2935596 words, CPU-time:      6.76 seconds.

  ITER. STATE  ROOT     SQ.NORM     CORR.ENERGY   TOTAL ENERGY   ENERGY CHANGE       DEN1      VAR(S)    VAR(P)      TIME
    1     1     1     1.00000000     0.00000000  -239.21382537     0.00000000    -1.03855172  0.61D-01  0.11D+00   426.80
    1     2     2     1.00000000     0.00000000  -239.21382537     0.00000000    -1.03661059  0.60D-01  0.11D+00   426.80
    1     3     3     1.00000000     0.00000000  -239.21382537     0.00000000    -1.03659991  0.59D-01  0.11D+00   426.80
    1     4     4     1.00000000     0.00000000  -239.21382537     0.00000000    -1.03641483  0.60D-01  0.11D+00   426.80
    1     5     5     1.00000000     0.00000000  -239.21382537     0.00000000    -1.03606533  0.59D-01  0.11D+00   426.80
    1     6     6     1.00000000     0.00000000  -239.19065090     0.00000000    -1.01687378  0.41D-01  0.11D+00   426.80
    1     7     7     1.00000000     0.00000000  -239.19065090     0.00000000    -1.01716184  0.41D-01  0.11D+00   426.80
    1     8     8     1.00000000     0.00000000  -239.19065090     0.00000000    -1.01678272  0.41D-01  0.11D+00   426.80
    1     9     9     1.00000000     0.00000000  -239.04355021     0.00000000    -0.98647034  0.44D-01  0.10D+00   426.80
    1    10    10     1.00000000     0.00000000  -239.03076644     0.00000000    -0.99054478  0.46D-01  0.10D+00   426.80
    1    11    11     1.00000000     0.00000000  -239.03076644     0.00000000    -0.99081363  0.45D-01  0.10D+00   426.80
    1    12    12     1.00000000     0.00000000  -239.03076644     0.00000000    -0.99103844  0.45D-01  0.10D+00   426.80
    1    13    13     1.00000000     0.00000000  -239.03076644     0.00000000    -0.99090903  0.45D-01  0.10D+00   426.80
    1    14    14     1.00000000     0.00000000  -239.03076644     0.00000000    -0.99075021  0.46D-01  0.10D+00   426.80
    1    15    15     1.00000000     0.00000000  -239.02506718     0.00000000    -0.99164092  0.47D-01  0.10D+00   426.80
    1    16    16     1.00000000     0.00000000  -239.02506718     0.00000000    -0.99164838  0.47D-01  0.10D+00   426.80
    1    17    17     1.00000000     0.00000000  -239.02506718    -0.00000000    -0.99162790  0.47D-01  0.10D+00   426.80
    2     1     1     1.10833604    -0.82602956  -240.03985493    -0.82602956    -0.02832439  0.55D-02  0.17D-02  2016.41
    2     2     2     1.10827470    -0.82600956  -240.03983493    -0.82600956    -0.02831792  0.55D-02  0.17D-02  2016.41
    2     3     3     1.10852701    -0.82592045  -240.03974582    -0.82592045    -0.02841975  0.55D-02  0.17D-02  2016.41
    2     4     4     1.10864850    -0.82575155  -240.03957692    -0.82575155    -0.02860955  0.57D-02  0.17D-02  2016.41
    2     5     5     1.10918991    -0.82538758  -240.03921295    -0.82538758    -0.02899318  0.59D-02  0.17D-02  2016.41
    2     6     6     1.10110129    -0.82353578  -240.01418668    -0.82353578    -0.02531389  0.50D-02  0.16D-02  2016.41
    2     7     7     1.10107786    -0.82350942  -240.01416032    -0.82350942    -0.02530844  0.50D-02  0.17D-02  2016.41
    2     8     8     1.10103444    -0.82344637  -240.01409728    -0.82344637    -0.02536517  0.50D-02  0.17D-02  2016.41
    2     9     9     1.09783928    -0.80857968  -239.85212989    -0.80857968    -0.02028513  0.29D-02  0.13D-02  2016.41
    2    10    10     1.09858431    -0.80973751  -239.84050395    -0.80973751    -0.02107232  0.32D-02  0.13D-02  2016.41
    2    11    11     1.09859379    -0.80971791  -239.84048435    -0.80971791    -0.02108532  0.33D-02  0.13D-02  2016.41
    2    12    12     1.09869506    -0.80963570  -239.84040213    -0.80963570    -0.02118311  0.33D-02  0.13D-02  2016.41
    2    13    13     1.09869535    -0.80962122  -239.84038766    -0.80962122    -0.02118210  0.33D-02  0.13D-02  2016.41
    2    14    14     1.09887764    -0.80948293  -239.84024937    -0.80948293    -0.02133133  0.34D-02  0.13D-02  2016.41
    2    15    15     1.09978062    -0.80944583  -239.83451301    -0.80944583    -0.02165806  0.38D-02  0.13D-02  2016.41
    2    16    16     1.09982747    -0.80940936  -239.83447654    -0.80940936    -0.02169413  0.39D-02  0.13D-02  2016.41
    2    17    17     1.09984490    -0.80935879  -239.83442597    -0.80935879    -0.02175218  0.39D-02  0.13D-02  2016.41
    3     1     1     1.09338070    -0.85284134  -240.06666671    -0.02681177    -0.00076872  0.12D-03  0.86D-04  3566.62
    3     2     2     1.09334993    -0.85283668  -240.06666205    -0.02682712    -0.00077160  0.12D-03  0.86D-04  3566.62
    3     3     3     1.09346081    -0.85283644  -240.06666181    -0.02691599    -0.00077354  0.12D-03  0.88D-04  3566.62
    3     4     4     1.09337796    -0.85283413  -240.06665950    -0.02708259    -0.00077658  0.12D-03  0.86D-04  3566.62
    3     5     5     1.09337043    -0.85282375  -240.06664912    -0.02743617    -0.00078548  0.12D-03  0.88D-04  3566.62
    3     6     6     1.09021249    -0.84797002  -240.03862092    -0.02443424    -0.00067376  0.79D-04  0.91D-04  3566.62
    3     7     7     1.09017778    -0.84795666  -240.03860757    -0.02444724    -0.00067861  0.78D-04  0.93D-04  3566.62
    3     8     8     1.09014642    -0.84794960  -240.03860050    -0.02450322    -0.00068446  0.79D-04  0.93D-04  3566.62
    3     9     9     1.08709415    -0.82803283  -239.87158304    -0.01945315    -0.00034429  0.45D-04  0.32D-04  3566.62
    3    10    10     1.08742008    -0.82990544  -239.86067188    -0.02016794    -0.00039471  0.52D-04  0.41D-04  3566.62
    3    11    11     1.08741460    -0.82990381  -239.86067026    -0.02018590    -0.00039585  0.52D-04  0.41D-04  3566.62
    3    12    12     1.08741839    -0.82990374  -239.86067018    -0.02026805    -0.00039720  0.52D-04  0.41D-04  3566.62
    3    13    13     1.08740929    -0.82989992  -239.86066636    -0.02027871    -0.00039982  0.53D-04  0.42D-04  3566.62
    3    14    14     1.08740781    -0.82989682  -239.86066326    -0.02041390    -0.00040359  0.53D-04  0.42D-04  3566.62
    3    15    15     1.08759451    -0.83027500  -239.85534218    -0.02082916    -0.00042813  0.58D-04  0.47D-04  3566.62
    3    16    16     1.08758650    -0.83027490  -239.85534208    -0.02086554    -0.00042947  0.59D-04  0.47D-04  3566.62
    3    17    17     1.08759358    -0.83027306  -239.85534023    -0.02091426    -0.00042974  0.59D-04  0.47D-04  3566.62
    4     1     1     1.09306886    -0.85366595  -240.06749132    -0.00082461    -0.00005150  0.37D-05  0.83D-05  5118.17
    4     2     2     1.09306569    -0.85366549  -240.06749086    -0.00082881    -0.00005175  0.37D-05  0.84D-05  5118.17
    4     3     3     1.09306081    -0.85366507  -240.06749044    -0.00082863    -0.00005210  0.38D-05  0.84D-05  5118.17
    4     4     4     1.09306608    -0.85366502  -240.06749039    -0.00083088    -0.00005208  0.38D-05  0.84D-05  5118.17
    4     5     5     1.09306219    -0.85366463  -240.06749000    -0.00084088    -0.00005241  0.38D-05  0.85D-05  5118.17
    4     6     6     1.09096755    -0.84872559  -240.03937650    -0.00075558    -0.00005445  0.30D-05  0.94D-05  5118.17
    4     7     7     1.09094579    -0.84872218  -240.03937308    -0.00076552    -0.00005658  0.30D-05  0.98D-05  5118.17
    4     8     8     1.09093967    -0.84872162  -240.03937252    -0.00077202    -0.00005693  0.30D-05  0.99D-05  5118.17
    4     9     9     1.08691021    -0.82839663  -239.87194685    -0.00036380    -0.00001714  0.21D-05  0.25D-05  5118.17
    4    10    10     1.08728752    -0.83033054  -239.86109698    -0.00042510    -0.00002547  0.26D-05  0.45D-05  5118.17
    4    11    11     1.08728576    -0.83033024  -239.86109668    -0.00042642    -0.00002563  0.26D-05  0.45D-05  5118.17
    4    12    12     1.08728654    -0.83033012  -239.86109656    -0.00042638    -0.00002565  0.26D-05  0.45D-05  5118.17
    4    13    13     1.08728480    -0.83033002  -239.86109646    -0.00043010    -0.00002571  0.26D-05  0.45D-05  5118.17
    4    14    14     1.08728354    -0.83032973  -239.86109617    -0.00043291    -0.00002579  0.26D-05  0.45D-05  5118.17
    4    15    15     1.08744074    -0.83074423  -239.85581141    -0.00046923    -0.00002978  0.30D-05  0.53D-05  5118.17
    4    16    16     1.08743889    -0.83074352  -239.85581069    -0.00046861    -0.00003012  0.30D-05  0.54D-05  5118.17
    4    17    17     1.08743742    -0.83074351  -239.85581068    -0.00047045    -0.00003021  0.30D-05  0.54D-05  5118.17
    5     1     1     1.09336562    -0.85372866  -240.06755403    -0.00006271    -0.00000423  0.20D-06  0.73D-06  6668.11
    5     2     2     1.09336919    -0.85372863  -240.06755400    -0.00006314    -0.00000420  0.20D-06  0.73D-06  6668.11
    5     3     3     1.09336783    -0.85372856  -240.06755393    -0.00006350    -0.00000431  0.21D-06  0.74D-06  6668.11
    5     4     4     1.09336521    -0.85372852  -240.06755389    -0.00006350    -0.00000435  0.22D-06  0.75D-06  6668.11
    5     5     5     1.09336663    -0.85372851  -240.06755388    -0.00006389    -0.00000434  0.22D-06  0.75D-06  6668.11
    5     6     6     1.09159232    -0.84879431  -240.03944521    -0.00006872    -0.00000480  0.23D-06  0.77D-06  6668.11
    5     7     7     1.09159032    -0.84879392  -240.03944482    -0.00007174    -0.00000509  0.26D-06  0.81D-06  6668.11
    5     8     8     1.09159110    -0.84879389  -240.03944479    -0.00007227    -0.00000511  0.25D-06  0.82D-06  6668.11
    5     9     9     1.08698424    -0.82841757  -239.87196778    -0.00002093    -0.00000166  0.70D-07  0.34D-06  6668.11
    5    10    10     1.08745877    -0.83036429  -239.86113073    -0.00003374    -0.00000326  0.19D-06  0.60D-06  6668.11
    5    11    11     1.08745862    -0.83036424  -239.86113068    -0.00003401    -0.00000334  0.19D-06  0.61D-06  6668.11
    5    12    12     1.08745867    -0.83036422  -239.86113066    -0.00003410    -0.00000333  0.19D-06  0.61D-06  6668.11
    5    13    13     1.08745893    -0.83036421  -239.86113065    -0.00003419    -0.00000333  0.19D-06  0.61D-06  6668.11
    5    14    14     1.08745897    -0.83036387  -239.86113031    -0.00003413    -0.00000331  0.19D-06  0.61D-06  6668.11
    5    15    15     1.08763885    -0.83078392  -239.85585110    -0.00003969    -0.00000387  0.23D-06  0.69D-06  6668.11
    5    16    16     1.08763994    -0.83078386  -239.85585104    -0.00004034    -0.00000374  0.22D-06  0.68D-06  6668.11
    5    17    17     1.08763864    -0.83078376  -239.85585094    -0.00004025    -0.00000385  0.23D-06  0.69D-06  6668.11
    6     1     1     1.09341780    -0.85373407  -240.06755944    -0.00000541    -0.00000044  0.43D-07  0.60D-07  8220.03
    6     2     2     1.09341904    -0.85373404  -240.06755941    -0.00000541    -0.00000044  0.42D-07  0.60D-07  8220.03
    6     3     3     1.09341860    -0.85373403  -240.06755940    -0.00000547    -0.00000044  0.42D-07  0.60D-07  8220.03
    6     4     4     1.09341865    -0.85373400  -240.06755937    -0.00000548    -0.00000042  0.41D-07  0.58D-07  8220.03
    6     5     5     1.09341900    -0.85373398  -240.06755935    -0.00000547    -0.00000042  0.41D-07  0.58D-07  8220.03
    6     6     6     1.09164790    -0.84880034  -240.03945124    -0.00000603    -0.00000041  0.35D-07  0.57D-07  8220.03
    6     7     7     1.09164652    -0.84880031  -240.03945122    -0.00000640    -0.00000044  0.37D-07  0.61D-07  8220.03
    6     8     8     1.09164646    -0.84880030  -240.03945120    -0.00000642    -0.00000044  0.38D-07  0.61D-07  8220.03
    6     9     9     1.08700006    -0.82841997  -239.87197018    -0.00000240    -0.00000023  0.22D-07  0.31D-07  8220.03
    6    10    10     1.08749218    -0.83036904  -239.86113548    -0.00000475    -0.00000042  0.38D-07  0.57D-07  8220.03
    6    11    11     1.08749233    -0.83036901  -239.86113545    -0.00000477    -0.00000043  0.39D-07  0.57D-07  8220.03
    6    12    12     1.08749200    -0.83036898  -239.86113542    -0.00000477    -0.00000042  0.38D-07  0.57D-07  8220.03
    6    13    13     1.08749226    -0.83036894  -239.86113538    -0.00000473    -0.00000041  0.37D-07  0.55D-07  8220.03
    6    14    14     1.08749166    -0.83036859  -239.86113503    -0.00000472    -0.00000042  0.38D-07  0.56D-07  8220.03
    6    15    15     1.08767415    -0.83078930  -239.85585648    -0.00000538    -0.00000048  0.43D-07  0.68D-07  8220.03
    6    16    16     1.08767385    -0.83078912  -239.85585629    -0.00000526    -0.00000047  0.43D-07  0.67D-07  8220.03
    6    17    17     1.08767429    -0.83078905  -239.85585623    -0.00000529    -0.00000045  0.41D-07  0.64D-07  8220.03
    7     1     1     1.09344620    -0.85373457  -240.06755994    -0.00000050    -0.00000004  0.38D-08  0.68D-08  9772.59
    7     2     2     1.09344622    -0.85373454  -240.06755991    -0.00000050    -0.00000004  0.38D-08  0.66D-08  9772.59
    7     3     3     1.09344614    -0.85373453  -240.06755990    -0.00000050    -0.00000004  0.38D-08  0.67D-08  9772.59
    7     4     4     1.09344638    -0.85373448  -240.06755985    -0.00000048    -0.00000004  0.37D-08  0.64D-08  9772.59
    7     5     5     1.09344629    -0.85373446  -240.06755983    -0.00000048    -0.00000004  0.37D-08  0.63D-08  9772.59
    7     6     6     1.09167375    -0.84880082  -240.03945173    -0.00000049    -0.00000005  0.47D-08  0.71D-08  9772.59
    7     7     7     1.09167418    -0.84880081  -240.03945171    -0.00000049    -0.00000004  0.42D-08  0.64D-08  9772.59
    7     8     8     1.09167373    -0.84880081  -240.03945171    -0.00000051    -0.00000005  0.46D-08  0.71D-08  9772.59
    7     9     9     1.08700966    -0.82842024  -239.87197046    -0.00000028    -0.00000003  0.20D-08  0.39D-08  9772.59
    7    10    10     1.08750669    -0.83036954  -239.86113598    -0.00000050    -0.00000005  0.40D-08  0.80D-08  9772.59
    7    11    11     1.08750663    -0.83036951  -239.86113596    -0.00000050    -0.00000005  0.40D-08  0.80D-08  9772.59
    7    12    12     1.08750666    -0.83036948  -239.86113592    -0.00000050    -0.00000005  0.40D-08  0.79D-08  9772.59
    7    13    13     1.08750669    -0.83036942  -239.86113586    -0.00000048    -0.00000005  0.38D-08  0.76D-08  9772.59
    7    14    14     1.08750623    -0.83036908  -239.86113552    -0.00000049    -0.00000005  0.39D-08  0.77D-08  9772.59
    7    15    15     1.08769208    -0.83078987  -239.85585705    -0.00000057    -0.00000006  0.50D-08  0.10D-07  9772.59
    7    16    16     1.08769183    -0.83078969  -239.85585686    -0.00000057    -0.00000006  0.49D-08  0.10D-07  9772.59
    7    17    17     1.08769183    -0.83078959  -239.85585677    -0.00000054    -0.00000006  0.46D-08  0.94D-08  9772.59
    8     1     1     1.09344721    -0.85373462  -240.06755999    -0.00000005    -0.00000001  0.39D-09  0.89D-09 11242.18
    8     2     2     1.09344713    -0.85373459  -240.06755996    -0.00000005    -0.00000001  0.37D-09  0.88D-09 11242.18
    8     3     3     1.09344711    -0.85373458  -240.06755995    -0.00000005    -0.00000001  0.38D-09  0.89D-09 11242.18
    8     4     4     1.09344723    -0.85373453  -240.06755990    -0.00000005    -0.00000001  0.35D-09  0.83D-09 11242.18
    8     5     5     1.09344712    -0.85373451  -240.06755988    -0.00000005    -0.00000001  0.35D-09  0.83D-09 11242.18
    8     6     6     1.09167737    -0.84880088  -240.03945178    -0.00000006    -0.00000001  0.33D-09  0.10D-08 11242.18
    8     7     7     1.09167736    -0.84880086  -240.03945176    -0.00000005    -0.00000001  0.33D-09  0.99D-09 11242.18
    8     8     8     1.09167757    -0.84880086  -240.03945176    -0.00000005    -0.00000001  0.29D-09  0.90D-09 11242.18
    8     9     9     1.08700966    -0.82842024  -239.87197046    -0.00000000    -0.00000003  0.20D-08  0.39D-08 11242.18
    8    10    10     1.08750517    -0.83036960  -239.86113604    -0.00000006    -0.00000001  0.44D-09  0.14D-08 11242.18
    8    11    11     1.08750510    -0.83036958  -239.86113602    -0.00000006    -0.00000001  0.45D-09  0.14D-08 11242.18
    8    12    12     1.08750515    -0.83036954  -239.86113598    -0.00000006    -0.00000001  0.44D-09  0.14D-08 11242.18
    8    13    13     1.08750514    -0.83036948  -239.86113592    -0.00000006    -0.00000001  0.41D-09  0.13D-08 11242.18
    8    14    14     1.08750480    -0.83036914  -239.86113558    -0.00000006    -0.00000001  0.43D-09  0.14D-08 11242.18
    8    15    15     1.08769112    -0.83078995  -239.85585713    -0.00000008    -0.00000001  0.58D-09  0.18D-08 11242.18
    8    16    16     1.08769188    -0.83078977  -239.85585695    -0.00000008    -0.00000001  0.36D-09  0.88D-09 11242.18
    8    17    17     1.08769093    -0.83078966  -239.85585684    -0.00000007    -0.00000001  0.53D-09  0.17D-08 11242.18


 =====================================
 Analysis of CPU times by interactions
 =====================================

       I      S      P

 I   0.5%
 S   0.5%   4.6%
 P   0.3%  32.1%  37.2%

 Initialization:   3.6%
 Other:           21.3%

 Total CPU:    11242.2 seconds
 =====================================



 Wavefunction saved on  5102.2

 Reference coefficients greater than 0.0500000
 =============================================
 2222222222//\000           0.1806335  -0.0090740   0.0033882   0.9363300   0.0068742   0.0000000  -0.0000000  -0.0000000
                           -0.0000005  -0.0045839  -0.0381633  -0.0041947  -0.0008700  -0.0199245  -0.0000000  -0.0000000
                            0.0000000
 2222222222/\/000           0.9360358  -0.0212475   0.0112331  -0.1808641   0.0055574  -0.0000000   0.0000000   0.0000000
                            0.0000005  -0.0020149  -0.0197332  -0.0018928  -0.0003301   0.0386734  -0.0000000  -0.0000000
                           -0.0000000
 2222222222/0/0\0          -0.0306884   0.0005907  -0.0003423   0.0266188  -0.0000586  -0.0000000   0.0000000  -0.0000000
                           -0.5507578   0.0096352   0.0350896   0.0080697   0.0026265   0.7654242  -0.0000002  -0.0000001
                           -0.0000003
 2222222222/20000           0.0047980  -0.0052856  -0.0116152   0.0040149  -0.6741957   0.0274231   0.0646154   0.6630174
                           -0.0000000   0.0004869  -0.0005934  -0.0011643   0.0307306  -0.0000721   0.0000282  -0.0000940
                           -0.0462299
 2222222222/02000          -0.0047980   0.0052856   0.0116153  -0.0040149   0.6741956   0.0274231   0.0646153   0.6630175
                            0.0000000  -0.0004869   0.0005934   0.0011643  -0.0307330   0.0000721   0.0000282  -0.0000940
                           -0.0462283
 222222222220/000          -0.0076977   0.0198147   0.6739064  -0.0006747  -0.0118244  -0.0382848   0.6626349  -0.0629946
                            0.0000000  -0.0016326  -0.0031014   0.0305423   0.0011227  -0.0001631  -0.0003169   0.0462280
                           -0.0000942
 222222222202/000           0.0076977  -0.0198147  -0.6739060   0.0006747   0.0118244  -0.0382848   0.6626354  -0.0629946
                           -0.0000000   0.0016326   0.0031013  -0.0305414  -0.0011227   0.0001631  -0.0003168   0.0462279
                           -0.0000941
 22222222220/2000           0.0162378   0.6738358  -0.0197079   0.0035042  -0.0048068   0.6650573   0.0354810  -0.0309653
                           -0.0000000  -0.0305115   0.0036748  -0.0012752   0.0005066   0.0002273   0.0462280   0.0003169
                            0.0000276
 22222222222/0000          -0.0162378  -0.6738352   0.0197080  -0.0035042   0.0048068   0.6650579   0.0354810  -0.0309653
                            0.0000000   0.0305115  -0.0036748   0.0012753  -0.0005065  -0.0002273   0.0462286   0.0003169
                            0.0000276
 2222222222//0\00           0.0076958  -0.0003866   0.0001443   0.0398917   0.0002929  -0.0000000   0.0000000   0.0000000
                            0.5507717   0.0807427   0.6722178   0.0738860   0.0153237   0.3509482   0.0000001  -0.0000001
                           -0.0000002
 2222222222/0/\00          -0.0002504   0.0002758   0.0006061  -0.0002095   0.0351789   0.0022175   0.0052250   0.0536140
                           -0.0000003   0.0105034  -0.0128017  -0.0251182   0.6629918  -0.0015554  -0.0004039   0.0013451
                            0.6617316
 2222222222//00\0           0.0002504  -0.0002758  -0.0006061   0.0002095  -0.0351790   0.0022175   0.0052250   0.0536139
                            0.0000002  -0.0105032   0.0128013   0.0251176  -0.6629598   0.0015558  -0.0004039   0.0013448
                            0.6617638
[...]
                        -0.113483806   0.021144510   0.007746754  -0.003909849  -0.014992218   0.005170497

   36   15.2  0.5 -0.5  -0.062558699   0.117441839  -0.018870319   0.292263694   0.015368726  -0.013704585
                         0.120024757   0.039137985   0.411564329   0.421506690   0.070952297   0.000614159

   37   16.2  0.5 -0.5   0.028014152   0.022494155   0.014466714  -0.113521308  -0.087885142  -0.003604236
                        -0.028815659   0.003545917   0.058434984  -0.112745988   0.467353345  -0.020849136

   38   17.2  0.5 -0.5   0.000233030   0.162498638  -0.059579473  -0.101872940   0.032927542   0.019683493
                         0.430573875  -0.298938479  -0.166498202   0.028215773  -0.129755020   0.000737006


 Composition of spin-orbit eigenvectors
 ======================================

   Nr   State  S   Sz       1        2        3        4        5        6        7        8        9       10

    1    1.2  1.5  1.5   0.000%   0.000%   0.000%   0.000%   0.000%   0.000%   0.000%   0.000%   0.000%   0.000%
    2    1.2  1.5  0.5   0.000%   0.000%   0.000%   0.000%   0.000%   0.000%   0.000%   0.000%   0.000%   0.000%
    3    1.2  1.5 -0.5   0.000%   0.000%   0.000%   0.000%   0.000%   0.000%   0.000%   0.000%   0.000%   0.000%
    4    1.2  1.5 -1.5   0.000%   0.000%   0.000%   0.000%   0.000%   0.000%   0.000%   0.000%   0.000%   0.000%
    5    1.2  0.5  0.5   0.135%   8.756%   3.486%   1.567%  15.819%   7.635%   3.046%   0.213%   2.770%   3.395%
    6    2.2  0.5  0.5  26.013%   1.289%   0.682%   1.902%   0.257%   0.935%   6.380%   4.719%   1.946%   1.536%
    7    3.2  0.5  0.5   0.001%   6.131%   2.733%   2.363%  17.100%  12.437%   1.894%   0.006%   2.053%   3.110%
    8    4.2  0.5  0.5   0.020%   4.260%  33.686%   1.173%   1.592%   2.621%   0.977%   0.379%   0.835%   2.316%
    9    5.2  0.5  0.5   0.966%   6.073%   0.830%   0.914%   0.117%   2.361%   6.657%   7.890%   0.601%   2.202%
   10    6.2  0.5  0.5  20.681%   4.439%   1.793%   5.958%   0.164%   1.476%   5.756%   5.454%   0.497%   1.851%
   11    7.2  0.5  0.5   0.061%  10.884%   0.312%   4.447%   7.561%   5.808%  10.127%   0.599%   1.156%   2.024%
   12    8.2  0.5  0.5   1.102%   0.576%   1.169%  18.317%   0.298%   0.772%   5.722%   1.121%   1.829%   3.965%
   13    9.2  0.5  0.5   0.002%   0.892%   0.442%   2.629%   0.461%   1.494%   0.268%   0.154%   3.440%   5.600%
   14   10.2  0.5  0.5   0.081%   0.550%   0.033%   0.503%   0.182%   0.301%   0.420%   0.908%   1.855%   3.139%
   15   11.2  0.5  0.5   0.002%   0.286%   0.704%   4.951%   1.361%   0.708%   1.117%   1.839%   0.932%   3.326%
   16   12.2  0.5  0.5   0.020%   0.352%   0.060%   0.639%   0.567%   2.012%   1.227%   6.300%  17.691%   2.102%
   17   13.2  0.5  0.5   0.368%   4.609%   2.651%   0.632%   0.458%   4.803%   2.068%   0.116%   5.544%   0.877%
   18   14.2  0.5  0.5   0.019%   0.279%   0.629%   1.561%   1.584%   1.777%   0.244%   3.567%   2.161%   0.411%
   19   15.2  0.5  0.5   0.113%   0.063%   0.101%   0.883%   0.909%   3.480%   0.212%   0.259%   2.186%   0.224%
   20   16.2  0.5  0.5   0.018%   0.740%   0.214%   0.785%   2.234%   0.373%   1.028%   1.038%   2.654%   7.176%
   21   17.2  0.5  0.5   0.398%   0.353%   0.860%   0.424%   0.208%   0.806%   0.670%   0.607%   0.027%   0.009%
   22    1.2  0.5 -0.5   0.236%   0.029%   0.000%   0.503%   0.121%   0.084%   6.164%   2.663%   0.703%   2.328%
   23    2.2  0.5 -0.5   0.001%   0.149%   0.001%   0.634%   0.436%   1.881%   3.892%   1.932%   4.812%  22.351%
   24    3.2  0.5 -0.5   0.199%   0.243%   0.078%   0.143%   0.365%   2.646%   5.349%   6.881%   0.730%   0.145%
   25    4.2  0.5 -0.5   0.034%   0.007%   0.005%   0.063%   0.038%   0.108%   0.689%   2.110%   0.481%   1.752%
   26    5.2  0.5 -0.5   0.001%   0.007%   0.012%   0.011%   0.868%   0.896%   0.023%   1.457%   0.532%   1.743%
   27    6.2  0.5 -0.5   0.000%   0.011%   0.474%   0.315%   0.201%   5.870%   0.625%   0.791%  20.962%  16.606%
   28    7.2  0.5 -0.5   0.050%   0.381%   0.098%   0.079%   0.174%   1.901%   5.342%   4.598%   0.486%   0.668%
   29    8.2  0.5 -0.5   0.000%   0.098%   0.036%   0.012%   0.079%   0.207%   0.390%   0.927%  12.120%   4.212%
   30    9.2  0.5 -0.5  17.620%   0.168%   0.017%   0.059%   0.140%   0.373%   3.886%   0.934%   1.022%   1.396%
   31   10.2  0.5 -0.5   0.559%   8.849%  12.126%  25.582%   0.473%   0.185%   0.397%   0.538%   0.196%   0.139%
   32   11.2  0.5 -0.5  27.460%   0.350%   1.075%   0.736%   0.181%   0.362%   0.677%   0.785%   0.419%   0.201%
   33   12.2  0.5 -0.5   1.403%  14.528%   3.670%   2.033%   0.649%   1.770%  10.821%   1.426%   2.240%   0.220%
   34   13.2  0.5 -0.5   0.007%   0.278%   0.953%   0.399%  30.473%  13.404%   0.599%   1.125%   0.975%   1.031%
   35   14.2  0.5 -0.5   2.340%   0.052%   0.022%   0.297%   0.009%   0.956%   4.647%  30.894%   0.552%   3.018%
   36   15.2  0.5 -0.5   0.022%   1.288%  25.769%  16.793%   0.755%   2.036%   0.780%   0.963%   0.196%   0.616%
   37   16.2  0.5 -0.5   0.031%  21.208%   3.993%   0.292%   0.049%   0.919%   7.081%   3.302%   0.115%   0.070%
   38   17.2  0.5 -0.5   0.037%   1.826%   1.285%   2.399%  14.116%  16.603%   0.828%   3.505%   5.284%   0.241%

   Nr   State  S   Sz      11       12       13       14       15       16       17       18       19       20

    1    1.2  1.5  1.5   0.000%   0.000%   0.000%   0.000%   0.000%   0.001%   0.034%   9.295%  12.900%  71.290%
    2    1.2  1.5  0.5   0.000%   0.000%   0.000%   0.000%   0.001%   0.001%   0.124%   0.640%  67.362%  10.817%
    3    1.2  1.5 -0.5   0.000%   0.000%   0.000%   0.001%   0.001%   0.001%   0.128%  57.685%   2.955%  16.530%
    4    1.2  1.5 -1.5   0.000%   0.000%   0.000%   0.001%   0.001%   0.001%   0.274%  32.347%  16.780%   1.360%
    5    1.2  0.5  0.5   0.637%   1.414%   0.487%   0.587%   0.018%   0.146%   0.309%   0.000%   0.000%   0.000%
    6    2.2  0.5  0.5   1.842%   0.239%   1.604%   0.080%   0.258%   0.118%   0.580%   0.000%   0.000%   0.000%
    7    3.2  0.5  0.5   0.720%   1.290%   0.076%   0.830%   0.153%   0.139%   0.496%   0.000%   0.000%   0.000%
    8    4.2  0.5  0.5   0.536%   0.214%   0.238%   0.207%   0.326%   0.136%   0.145%   0.000%   0.000%   0.000%
    9    5.2  0.5  0.5   2.086%   0.194%  10.795%   2.989%   1.259%   1.174%   1.381%   0.000%   0.000%   0.000%
   10    6.2  0.5  0.5   2.473%   0.141%   1.673%   0.162%   0.026%   0.155%   0.119%   0.000%   0.000%   0.000%
   11    7.2  0.5  0.5   2.128%   2.646%   0.283%   0.929%   0.361%   0.018%   0.080%   0.000%   0.000%   0.000%
   12    8.2  0.5  0.5   3.018%   5.173%   0.855%   1.245%   1.008%   2.480%   0.359%   0.000%   0.000%   0.000%
   13    9.2  0.5  0.5   0.197%   3.089%   9.549%   0.840%   4.142%   0.816%   8.147%   0.002%   0.000%   0.000%
   14   10.2  0.5  0.5   4.021%   4.687%  20.998%   1.263%   2.544%   7.879%   6.662%   0.001%   0.000%   0.000%
   15   11.2  0.5  0.5   5.461%   1.677%   0.766%   7.061%   4.095%  11.666%   6.127%   0.001%   0.000%   0.000%
   16   12.2  0.5  0.5   4.453%   2.353%   0.458%   5.631%   3.124%   0.013%   1.323%   0.004%   0.000%   0.000%
   17   13.2  0.5  0.5  12.850%   0.295%   1.003%   5.951%   2.059%   2.578%   2.272%   0.001%   0.000%   0.000%
   18   14.2  0.5  0.5   2.057%  13.714%   0.631%   2.851%   1.247%  10.752%   0.068%   0.001%   0.000%   0.000%
   19   15.2  0.5  0.5   4.393%  11.941%   9.385%   0.695%   1.402%   5.320%   3.839%   0.003%   0.000%   0.000%
   20   16.2  0.5  0.5   4.986%  11.744%   2.324%   0.831%   0.664%   5.484%   2.617%   0.000%   0.000%   0.000%
   21   17.2  0.5  0.5   4.384%  14.618%   6.603%   2.939%   3.349%  15.521%   4.448%   0.000%   0.000%   0.000%
   22    1.2  0.5 -0.5   0.440%   8.197%   9.735%  19.570%   0.426%   0.587%  14.404%   0.000%   0.000%   0.000%
   23    2.2  0.5 -0.5   1.280%   1.447%   1.553%   1.165%   2.631%   0.843%   1.555%   0.000%   0.000%   0.000%
   24    3.2  0.5 -0.5   1.555%   0.364%   5.873%   3.072%   5.126%   3.189%   5.515%   0.004%   0.000%   0.000%
   25    4.2  0.5 -0.5   3.453%   2.950%   0.801%   8.393%  11.111%   7.785%  14.791%   0.002%   0.001%   0.000%
   26    5.2  0.5 -0.5   0.051%   0.486%   0.083%   7.327%  29.367%   4.028%   6.068%   0.002%   0.000%   0.000%
   27    6.2  0.5 -0.5   1.795%   0.601%   0.318%   3.070%   3.506%   0.399%   0.092%   0.001%   0.000%   0.000%
   28    7.2  0.5 -0.5   6.789%   0.120%   1.870%   8.113%   6.793%   3.822%   2.437%   0.006%   0.000%   0.000%
   29    8.2  0.5 -0.5   0.728%   1.545%   1.600%   7.167%   9.603%   2.972%   9.241%   0.002%   0.000%   0.000%
   30    9.2  0.5 -0.5  15.192%   1.981%   2.375%   1.500%   1.748%   4.034%   0.946%   0.000%   0.000%   0.000%
   31   10.2  0.5 -0.5   0.424%   0.080%   0.296%   0.006%   0.032%   0.028%   0.034%   0.000%   0.000%   0.000%
   32   11.2  0.5 -0.5   7.491%   1.632%   2.288%   0.760%   1.034%   3.176%   0.422%   0.001%   0.000%   0.000%
   33   12.2  0.5 -0.5   1.029%   1.423%   1.830%   1.888%   0.136%   1.725%   2.214%   0.000%   0.000%   0.000%
   34   13.2  0.5 -0.5   0.153%   0.501%   0.044%   0.264%   0.284%   0.043%   0.207%   0.000%   0.000%   0.000%
   35   14.2  0.5 -0.5   1.057%   2.080%   0.640%   0.537%   1.353%   0.157%   0.695%   0.000%   0.000%   0.000%
   36   15.2  0.5 -0.5   0.192%   0.004%   0.031%   0.002%   0.081%   0.028%   0.023%   0.000%   0.000%   0.000%
   37   16.2  0.5 -0.5   0.499%   1.008%   2.923%   1.717%   0.197%   1.775%   1.799%   0.000%   0.000%   0.000%
   38   17.2  0.5 -0.5   1.631%   0.152%   0.013%   0.355%   0.535%   1.013%   0.023%   0.000%   0.000%   0.000%

   Nr   State  S   Sz      21       22       23       24       25       26       27       28       29       30

    1    1.2  1.5  1.5   6.477%   0.001%   0.001%   0.000%   0.000%   0.000%   0.000%   0.000%   0.000%   0.000%
    2    1.2  1.5  0.5  21.054%   0.000%   0.000%   0.001%   0.001%   0.000%   0.000%   0.000%   0.000%   0.000%
    3    1.2  1.5 -0.5  22.681%   0.015%   0.001%   0.002%   0.000%   0.000%   0.000%   0.000%   0.000%   0.000%
    4    1.2  1.5 -1.5  49.223%   0.012%   0.001%   0.001%   0.000%   0.000%   0.000%   0.000%   0.000%   0.000%
    5    1.2  0.5  0.5   0.002%   0.312%   0.113%   0.148%   0.031%   0.066%   0.099%   0.096%   1.254%   8.678%
    6    2.2  0.5  0.5   0.003%   0.141%   1.288%   0.325%   0.330%   0.572%   0.144%   0.310%   0.999%   1.604%
    7    3.2  0.5  0.5   0.002%   0.216%   0.341%   0.973%   0.633%   1.048%   0.430%   0.124%   0.374%   1.748%
    8    4.2  0.5  0.5   0.001%   0.229%   0.264%   0.080%   0.346%   0.154%   0.222%   0.004%   0.343%   3.289%
    9    5.2  0.5  0.5   0.007%   0.019%   6.811%   4.367%   0.946%   1.488%   0.700%   2.742%   2.270%   0.884%
   10    6.2  0.5  0.5   0.001%   0.114%   0.448%   0.149%   0.098%   0.672%   0.055%   0.316%   1.354%   0.269%
   11    7.2  0.5  0.5   0.000%   0.942%   0.935%   0.962%   1.131%   0.420%   1.201%   0.365%   2.934%   1.874%
   12    8.2  0.5  0.5   0.003%   0.465%   0.702%   1.287%   3.174%   3.199%   1.281%   3.408%   3.319%   3.921%
   13    9.2  0.5  0.5   0.045%   6.720%   8.227%   1.709%   3.225%  16.235%   9.755%   0.239%   4.837%   0.799%
   14   10.2  0.5  0.5   0.035%   2.988%   0.986%   5.929%  13.035%   2.776%   0.870%   3.021%   2.817%   8.963%
   15   11.2  0.5  0.5   0.037%   2.298%   2.318%   8.699%   3.724%  10.934%   1.098%   1.086%   5.369%   1.252%
   16   12.2  0.5  0.5   0.007%   9.669%   7.584%   0.585%   4.802%   2.477%   0.913%   1.814%   4.712%   5.893%
   17   13.2  0.5  0.5   0.011%   0.379%   5.077%   2.268%   6.378%   1.159%   4.599%   0.913%   1.533%   4.446%
   18   14.2  0.5  0.5   0.000%   3.325%   7.573%  10.818%   7.610%  10.187%   0.920%   0.551%   5.300%   3.745%
   19   15.2  0.5  0.5   0.017%  14.222%   0.079%   5.337%   0.516%   4.672%  15.931%   0.419%   2.389%   6.498%
   20   16.2  0.5  0.5   0.014%   0.170%   0.645%   4.381%   4.048%   0.685%  12.624%  19.760%   4.014%   4.450%
   21   17.2  0.5  0.5   0.022%   1.012%  15.065%   0.261%   8.848%   2.837%   3.128%   2.756%   0.558%   4.346%
   22    1.2  0.5 -0.5   0.080%   0.273%   2.796%   4.698%   1.489%   7.930%   4.757%   1.277%   0.389%   0.048%
   23    2.2  0.5 -0.5   0.008%   1.618%   2.360%   1.885%   6.730%   1.086%   8.497%   6.570%   9.516%   9.283%
   24    3.2  0.5 -0.5   0.037%  17.219%   2.712%   1.693%   2.058%   1.310%   2.880%   7.720%  13.365%   1.168%
   25    4.2  0.5 -0.5   0.073%   0.133%  13.934%  14.289%   1.759%   2.571%   7.035%   1.979%   0.211%   0.614%
   26    5.2  0.5 -0.5   0.051%   3.225%   8.387%   9.737%   8.170%   9.530%   4.581%   0.076%   0.582%   0.825%
   27    6.2  0.5 -0.5   0.001%   3.132%   1.092%   0.956%   1.182%   2.793%   0.161%   6.534%   9.305%   8.128%
   28    7.2  0.5 -0.5   0.016%  19.558%   2.126%   5.544%   2.223%   1.500%   3.444%   2.096%   9.424%   0.092%
   29    8.2  0.5 -0.5   0.055%   5.860%   0.368%   8.883%   9.562%   8.207%   2.963%   2.975%   1.703%   3.913%
   30    9.2  0.5 -0.5   0.005%   1.745%   1.890%   0.100%   0.131%   1.998%   5.356%   5.838%   0.559%   2.612%
   31   10.2  0.5 -0.5   0.000%   0.202%   0.062%   0.035%   0.083%   0.007%   0.354%   0.386%   0.043%   0.061%
   32   11.2  0.5 -0.5   0.002%   2.216%   1.492%   0.185%   0.821%   1.521%   3.601%   7.403%   0.249%   0.828%
   33   12.2  0.5 -0.5   0.014%   0.238%   1.732%   0.886%   2.292%   0.535%   0.267%   5.162%   0.878%   2.572%
   34   13.2  0.5 -0.5   0.001%   0.059%   0.176%   0.010%   0.005%   0.346%   0.572%   1.910%   0.832%   0.611%
   35   14.2  0.5 -0.5   0.004%   0.425%   1.017%   0.143%   2.098%   0.385%   0.966%   2.539%   4.424%   1.554%
   36   15.2  0.5 -0.5   0.000%   0.094%   0.048%   0.234%   0.083%   0.024%   0.098%   0.167%   0.555%   0.547%
   37   16.2  0.5 -0.5   0.011%   0.610%   1.266%   1.270%   2.249%   0.533%   0.332%   7.994%   3.055%   0.257%
   38   17.2  0.5 -0.5   0.000%   0.147%   0.081%   1.170%   0.188%   0.144%   0.166%   1.450%   0.534%   4.231%

   Nr   State  S   Sz      31       32       33       34       35       36       37       38

    1    1.2  1.5  1.5   0.000%   0.000%   0.000%   0.000%   0.000%   0.000%   0.000%   0.000%
    2    1.2  1.5  0.5   0.000%   0.000%   0.000%   0.000%   0.000%   0.000%   0.000%   0.000%
    3    1.2  1.5 -0.5   0.000%   0.000%   0.000%   0.000%   0.000%   0.000%   0.000%   0.000%
    4    1.2  1.5 -1.5   0.000%   0.000%   0.000%   0.000%   0.000%   0.000%   0.000%   0.000%
    5    1.2  0.5  0.5   1.653%   0.396%   6.400%  16.851%   1.670%   4.359%   7.326%   0.126%
    6    2.2  0.5  0.5   1.845%  10.098%   1.397%   0.062%   2.792%   0.394%   1.450%  25.866%
    7    3.2  0.5  0.5   0.148%   2.587%  11.950%  17.204%   1.628%   2.100%   6.959%   0.001%
    8    4.2  0.5  0.5   1.757%   0.131%   2.494%   1.767%   1.060%  35.707%   2.472%   0.020%
    9    5.2  0.5  0.5  14.555%   3.688%   4.823%   0.241%   0.527%   0.536%   6.033%   0.873%
   10    6.2  0.5  0.5   1.399%   7.672%   1.620%   0.136%   6.252%   1.036%   4.782%  20.808%
   11    7.2  0.5  0.5   7.844%   5.680%   4.658%   4.419%   4.986%   0.254%  11.918%   0.056%
   12    8.2  0.5  0.5   0.252%   8.768%   0.195%   0.314%  17.711%   0.959%   1.095%   0.937%
   13    9.2  0.5  0.5   0.012%   1.257%   0.349%   0.386%   2.484%   1.069%   0.486%   0.004%
   14   10.2  0.5  0.5   0.355%   0.228%   0.401%   0.600%   0.228%   0.005%   0.670%   0.066%
   15   11.2  0.5  0.5   0.541%   2.151%   0.860%   2.156%   4.524%   0.247%   0.622%   0.001%
   16   12.2  0.5  0.5   4.937%   0.839%   5.032%   0.554%   1.069%   0.074%   0.687%   0.024%
   17   13.2  0.5  0.5   8.710%   1.155%   6.860%   0.495%   1.285%   1.962%   3.042%   0.593%
   18   14.2  0.5  0.5   0.177%   0.135%   1.186%   2.747%   1.263%   0.252%   0.646%   0.012%
   19   15.2  0.5  0.5   0.345%   1.843%   0.718%   0.223%   0.761%   0.058%   0.444%   0.117%
   20   16.2  0.5  0.5   0.329%   0.169%   1.828%   0.435%   0.534%   0.093%   0.908%   0.002%
   21   17.2  0.5  0.5   0.304%   2.413%   0.332%   0.264%   0.130%   0.778%   0.205%   0.517%
   22    1.2  0.5 -0.5   3.755%   3.218%   1.204%   0.145%   1.310%   0.028%   0.178%   0.234%
   23    2.2  0.5 -0.5   0.521%   0.060%   3.782%   0.765%   0.690%   0.049%   0.018%   0.001%
   24    3.2  0.5 -0.5   2.196%   5.245%   0.174%   0.208%   0.038%   0.062%   0.231%   0.208%
   25    4.2  0.5 -0.5   1.346%   1.087%   0.310%   0.007%   0.007%   0.008%   0.031%   0.033%
   26    5.2  0.5 -0.5   0.533%   0.117%   0.165%   0.984%   0.054%   0.006%   0.014%   0.000%
   27    6.2  0.5 -0.5   2.075%   1.356%   1.092%   5.138%   0.892%   0.450%   0.078%   0.000%
   28    7.2  0.5 -0.5   2.278%   6.800%   0.430%   0.055%   0.158%   0.107%   0.352%   0.070%
   29    8.2  0.5 -0.5   3.205%   0.192%   0.765%   0.201%   0.006%   0.142%   0.061%   0.002%
   30    9.2  0.5 -0.5   5.918%   0.740%   1.723%   0.006%   0.072%   0.026%   0.243%  17.646%
   31   10.2  0.5 -0.5   0.163%   1.506%   0.409%   0.941%  22.917%  14.456%   7.879%   0.555%
   32   11.2  0.5 -0.5   1.478%   0.883%   0.452%   0.116%   0.873%   1.018%   0.369%  27.445%
   33   12.2  0.5 -0.5   1.614%   8.893%   2.888%   1.385%   2.090%   2.688%  15.501%   1.358%
   34   13.2  0.5 -0.5   0.357%   0.275%  13.680%  27.978%   1.006%   1.087%   0.347%   0.009%
   35   14.2  0.5 -0.5  22.387%  10.549%   1.288%   0.057%   0.521%   0.003%   0.023%   2.312%
   36   15.2  0.5 -0.5   0.308%   1.071%   1.832%   1.532%  16.974%  26.309%   0.527%   0.019%
   37   16.2  0.5 -0.5   2.110%   7.542%   0.162%   0.052%   0.362%   2.560%  22.614%   0.045%
   38   17.2  0.5 -0.5   4.593%   1.257%  18.539%  11.577%   3.127%   1.117%   1.792%   0.039%


 Property matrices transformed in SO basis (not sym. adapted)
 ============================================================

 No matrix element <i|DMX|i> larger than 5E-7
 No matrix element <i|DMX|1> larger than 5E-7

 No matrix element <i|DMY|i> larger than 5E-7
 No matrix element <i|DMY|1> larger than 5E-7

 No matrix element <i|DMZ|i> larger than 5E-7
 No matrix element <i|DMZ|1> larger than 5E-7


 **********************************************************************************************************************************
 DATASETS  * FILE   NREC   LENGTH (MB)   RECORD NAMES
              1      21       57.06       500      610      700      900      950      970     1000      129      960     1100   
                                          VAR    BASINP    GEOM    SYMINP    ZMAT    AOBASIS   BASIS     P2S    ABASIS      S 
                                         1400     1410     1420     1200     1210     1080     1700     1600     1650     1380   
                                           T        V       ECP      H0       H01     AOSYM    OPER      SMH    MOLCAS    JKOP   
                                         1700(1)
                                         OPER   

              2       6     4800.88       700     1000      520     2140     5302     5102   
                                         GEOM     BASIS   MCVARS    MCSCF    MRCI     MRCI   

 PROGRAMS   *        TOTAL        CI        CI        CI     MULTI       INT
 CPU TIMES  *    937739.83 918018.14  19618.68     90.17      8.01      4.47
 REAL TIME  *    945981.03 SEC
 DISK USED  *         4.74 GB (local),      152.14 GB (total)
 SF USED    *        46.60 GB
 GA USED    *         0.00 MB       (max)       0.00 MB       (current)
 **********************************************************************************************************************************

 CI/USERDEF energy=     69.474221619319

              CI              CI           MULTI
   -239.85585684   -240.11789243   -239.03076644
 **********************************************************************************************************************************
 Molpro calculation terminated with 1 warning(s)
