
 Working directory              : /wrk/irikura/molpro.hQXbME40Sr/
 Global scratch directory       : /wrk/irikura/molpro.hQXbME40Sr/
 Wavefunction directory         : /home/irikura/wfu/
 Main file repository           : /wrk/irikura/molpro.hQXbME40Sr/

 id        : nistki

 Nodes            nprocs
 pn125343.nist.gov   32
 GA implementation: MPI file
 GA implementation (serial work in mppx): MPI file

 Using customized tuning parameters: mindgm=1; mindgv=20; mindgc=4; mindgr=1; noblas=0; minvec=7
 default implementation of scratch files=sf  


 Variables initialized (1042), CPU time= 0.02 sec
 ***,Sb SO-CI
 memory,1500,M;
 
 gprint,orbitals,civector;
 
 symmetry,xyz
 geometry={Sb};
 
 basis={
 ecp,sb,ECP28MDF;
 spdfgh,sb,aug-cc-pwCVQZ-PP;C; spdf,1,even,nprim=1,ratio=3.0;
 }
 
 PAR=2                                                                           ! parity even (1) or odd (2)
 NQ=1
 ND=17
 
 {multi
     closed,6,3
     occ,7,9
     wf,charge=0,sym=PAR,spin=3;state,NQ;
     wf,charge=0,sym=PAR,spin=1;state,ND;
     expec2,lxx,lyy,lzz;
 }
 table, energy, ll
 title, Energies and &lt;L**2&gt; values
 
 core,0,0
 
 {ci;wf,sym=PAR,spin=3;state,NQ; save,5302.2}
 if NQ.LT.2 then
 hlsdiag(1) = energd
 else
 hlsdiag = energd4
 endif
 
 {ci;wf,sym=PAR,spin=1;state,ND; save,5102.2}
 hlsdiag(NQ+1) = energd4
 
 table,hlsdiag
 
 {ci;hlsmat,ecp,5302.2,5102.2;print,vls=0,hls=2}                                 !compute and diagonalize SO matrix; print elements
 Commands initialized (847), CPU time= 0.02 sec, 718 directives.
 Default parameters read. Elapsed time= 0.18 sec

 Checking input...
 Passed
1


                                         ***  PROGRAM SYSTEM MOLPRO  ***
                                       Copyright, TTI GmbH Stuttgart, 2015
                                    Version 2024.1 linked Mon Jun 17 07:53:25 2024


 **********************************************************************************************************************************
 LABEL *   Sb SO-CI                                                                                                                                                      
  (64 PROC) 64 bit mpp version                                                           DATE: 09-Dec-24          TIME: 14:34:19  
 **********************************************************************************************************************************

 SHA1:             0134236b472f03f1f5189f93707d8671e415b05c
 **********************************************************************************************************************************

 Memory per process:      1500 MW
 Total memory per node:  48000 MW

 GA preallocation disabled
 GA check disabled

 Variable memory set to 1500.0 MW


 ZSYMEL=XYZ

 SETTING BASIS          =    USERDEF
 SETTING PAR            =         2.00000000                                  
 SETTING NQ             =         1.00000000                                  
 SETTING ND             =        17.00000000                                  


 Recomputing integrals since basis changed


 Using spherical harmonics

 Library entry Sb   ECP ECP28MDF                 selected for group  1
 Library entry SB     S AUG-CC-PWCVQZ-PP     selected for orbital group  1
 Even tempered Sb S diffuse               selected for group 1    nprim= 1    centre=  0.009    ratio= 3.000    dratio= 1.000
 Library entry SB     P AUG-CC-PWCVQZ-PP     selected for orbital group  1
 Even tempered Sb P diffuse               selected for group 1    nprim= 1    centre=  0.006    ratio= 3.000    dratio= 1.000
 Library entry SB     D AUG-CC-PWCVQZ-PP     selected for orbital group  1
 Even tempered Sb D diffuse               selected for group 1    nprim= 1    centre=  0.013    ratio= 3.000    dratio= 1.000
 Library entry SB     F AUG-CC-PWCVQZ-PP     selected for orbital group  1
 Even tempered Sb F diffuse               selected for group 1    nprim= 1    centre=  0.028    ratio= 3.000    dratio= 1.000
 Library entry SB     G AUG-CC-PWCVQZ-PP     selected for orbital group  1
 Library entry SB     H AUG-CC-PWCVQZ-PP     selected for orbital group  1


 PROGRAM * SEWARD (Integral evaluation for generally contracted gaussian basis sets)     Author: Roland Lindh, 1990

 Geometry written to block  1 of record 700

 Orientation using atomic masses  
 Molecule type: Atom
 User-specified symmetry elements: XYZ
 Symmetry elements: XYZ
 Rotational constants:       0.0000000      0.0000000      0.0000000 GHz  (calculated with average atomic masses)

 Point group  Ci  



 ATOMIC COORDINATES

 NR  ATOM    CHARGE       X              Y              Z

   1  SB     23.00    0.000000000    0.000000000    0.000000000

 NUCLEAR CHARGE:                   23
 NUMBER OF PRIMITIVE AOS:         320
 NUMBER OF SYMMETRY AOS:          248
 NUMBER OF CONTRACTIONS:          185   (   92Ag  +   93Au  )
 NUMBER OF INNER CORE ORBITALS:     0   (    0Ag  +    0Au  )
 NUMBER OF OUTER CORE ORBITALS:     9   (    6Ag  +    3Au  )
 NUMBER OF VALENCE ORBITALS:        4   (    1Ag  +    3Au  )


 LX: Ag           LY: Ag           LZ: Ag 


 NUCLEAR REPULSION ENERGY    0.00000000

 EXTRA SYMMETRY OF AOS IN SYMMETRY 1:   1 1 1 1 1 1 1 1 1 1   1 2 3 4 5 6 2 3 4 5   6 2 3 4 5 6 2 3 4 5   6 2 3 4 5 6 2 3 4 5
                                        6 2 3 4 5 6 2 3 4 5   6 2 3 4 5 6 7 8 910  1112131415 7 8 91011  12131415 7 8 9101112
                                       131415 7 8 910111213  1415
 EXTRA SYMMETRY OF AOS IN SYMMETRY 2:   1 2 3 1 2 3 1 2 3 1   2 3 1 2 3 1 2 3 1 2   3 1 2 3 1 2 3 1 2 3   1 2 3 4 5 6 7 8 910
                                        4 5 6 7 8 910 4 5 6   7 8 910 4 5 6 7 8 9  10 4 5 6 7 8 910 4 5   6 7 8 910 4 5 6 7 8
                                        9101112131415161718  192021


 Eigenvalues of metric

         1 0.512E-04 0.512E-04 0.512E-04 0.512E-04 0.512E-04 0.558E-04 0.833E-03 0.438E-02
         2 0.152E-03 0.152E-03 0.152E-03 0.213E-02 0.213E-02 0.213E-02 0.103E-01 0.103E-01


 Contracted 2-electron integrals neglected if value below      1.0D-11
 AO integral compression algorithm  1   Integral accuracy      1.0D-11

     140.771 MB (compressed) written to integral file ( 13.2%)

     Node minimum: 1.311 MB, node maximum: 7.078 MB


 NUMBER OF SORTED TWO-ELECTRON INTEGRALS:    2328688.     BUFFER LENGTH:  32768
 NUMBER OF SEGMENTS:   1  SEGMENT LENGTH:    2328688      RECORD LENGTH: 524288

 Memory used in sort:       2.89 MW

 SORT1 READ   134353782. AND WROTE      426577. INTEGRALS IN      2 RECORDS. CPU TIME:     1.01 SEC, REAL TIME:     1.05 SEC
 SORT2 READ    13878186. AND WROTE    74805201. INTEGRALS IN    448 RECORDS. CPU TIME:     0.05 SEC, REAL TIME:     0.06 SEC

 Node minimum:     2326267.  Node maximum:     2346671. integrals

 OPERATOR DM      FOR CENTER  0  COORDINATES:    0.000000    0.000000    0.000000


 **********************************************************************************************************************************
 DATASETS  * FILE   NREC   LENGTH (MB)   RECORD NAMES
              1      19       29.52       500      610      700      900      950      970     1000      129      960     1100   
                                          VAR    BASINP    GEOM    SYMINP    ZMAT    AOBASIS   BASIS     P2S    ABASIS      S 
                                         1400     1410     1420     1200     1210     1080     1700     1600     1650   
                                           T        V       ECP      H0       H01     AOSYM    OPER      SMH    MOLCAS    

 PROGRAMS   *        TOTAL       INT
 CPU TIMES  *         4.09      3.78
 REAL TIME  *         5.88 SEC
 DISK USED  *        29.89 MB (local),        1.26 GB (total)
 GA USED    *         0.00 MB       (max)       0.00 MB       (current)
 **********************************************************************************************************************************

 PROGRAM * MULTI (Direct Multiconfiguration SCF)       Authors: P.J. Knowles, H.-J. Werner (1984)
                                                                D.A. Kreplin, P.J. Knowles, H.-J. Werner (2019)

 Number of closed-shell orbitals:   9 (    6    3)
 Number of active  orbitals:        7 (    1    6)
 Number of external orbitals:     169 (   85   84)

 State symmetry 1

 Number of active electrons:   5    Spin symmetry=Quartet   Space symmetry=2
 Number of states:             1
 Number of CSFs:             104   (110 determinants, 245 intermediate states)

 State symmetry 2

 Number of active electrons:   5    Spin symmetry=Doublet   Space symmetry=2
 Number of states:            17
 Number of CSFs:             280   (390 determinants, 735 intermediate states)

 Orbital guess generated from atomic densities.
 *** IN SYMMETRY 1 ORBITAL  2 SYMMETRY CONTAMINATION OF 0.543D-04 HAS BEEN REMOVED
 *** IN SYMMETRY 1 ORBITAL  3 SYMMETRY CONTAMINATION OF 0.628D-01 HAS BEEN REMOVED
 *** IN SYMMETRY 1 ORBITAL  4 SYMMETRY CONTAMINATION OF 0.691D-01 HAS BEEN REMOVED
 *** IN SYMMETRY 1 ORBITAL  5 SYMMETRY CONTAMINATION OF 0.480D+00 HAS BEEN REMOVED
 *** IN SYMMETRY 1 ORBITAL  6 SYMMETRY CONTAMINATION OF 0.485D+00 HAS BEEN REMOVED

 EXTRA SYMMETRY OF MOS IN SYMMETRY 1:   1 2 5 3 6 4 1 1 6 4   3 5 2 1 2 4 6 3 5 1   4 6 3 5 2 4 6 5 3 2  1514 7 9111310 812 1
                                        4 6 2 5 31415 7 911   8121310 11415 7 911  1310 812 6 4 2 5 3 1   2 5 3 6 4 715141310
                                        812 911 1 5 3 2 6 4   1 1
 *** IN SYMMETRY 2 ORBITAL  1 SYMMETRY CONTAMINATION OF 0.373D-04 HAS BEEN REMOVED
 *** IN SYMMETRY 2 ORBITAL  3 SYMMETRY CONTAMINATION OF 0.373D-04 HAS BEEN REMOVED
 *** IN SYMMETRY 2 ORBITAL  4 SYMMETRY CONTAMINATION OF 0.680D-04 HAS BEEN REMOVED
 *** IN SYMMETRY 2 ORBITAL  6 SYMMETRY CONTAMINATION OF 0.680D-04 HAS BEEN REMOVED
 *** IN SYMMETRY 2 ORBITAL  7 SYMMETRY CONTAMINATION OF 0.712D-04 HAS BEEN REMOVED
 *** IN SYMMETRY 2 ORBITAL  8 SYMMETRY CONTAMINATION OF 0.463D+00 HAS BEEN REMOVED
 *** IN SYMMETRY 2 ORBITAL  9 SYMMETRY CONTAMINATION OF 0.463D+00 HAS BEEN REMOVED
 EXTRA SYMMETRY OF MOS IN SYMMETRY 2:   2 1 3 3 1 2 3 2 1 3   1 2 810 6 5 4 9 7 1   2 3 810 6 9 7 4 5 1   2 3 810 6 4 5 9 7 8
                                       10 6 4 5 7 9 1 2 3 8  10 6 4 5 9 7 2 1 319  16141112211318201517   6 810 7 9 4 5 2 1 3
                                       10 8 7 9 6 4 5 1 2 3   1 2 3

 Wavefunction dump at record             2140.2

 Convergence thresholds  0.10E-04 (gradient)  0.10E-05 (energy)

 Weight factors for state symmetry  1:    0.05556
 Weight factors for state symmetry  2:    0.05556   0.05556   0.05556   0.05556   0.05556   0.05556   0.05556   0.05556
                                          0.05556   0.05556   0.05556   0.05556   0.05556   0.05556   0.05556   0.05556
                                          0.05556
 
 Number of orbital rotations:  1375  ( 24 closed/active, 762 closed/virtual, 0 active/active, 589 active/virtual )
 Total number of variables:    8115
 
 Second-order MCSCF: L-BFGS accelerated
 
 ITER  MIC  NCI  NEG     ENERGY(VAR)    ENERGY(PROJ) ENERGY CHANGE       GRAD(0)  GRAD(ORB)   GRAD(CI)      STEP      TIME
   1   12   20    0   -239.09334040    -239.12147512   -0.02813472    0.12871318 0.00052248 0.00000000  0.10E+01      2.67
   2    7   12    0   -239.11950920    -239.12153620   -0.00202701    0.11160331 0.00020752 0.00000000  0.23E+00      4.99
   3    5   10    0   -239.12154391    -239.12154409   -0.00000018    0.00060256 0.00000007 0.00000000  0.30E-02      6.79
   4    4    8    0   -239.12154409    -239.12154409    0.00000000    0.00000008 0.00000001 0.00000000  0.26E-06      8.35

 CONVERGENCE REACHED!  Final gradient:    0.00000001 ( 0.15E-07)
                       Final energy:   -239.12154409
 
 Results for state 1.2 Quartet
 =============================
 !MCSCF STATE 1.2 Quartet Energy              -239.274130130202
 Nuclear energy                                  0.00000000
 Kinetic energy                                 92.54637788
 One electron energy                          -420.24083928
 Two electron energy                           180.96670915
 Virial ratio                                    3.58545105
 
 !MCSCF STATE 1.2 Quartet Dipole moment          0.00000000     0.00000000     0.00000000
 Dipole moment /Debye                            0.00000000     0.00000000     0.00000000
 
 Results for state 1.2 Doublet
 =============================
 !MCSCF STATE 1.2 Doublet Energy              -239.213825368628
 Nuclear energy                                  0.00000000
 Kinetic energy                                 92.50819707
 One electron energy                          -420.04196491
 Two electron energy                           180.82813954
 Virial ratio                                    3.58586626
 
 !MCSCF STATE 1.2 Doublet Dipole moment          0.00000000     0.00000000     0.00000000
 Dipole moment /Debye                            0.00000000     0.00000000     0.00000000
 
 Results for state 2.2 Doublet
 =============================
 !MCSCF STATE 2.2 Doublet Energy              -239.213825368610
 Nuclear energy                                  0.00000000
 Kinetic energy                                 92.50819707
 One electron energy                          -420.04196492
 Two electron energy                           180.82813955
 Virial ratio                                    3.58586626
 
 !MCSCF STATE 2.2 Doublet Dipole moment          0.00000000     0.00000000     0.00000000
 Dipole moment /Debye                            0.00000000     0.00000000     0.00000000
 
 Results for state 3.2 Doublet
 =============================
 !MCSCF STATE 3.2 Doublet Energy              -239.213825368568
 Nuclear energy                                  0.00000000
 Kinetic energy                                 92.50819707
 One electron energy                          -420.04196490
 Two electron energy                           180.82813953
 Virial ratio                                    3.58586626
 
 !MCSCF STATE 3.2 Doublet Dipole moment          0.00000000     0.00000000     0.00000000
 Dipole moment /Debye                            0.00000000     0.00000000     0.00000000
 
 Results for state 4.2 Doublet
 =============================
 !MCSCF STATE 4.2 Doublet Energy              -239.213825368536
 Nuclear energy                                  0.00000000
 Kinetic energy                                 92.50819707
 One electron energy                          -420.04196490
 Two electron energy                           180.82813953
 Virial ratio                                    3.58586626
 
 !MCSCF STATE 4.2 Doublet Dipole moment          0.00000000     0.00000000     0.00000000
 Dipole moment /Debye                            0.00000000     0.00000000     0.00000000
 
 Results for state 5.2 Doublet
 =============================
 !MCSCF STATE 5.2 Doublet Energy              -239.213825368531
 Nuclear energy                                  0.00000000
 Kinetic energy                                 92.50819707
 One electron energy                          -420.04196491
 Two electron energy                           180.82813954
 Virial ratio                                    3.58586626
 
 !MCSCF STATE 5.2 Doublet Dipole moment          0.00000000     0.00000000     0.00000000
 Dipole moment /Debye                            0.00000000     0.00000000     0.00000000
 
 Results for state 6.2 Doublet
 =============================
 !MCSCF STATE 6.2 Doublet Energy              -239.190650902526
 Nuclear energy                                  0.00000000
 Kinetic energy                                 92.48325408
 One electron energy                          -419.85366835
 Two electron energy                           180.66301744
 Virial ratio                                    3.58631309
 
 !MCSCF STATE 6.2 Doublet Dipole moment          0.00000000     0.00000000     0.00000000
 Dipole moment /Debye                            0.00000000     0.00000000     0.00000000
 
 Results for state 7.2 Doublet
 =============================
 !MCSCF STATE 7.2 Doublet Energy              -239.190650902511
 Nuclear energy                                  0.00000000
 Kinetic energy                                 92.48325409
 One electron energy                          -419.85366838
 Two electron energy                           180.66301747
 Virial ratio                                    3.58631309
 
 !MCSCF STATE 7.2 Doublet Dipole moment          0.00000000     0.00000000     0.00000000
 Dipole moment /Debye                            0.00000000     0.00000000     0.00000000
 
 Results for state 8.2 Doublet
 =============================
 !MCSCF STATE 8.2 Doublet Energy              -239.190650902439
 Nuclear energy                                  0.00000000
 Kinetic energy                                 92.48325409
 One electron energy                          -419.85366836
 Two electron energy                           180.66301746
 Virial ratio                                    3.58631309
 
 !MCSCF STATE 8.2 Doublet Dipole moment          0.00000000     0.00000000     0.00000000
 Dipole moment /Debye                            0.00000000     0.00000000     0.00000000
 
 Results for state 9.2 Doublet
 =============================
 !MCSCF STATE 9.2 Doublet Energy              -239.043550212955
 Nuclear energy                                  0.00000000
 Kinetic energy                                 91.89432109
 One electron energy                          -414.33120710
 Two electron energy                           175.28765688
 Virial ratio                                    3.60128752
 
 !MCSCF STATE 9.2 Doublet Dipole moment          0.00000000     0.00000000     0.00000000
 Dipole moment /Debye                            0.00000000     0.00000000     0.00000000
 
 Results for state 10.2 Doublet
 ==============================
 !MCSCF STATE 10.2 Doublet Energy             -239.030766440893
 Nuclear energy                                  0.00000000
 Kinetic energy                                 91.94441762
 One electron energy                          -414.57416358
 Two electron energy                           175.54339714
 Virial ratio                                    3.59973115
 
 !MCSCF STATE 10.2 Doublet Dipole moment         0.00000000     0.00000000     0.00000000
 Dipole moment /Debye                            0.00000000     0.00000000     0.00000000
 
 Results for state 11.2 Doublet
 ==============================
 !MCSCF STATE 11.2 Doublet Energy             -239.030766440812
 Nuclear energy                                  0.00000000
 Kinetic energy                                 91.94441763
 One electron energy                          -414.57416359
 Two electron energy                           175.54339715
 Virial ratio                                    3.59973115
 
 !MCSCF STATE 11.2 Doublet Dipole moment         0.00000000     0.00000000     0.00000000
 Dipole moment /Debye                            0.00000000     0.00000000     0.00000000
 
 Results for state 12.2 Doublet
 ==============================
 !MCSCF STATE 12.2 Doublet Energy             -239.030766440145
 Nuclear energy                                  0.00000000
 Kinetic energy                                 91.94441763
 One electron energy                          -414.57416363
 Two electron energy                           175.54339719
 Virial ratio                                    3.59973115
 
 !MCSCF STATE 12.2 Doublet Dipole moment         0.00000000     0.00000000     0.00000000
 Dipole moment /Debye                            0.00000000     0.00000000     0.00000000
 
 Results for state 13.2 Doublet
 ==============================
 !MCSCF STATE 13.2 Doublet Energy             -239.030766439606
 Nuclear energy                                  0.00000000
 Kinetic energy                                 91.94441764
 One electron energy                          -414.57416369
 Two electron energy                           175.54339725
 Virial ratio                                    3.59973115
 
 !MCSCF STATE 13.2 Doublet Dipole moment         0.00000000     0.00000000     0.00000000
 Dipole moment /Debye                            0.00000000     0.00000000     0.00000000
 
 Results for state 14.2 Doublet
 ==============================
 !MCSCF STATE 14.2 Doublet Energy             -239.030766439498
 Nuclear energy                                  0.00000000
 Kinetic energy                                 91.94441764
 One electron energy                          -414.57416370
 Two electron energy                           175.54339726
 Virial ratio                                    3.59973115
 
 !MCSCF STATE 14.2 Doublet Dipole moment         0.00000000     0.00000000     0.00000000
 Dipole moment /Debye                            0.00000000     0.00000000     0.00000000
 
 Results for state 15.2 Doublet
 ==============================
 !MCSCF STATE 15.2 Doublet Energy             -239.025067179803
 Nuclear energy                                  0.00000000
 Kinetic energy                                 91.95870285
 One electron energy                          -414.64668925
 Two electron energy                           175.62162207
 Virial ratio                                    3.59926532
 
 !MCSCF STATE 15.2 Doublet Dipole moment         0.00000000     0.00000000     0.00000000
 Dipole moment /Debye                            0.00000000     0.00000000     0.00000000
 
 Results for state 16.2 Doublet
 ==============================
 !MCSCF STATE 16.2 Doublet Energy             -239.025067178924
 Nuclear energy                                  0.00000000
 Kinetic energy                                 91.95870286
 One electron energy                          -414.64668929
 Two electron energy                           175.62162211
 Virial ratio                                    3.59926532
 
 !MCSCF STATE 16.2 Doublet Dipole moment         0.00000000     0.00000000     0.00000000
 Dipole moment /Debye                            0.00000000     0.00000000     0.00000000
 
 Results for state 17.2 Doublet
 ==============================
 !MCSCF STATE 17.2 Doublet Energy             -239.025067178143
 Nuclear energy                                  0.00000000
 Kinetic energy                                 91.95870286
 One electron energy                          -414.64668935
 Two electron energy                           175.62162218
 Virial ratio                                    3.59926532
 
 !MCSCF STATE 17.2 Doublet Dipole moment         0.00000000     0.00000000     0.00000000
 Dipole moment /Debye                            0.00000000     0.00000000     0.00000000
 
 State-averaged charge density matrix saved on record 2140.2 (density set 1)
 
 No non-zero expectation values
 
 Expectation values for two-electron operators:
 
 ? Warning
 ? Transition properties are only calculated between states of the same symmetry
 ? The problem occurs in mu_properties_expec2

 !MCSCF expec      <1.2 Quartet|LXLX|1.2 Quartet>    -0.000000000000
 !MCSCF expec      <1.2 Doublet|LXLX|1.2 Doublet>     1.925695634239
 !MCSCF expec      <2.2 Doublet|LXLX|2.2 Doublet>     1.000000007151
 !MCSCF expec      <3.2 Doublet|LXLX|3.2 Doublet>     3.999999999997
 !MCSCF expec      <4.2 Doublet|LXLX|4.2 Doublet>     2.074350188948
 !MCSCF expec      <5.2 Doublet|LXLX|5.2 Doublet>     1.000013205113
 !MCSCF expec      <6.2 Doublet|LXLX|6.2 Doublet>     0.000000000004
 !MCSCF expec      <7.2 Doublet|LXLX|7.2 Doublet>     0.999999999998
 !MCSCF expec      <8.2 Doublet|LXLX|8.2 Doublet>     1.000000000000
 !MCSCF expec      <9.2 Doublet|LXLX|9.2 Doublet>    -0.000000000000
 !MCSCF expec    <10.2 Doublet|LXLX|10.2 Doublet>     0.332945746662
 !MCSCF expec    <11.2 Doublet|LXLX|11.2 Doublet>     0.999999995124
 !MCSCF expec    <12.2 Doublet|LXLX|12.2 Doublet>     0.999999999991
 !MCSCF expec    <13.2 Doublet|LXLX|13.2 Doublet>     3.999999999974
 !MCSCF expec    <14.2 Doublet|LXLX|14.2 Doublet>     3.667058472997
 !MCSCF expec    <15.2 Doublet|LXLX|15.2 Doublet>     1.000000000000
 !MCSCF expec    <16.2 Doublet|LXLX|16.2 Doublet>     1.000000000000
 !MCSCF expec    <17.2 Doublet|LXLX|17.2 Doublet>     0.000000000000
 
 !MCSCF expec      <1.2 Quartet|LYLY|1.2 Quartet>    -0.000000000000
 !MCSCF expec      <1.2 Doublet|LYLY|1.2 Doublet>     0.306297195718
 !MCSCF expec      <2.2 Doublet|LYLY|2.2 Doublet>     1.000000034309
 !MCSCF expec      <3.2 Doublet|LYLY|3.2 Doublet>     1.000000000002
 !MCSCF expec      <4.2 Doublet|LYLY|4.2 Doublet>     3.693674930605
 !MCSCF expec      <5.2 Doublet|LYLY|5.2 Doublet>     3.999996657093
 !MCSCF expec      <6.2 Doublet|LYLY|6.2 Doublet>     0.999999999996
 !MCSCF expec      <7.2 Doublet|LYLY|7.2 Doublet>     0.999999982361
 !MCSCF expec      <8.2 Doublet|LYLY|8.2 Doublet>     0.000000026739
 !MCSCF expec      <9.2 Doublet|LYLY|9.2 Doublet>    -0.000000000000
 !MCSCF expec    <10.2 Doublet|LYLY|10.2 Doublet>     1.876606239008
 !MCSCF expec    <11.2 Doublet|LYLY|11.2 Doublet>     1.000000007890
 !MCSCF expec    <12.2 Doublet|LYLY|12.2 Doublet>     3.999999999602
 !MCSCF expec    <13.2 Doublet|LYLY|13.2 Doublet>     1.000000000030
 !MCSCF expec    <14.2 Doublet|LYLY|14.2 Doublet>     2.123386137582
 !MCSCF expec    <15.2 Doublet|LYLY|15.2 Doublet>     0.999999999786
 !MCSCF expec    <16.2 Doublet|LYLY|16.2 Doublet>     0.000000000223
 !MCSCF expec    <17.2 Doublet|LYLY|17.2 Doublet>     1.000000000000
 
 !MCSCF expec      <1.2 Quartet|LZLZ|1.2 Quartet>    -0.000000000000
 !MCSCF expec      <1.2 Doublet|LZLZ|1.2 Doublet>     3.768007170043
 !MCSCF expec      <2.2 Doublet|LZLZ|2.2 Doublet>     3.999999958540
 !MCSCF expec      <3.2 Doublet|LZLZ|3.2 Doublet>     1.000000000001
 !MCSCF expec      <4.2 Doublet|LZLZ|4.2 Doublet>     0.231974880447
 !MCSCF expec      <5.2 Doublet|LZLZ|5.2 Doublet>     0.999990137794
 !MCSCF expec      <6.2 Doublet|LZLZ|6.2 Doublet>     1.000000000000
 !MCSCF expec      <7.2 Doublet|LZLZ|7.2 Doublet>     0.000000017641
 !MCSCF expec      <8.2 Doublet|LZLZ|8.2 Doublet>     0.999999973261
 !MCSCF expec      <9.2 Doublet|LZLZ|9.2 Doublet>    -0.000000000000
 !MCSCF expec    <10.2 Doublet|LZLZ|10.2 Doublet>     3.790448014331
 !MCSCF expec    <11.2 Doublet|LZLZ|11.2 Doublet>     3.999999996986
 !MCSCF expec    <12.2 Doublet|LZLZ|12.2 Doublet>     1.000000000406
 !MCSCF expec    <13.2 Doublet|LZLZ|13.2 Doublet>     0.999999999997
 !MCSCF expec    <14.2 Doublet|LZLZ|14.2 Doublet>     0.209555389421
 !MCSCF expec    <15.2 Doublet|LZLZ|15.2 Doublet>     0.000000000214
 !MCSCF expec    <16.2 Doublet|LZLZ|16.2 Doublet>     0.999999999777
 !MCSCF expec    <17.2 Doublet|LZLZ|17.2 Doublet>     1.000000000000
 
 !MCSCF expec      <1.2 Quartet|L**2|1.2 Quartet>    -0.000000000000
 !MCSCF expec      <1.2 Doublet|L**2|1.2 Doublet>     6.000000000000
 !MCSCF expec      <2.2 Doublet|L**2|2.2 Doublet>     6.000000000000
 !MCSCF expec      <3.2 Doublet|L**2|3.2 Doublet>     6.000000000000
 !MCSCF expec      <4.2 Doublet|L**2|4.2 Doublet>     6.000000000000
 !MCSCF expec      <5.2 Doublet|L**2|5.2 Doublet>     6.000000000000
 !MCSCF expec      <6.2 Doublet|L**2|6.2 Doublet>     2.000000000000
 !MCSCF expec      <7.2 Doublet|L**2|7.2 Doublet>     2.000000000000
 !MCSCF expec      <8.2 Doublet|L**2|8.2 Doublet>     2.000000000000
 !MCSCF expec      <9.2 Doublet|L**2|9.2 Doublet>    -0.000000000000
 !MCSCF expec    <10.2 Doublet|L**2|10.2 Doublet>     6.000000000000
 !MCSCF expec    <11.2 Doublet|L**2|11.2 Doublet>     6.000000000000
 !MCSCF expec    <12.2 Doublet|L**2|12.2 Doublet>     6.000000000000
 !MCSCF expec    <13.2 Doublet|L**2|13.2 Doublet>     6.000000000000
 !MCSCF expec    <14.2 Doublet|L**2|14.2 Doublet>     6.000000000000
 !MCSCF expec    <15.2 Doublet|L**2|15.2 Doublet>     2.000000000000
 !MCSCF expec    <16.2 Doublet|L**2|16.2 Doublet>     2.000000000000
 !MCSCF expec    <17.2 Doublet|L**2|17.2 Doublet>     2.000000000000
 
 EXTRA SYMMETRY OF MOS IN SYMMETRY 1:   1 6 3 5 2 4 1 1 4 2   6 3 5 1 4 2 6 3 5 1   5 3 4 6 2 6 5 3 4 2  1310111415 812 7 9 1
                                        6 5 3 2 41310111415   812 7 9 11310111514   812 7 9 6 2 4 5 3 1   2 5 3 6 41310111415
                                        812 7 9 1 2 5 3 6 4   1 1
 EXTRA SYMMETRY OF MOS IN SYMMETRY 2:   2 3 1 1 3 2 2 3 1 3   2 1 4 6 810 9 7 5 3   2 1 7 9 810 6 5 4 2   1 3 5 7 9 810 6 4 5
                                        7 9 810 6 4 2 1 3 9   7 5 810 6 4 2 1 318  20121517161421131911   9 7 5 810 6 4 2 1 3
                                        7 9 5 810 6 4 2 1 3   2 1 3
 
  NATURAL ORBITALS (STATE AVERAGED)
  =================================

  Orbital  Occupation    Energy    Cen Mu Typ  Coefficients
    1.1     2.00000    -6.62466     1  1  s    0.99996
    2.1     2.00000    -1.71900     1  1  d1-  1.00082
    3.1     2.00000    -1.71900     1  1  d2-  1.00082
    4.1     2.00000    -1.71900     1  1  d2+  1.00082
    5.1     2.00000    -1.71900     1  1  d0   1.00082
    6.1     2.00000    -1.71900     1  1  d1+  1.00082
    7.1     1.97996    -0.69992     1  1  s   -0.35230    1  4  s    0.57804    1  5  s    0.63409    1  9  s   -0.28901
    1.2     2.00000    -4.69150     1  1  py   0.99963
    2.2     2.00000    -4.69150     1  1  pz   0.99963
    3.2     2.00000    -4.69150     1  1  px   0.99963
    4.2     0.83866    -0.19719     1  1  px  -0.30405    1  4  px   0.46920    1  5  px   0.49073
    5.2     0.83866    -0.19719     1  1  pz  -0.30405    1  4  pz   0.46920    1  5  pz   0.49073
    6.2     0.83866    -0.19719     1  1  py  -0.30405    1  4  py   0.46920    1  5  py   0.49073
    7.2     0.16802     0.02289     1 10  py   0.78719    1 11  py   0.38918
    8.2     0.16802     0.02289     1 10  pz   0.78719    1 11  pz   0.38918
    9.2     0.16802     0.02289     1 10  px   0.78719    1 11  px   0.38918
 
 Natural orbital dump (state averaged) at molpro section 2140.2 (Orbital set 2)
 
 Transform the CI vectors
 
 CI Coefficients of symmetry 2 (Quartet)
 =======================================
 
 2 aaa000       0.99873691
 
 Energy:     -239.27413013
 
 
 CI Coefficients of symmetry 2 (Doublet)
 =======================================

 State:              1               2               3               4               5               6               7
 2 aba000      -0.19560670     -0.00005041      0.00000014      0.78831451      0.00283982     -0.00000000     -0.00000000
 2 aab000       0.78050816     -0.00002184      0.00000024     -0.22475830     -0.00072324     -0.00000000     -0.00000000
 2 a02000       0.00000027     -0.00000027     -0.70340769      0.00000019      0.00000055      0.69288321     -0.00000020
 2 0a2000      -0.00003514     -0.70340767      0.00000027     -0.00005349     -0.00005630      0.00000020      0.69288323
 2 2a0000       0.00003514      0.70340767     -0.00000027      0.00005349      0.00005630      0.00000020      0.69288322
 2 a20000      -0.00000027      0.00000027      0.70340766     -0.00000019     -0.00000055      0.69288324     -0.00000020
 2 20a000      -0.00008389     -0.00005610      0.00000055     -0.00255475      0.70340304     -0.00000132     -0.00009202
 2 02a000       0.00008389      0.00005610     -0.00000055      0.00255475     -0.70340302     -0.00000132     -0.00009202
 2 a0a0b0       0.01373969      0.00000354     -0.00000001     -0.05537232     -0.00019947      0.00000000     -0.00000000
 2 0aa00b      -0.04108433      0.00000507     -0.00000003     -0.03958501     -0.00014867      0.00000000     -0.00000000
 2 baa000      -0.58490147      0.00007225     -0.00000038     -0.56355621     -0.00211658      0.00000000      0.00000000
 2 a0a00b       0.00000589      0.00000394     -0.00000004      0.00017945     -0.04940805      0.00000013      0.00000873
 2 aa000b      -0.00000247     -0.04940838      0.00000002     -0.00000376     -0.00000395     -0.00000002     -0.06570741
 2 a0ab00       0.00000002     -0.00000002     -0.04940835      0.00000001      0.00000004      0.06570738     -0.00000002
 2 aa00b0      -0.00000002      0.00000002      0.04940834     -0.00000001     -0.00000004      0.06570738     -0.00000002
 2 0aab00      -0.00000247     -0.04940835      0.00000002     -0.00000376     -0.00000395      0.00000002      0.06570738
 2 0aa0b0      -0.00000589     -0.00000394      0.00000004     -0.00017945      0.04940802      0.00000013      0.00000873
 2 aa0b00       0.05482400     -0.00000153      0.00000002     -0.01578734     -0.00005080     -0.00000000     -0.00000000
 2 0ab0a0       0.00000145      0.00000097     -0.00000001      0.00004430     -0.01219723     -0.00000003     -0.00000200
 2 0baa00       0.00000061      0.01219731     -0.00000000      0.00000093      0.00000098     -0.00000000     -0.01504636
 2 ba00a0       0.00000000     -0.00000000     -0.01219731      0.00000000      0.00000001     -0.01504636      0.00000000
 2 b0aa00      -0.00000000      0.00000000      0.01219731     -0.00000000     -0.00000001     -0.01504636      0.00000000
 2 ab000a       0.00000061      0.01219731     -0.00000000      0.00000093      0.00000098      0.00000000      0.01504636
 2 a0b00a      -0.00000145     -0.00000097      0.00000001     -0.00004430      0.01219723     -0.00000003     -0.00000200
 2 0ba00a       0.00318644     -0.00000305      0.00000001      0.03780536      0.00013769     -0.00000000      0.00000000
 2 b0a0a0       0.01740766     -0.00000344      0.00000002      0.03371012      0.00012451     -0.00000000      0.00000000
 2 ab0a00      -0.02049018     -0.00000141      0.00000000      0.03193046      0.00011353      0.00000000      0.00000000
 2 a0b0a0      -0.03114735     -0.00000010     -0.00000001      0.02166220      0.00007496     -0.00000000      0.00000000
 2 ba0a00      -0.03433381      0.00000295     -0.00000002     -0.01614312     -0.00006273      0.00000000      0.00000000
 2 0ab00a       0.03789789     -0.00000203      0.00000001      0.00177965      0.00001098     -0.00000000      0.00000000
 2 b0a00a      -0.00000444     -0.00000297      0.00000003     -0.00013515      0.03721082     -0.00000010     -0.00000673
 2 ba000a       0.00000186      0.03721107     -0.00000001      0.00000283      0.00000298      0.00000001      0.05066105
 2 a0ba00      -0.00000001      0.00000001      0.03721104     -0.00000001     -0.00000003     -0.05066102      0.00000001
 2 0aba00       0.00000186      0.03721104     -0.00000001      0.00000283      0.00000298     -0.00000001     -0.05066102
 2 ab00a0       0.00000001     -0.00000001     -0.03721103      0.00000001      0.00000003     -0.05066102      0.00000001
 2 0ba0a0       0.00000444      0.00000297     -0.00000003      0.00013515     -0.03721078     -0.00000010     -0.00000673
 0 a22000      -0.00000000     -0.00000000      0.00000000      0.00000000     -0.00000000     -0.15389099      0.00000004
 0 22a000       0.00000000      0.00000000     -0.00000000      0.00000000     -0.00000000      0.00000029      0.00002044
 0 2a2000       0.00000000      0.00000000     -0.00000000      0.00000000      0.00000000     -0.00000004     -0.15389099
 2 02000a      -0.00000001      0.00000001      0.02501376     -0.00000001     -0.00000002      0.02402704     -0.00000001
 2 2000a0       0.00000125      0.02501372     -0.00000001      0.00000190      0.00000200      0.00000001      0.02402700
 2 200a00      -0.00000298     -0.00000199      0.00000002     -0.00009085      0.02501356     -0.00000005     -0.00000319
 2 00200a       0.00000001     -0.00000001     -0.02501376      0.00000001      0.00000002      0.02402704     -0.00000001
 2 020a00       0.00000298      0.00000199     -0.00000002      0.00009085     -0.02501356     -0.00000005     -0.00000319
 2 0020a0      -0.00000125     -0.02501372      0.00000001     -0.00000190     -0.00000200      0.00000001      0.02402700
 0 a2a0b0      -0.00385618     -0.00000099      0.00000000      0.01554077      0.00005598     -0.00000000      0.00000000
 0 2aa00b       0.01153070     -0.00000142      0.00000001      0.01110990      0.00004173     -0.00000000     -0.00000000
 0 2aa0b0       0.00000165      0.00000111     -0.00000001      0.00005036     -0.01386684      0.00000000      0.00000034
 0 2aab00       0.00000069      0.01386693     -0.00000001      0.00000105      0.00000111      0.00000000      0.00259698
 0 aa20b0       0.00000001     -0.00000001     -0.01386693      0.00000000      0.00000001      0.00259698     -0.00000000
 0 a2ab00      -0.00000001      0.00000001      0.01386693     -0.00000000     -0.00000001      0.00259698     -0.00000000
 0 aa200b       0.00000069      0.01386692     -0.00000001      0.00000105      0.00000111     -0.00000000     -0.00259697
 0 a2a00b      -0.00000165     -0.00000111      0.00000001     -0.00005036      0.01386683      0.00000000      0.00000034
 
 Energy:     -239.21382537   -239.21382537   -239.21382537   -239.21382537   -239.21382537   -239.19065090   -239.19065090

 State:              8               9              10              11              12              13              14
 2 aba000      -0.00000000      0.00000002      0.01488723      0.00000148     -0.00000031      0.00000013      0.06331589
 2 aab000      -0.00000000      0.00000001      0.04738958      0.00000221      0.00000001     -0.00000005     -0.04455064
 2 a02000       0.00000132      0.00000000     -0.00000004      0.00000001      0.00000002      0.05632848     -0.00000010
 2 0a2000       0.00009202      0.00000000      0.00000317     -0.05632848     -0.00000047      0.00000001      0.00000057
 2 2a0000       0.00009202      0.00000000     -0.00000317      0.05632853      0.00000047     -0.00000001     -0.00000057
 2 a20000       0.00000132      0.00000000      0.00000004     -0.00000001     -0.00000002     -0.05632847      0.00000010
 2 20a000       0.69288320      0.00000000      0.00000021     -0.00000047      0.05632853     -0.00000002      0.00000023
 2 02a000       0.69288324     -0.00000000     -0.00000021      0.00000047     -0.05632847      0.00000002     -0.00000023
 2 a0a0b0       0.00000000     -0.46849043      0.14888710      0.00001479     -0.00000310      0.00000127      0.63322266
 2 0aa00b      -0.00000000      0.46849045      0.62283044      0.00003691     -0.00000305      0.00000076      0.18767131
 2 baa000       0.00000000     -0.00000002     -0.06227680     -0.00000369      0.00000030     -0.00000008     -0.01876525
 2 a0a00b      -0.06570741     -0.00000000      0.00000207     -0.00000466      0.56334163     -0.00000020      0.00000227
 2 aa000b      -0.00000873     -0.00000000     -0.00003167      0.56334161      0.00000466     -0.00000014     -0.00000571
 2 a0ab00       0.00000013      0.00000000      0.00000037     -0.00000014     -0.00000020     -0.56334159      0.00000104
 2 aa00b0       0.00000013     -0.00000000     -0.00000037      0.00000014      0.00000020      0.56334155     -0.00000104
 2 0aab00       0.00000873      0.00000000     -0.00003167      0.56334152      0.00000466     -0.00000014     -0.00000571
 2 0aa0b0      -0.06570738     -0.00000000     -0.00000207      0.00000466     -0.56334150      0.00000020     -0.00000227
 2 aa0b00      -0.00000000      0.46849044     -0.47394336     -0.00002213     -0.00000005      0.00000051      0.44555132
 2 0ab0a0       0.01504636      0.00000000      0.00000121     -0.00000273      0.32960062     -0.00000011      0.00000133
 2 0baa00      -0.00000200     -0.00000000      0.00001853     -0.32960062     -0.00000273      0.00000008      0.00000334
 2 ba00a0      -0.00000003      0.00000000      0.00000022     -0.00000008     -0.00000011     -0.32960065      0.00000061
 2 b0aa00      -0.00000003      0.00000000     -0.00000022      0.00000008      0.00000011      0.32960066     -0.00000061
 2 ab000a       0.00000200      0.00000000      0.00001853     -0.32960067     -0.00000273      0.00000008      0.00000334
 2 a0b00a       0.01504636      0.00000000     -0.00000121      0.00000273     -0.32960068      0.00000011     -0.00000133
 2 0ba00a       0.00000000     -0.23424523     -0.33907145     -0.00001908      0.00000125     -0.00000023     -0.00205209
 2 b0a0a0      -0.00000000      0.23424521      0.01887145     -0.00000237      0.00000129     -0.00000061     -0.33855212
 2 ab0a00      -0.00000000     -0.23424523      0.30263045      0.00001546     -0.00000050     -0.00000008     -0.15293288
 2 a0b0a0      -0.00000000      0.23424522     -0.16775856     -0.00001242      0.00000180     -0.00000066     -0.29467055
 2 ba0a00       0.00000000     -0.23424522      0.17131291      0.00000666      0.00000055     -0.00000043     -0.29261844
 2 0ab00a       0.00000000     -0.23424522     -0.28375900     -0.00001783      0.00000179     -0.00000053     -0.18561921
 2 b0a00a       0.05066105      0.00000000     -0.00000086      0.00000193     -0.23374095      0.00000008     -0.00000094
 2 ba000a       0.00000673      0.00000000      0.00001314     -0.23374094     -0.00000193      0.00000006      0.00000237
 2 a0ba00      -0.00000010     -0.00000000     -0.00000015      0.00000006      0.00000008      0.23374093     -0.00000043
 2 0aba00      -0.00000673     -0.00000000      0.00001314     -0.23374090     -0.00000193      0.00000006      0.00000237
 2 ab00a0      -0.00000010      0.00000000      0.00000015     -0.00000006     -0.00000008     -0.23374090      0.00000043
 2 0ba0a0       0.05066102      0.00000000      0.00000086     -0.00000193      0.23374088     -0.00000008      0.00000094
 0 a22000      -0.00000029      0.00000000     -0.00000000     -0.00000000     -0.00000000     -0.00000000     -0.00000000
 0 22a000      -0.15389099      0.00000000     -0.00000000      0.00000000     -0.00000001      0.00000000     -0.00000000
 0 2a2000      -0.00002044     -0.00000000      0.00000000     -0.00000000     -0.00000000     -0.00000000      0.00000000
 2 02000a       0.00000005     -0.00000000      0.00000006     -0.00000002     -0.00000003     -0.09585973      0.00000018
 2 2000a0       0.00000319      0.00000000     -0.00000539      0.09585973      0.00000079     -0.00000002     -0.00000097
 2 200a00       0.02402700      0.00000000      0.00000035     -0.00000079      0.09585973     -0.00000003      0.00000039
 2 00200a       0.00000005     -0.00000000     -0.00000006      0.00000002      0.00000003      0.09585973     -0.00000018
 2 020a00       0.02402701     -0.00000000     -0.00000035      0.00000079     -0.09585973      0.00000003     -0.00000039
 2 0020a0       0.00000319     -0.00000000      0.00000539     -0.09585973     -0.00000079      0.00000002      0.00000097
 0 a2a0b0       0.00000000      0.04839433     -0.01545792     -0.00000154      0.00000032     -0.00000013     -0.06574315
 0 2aa00b      -0.00000000     -0.04839433     -0.06466420     -0.00000383      0.00000032     -0.00000008     -0.01948462
 0 2aa0b0      -0.00259698      0.00000000      0.00000022     -0.00000048      0.05848787     -0.00000002      0.00000024
 0 2aab00       0.00000034     -0.00000000      0.00000329     -0.05848787     -0.00000048      0.00000001      0.00000059
 0 aa20b0       0.00000000      0.00000000      0.00000004     -0.00000001     -0.00000002     -0.05848788      0.00000011
 0 a2ab00       0.00000000      0.00000000     -0.00000004      0.00000001      0.00000002      0.05848788     -0.00000011
 0 aa200b      -0.00000034      0.00000000      0.00000329     -0.05848788     -0.00000048      0.00000001      0.00000059
 0 a2a00b      -0.00259697      0.00000000     -0.00000022      0.00000048     -0.05848789      0.00000002     -0.00000024
 
 Energy:     -239.19065090   -239.04355021   -239.03076644   -239.03076644   -239.03076644   -239.03076644   -239.03076644

 State:             15              16              17
 2 aba000       0.00000000     -0.00000000      0.00000000
 2 aab000      -0.00000000      0.00000000      0.00000000
 2 a02000       0.00000001      0.00000003     -0.07203459
 2 0a2000       0.07203460      0.00000105      0.00000001
 2 2a0000       0.07203463      0.00000105      0.00000001
 2 a20000       0.00000001      0.00000003     -0.07203459
 2 20a000      -0.00000105      0.07203462      0.00000003
 2 02a000      -0.00000105      0.07203460      0.00000003
 2 a0a0b0       0.00000000     -0.00000000      0.00000000
 2 0aa00b       0.00000000      0.00000000      0.00000000
 2 baa000       0.00000000      0.00000000     -0.00000000
 2 a0a00b      -0.00000821      0.56113059      0.00000020
 2 aa000b       0.56113061      0.00000821      0.00000011
 2 a0ab00      -0.00000011     -0.00000020      0.56113063
 2 aa00b0      -0.00000011     -0.00000020      0.56113067
 2 0aab00      -0.56113069     -0.00000821     -0.00000011
 2 0aa0b0      -0.00000821      0.56113071      0.00000020
 2 aa0b00       0.00000000      0.00000000      0.00000000
 2 0ab0a0       0.00000502     -0.34271963     -0.00000012
 2 0baa00       0.34271961      0.00000502      0.00000007
 2 ba00a0       0.00000007      0.00000012     -0.34271961
 2 b0aa00       0.00000007      0.00000012     -0.34271957
 2 ab000a      -0.34271955     -0.00000502     -0.00000007
 2 a0b00a       0.00000502     -0.34271953     -0.00000012
 2 0ba00a      -0.00000000     -0.00000000     -0.00000000
 2 b0a0a0      -0.00000000      0.00000000     -0.00000000
 2 ab0a00      -0.00000000     -0.00000000      0.00000000
 2 a0b0a0      -0.00000000      0.00000000     -0.00000000
 2 ba0a00      -0.00000000     -0.00000000     -0.00000000
 2 0ab00a      -0.00000000     -0.00000000     -0.00000000
 2 b0a00a       0.00000320     -0.21841106     -0.00000008
 2 ba000a      -0.21841106     -0.00000320     -0.00000004
 2 a0ba00       0.00000004      0.00000008     -0.21841106
 2 0aba00       0.21841109      0.00000320      0.00000004
 2 ab00a0       0.00000004      0.00000008     -0.21841107
 2 0ba0a0       0.00000320     -0.21841108     -0.00000008
 0 a22000      -0.00000000     -0.00000001      0.01795216
 0 22a000       0.00000026     -0.01795217     -0.00000001
 0 2a2000      -0.01795217     -0.00000026     -0.00000000
 2 02000a       0.00000002      0.00000003     -0.07563590
 2 2000a0       0.07563587      0.00000111      0.00000002
 2 200a00      -0.00000111      0.07563586      0.00000003
 2 00200a       0.00000002      0.00000003     -0.07563588
 2 020a00      -0.00000111      0.07563591      0.00000003
 2 0020a0       0.07563590      0.00000111      0.00000002
 0 a2a0b0      -0.00000000      0.00000000     -0.00000000
 0 2aa00b      -0.00000000     -0.00000000     -0.00000000
 0 2aa0b0       0.00000089     -0.06060067     -0.00000002
 0 2aab00       0.06060067      0.00000089      0.00000001
 0 aa20b0       0.00000001      0.00000002     -0.06060067
 0 a2ab00       0.00000001      0.00000002     -0.06060066
 0 aa200b      -0.06060066     -0.00000089     -0.00000001
 0 a2a00b       0.00000089     -0.06060066     -0.00000002
 
 Energy:     -239.02506718   -239.02506718   -239.02506718
 


 **********************************************************************************************************************************
 DATASETS  * FILE   NREC   LENGTH (MB)   RECORD NAMES
              1      21       57.06       500      610      700      900      950      970     1000      129      960     1100   
                                          VAR    BASINP    GEOM    SYMINP    ZMAT    AOBASIS   BASIS     P2S    ABASIS      S 
                                         1400     1410     1420     1200     1210     1080     1700     1600     1650     1380   
                                           T        V       ECP      H0       H01     AOSYM    OPER      SMH    MOLCAS    JKOP   
                                         1700(1)
                                         OPER   

              2       4        0.87       700     1000      520     2140   
                                         GEOM     BASIS   MCVARS    MCSCF   

 PROGRAMS   *        TOTAL     MULTI       INT
 CPU TIMES  *        12.19      8.10      3.78
 REAL TIME  *        15.40 SEC
 DISK USED  *        58.03 MB (local),        2.14 GB (total)
 SF USED    *        72.38 MB
 GA USED    *         0.00 MB       (max)       0.00 MB       (current)
 **********************************************************************************************************************************

 Energies and &lt;L**2&gt; values

         ENERGY     LL
    -239.2741301  -0.0
    -239.2138254   6.0
    -239.2138254   6.0
    -239.2138254   6.0
    -239.2138254   6.0
    -239.2138254   6.0
    -239.1906509   2.0
    -239.1906509   2.0
    -239.1906509   2.0
    -239.0435502  -0.0
    -239.0307664   6.0
    -239.0307664   6.0
    -239.0307664   6.0
    -239.0307664   6.0
    -239.0307664   6.0
    -239.0250672   2.0
    -239.0250672   2.0
    -239.0250672   2.0
                                                  


 PROGRAM * CI (Multireference internally contracted CI)     Authors: H.-J. Werner, P.J. Knowles, 1987


 Convergence thresholds:  THRVAR = 1.00D-08  THRDEN = 1.00D-06

 Number of optimized states: 1  Roots:    1
 Number of reference states: 1  Roots:    1

 Reference symmetry:                   2   Quartet 
 Number of electrons:                 23
 Maximum number of shells:             5
 Maximum number of spin couplings:   165

 Reference space:       86 conf      104 CSFs
 N elec internal:    18764 conf    67760 CSFs
 N-1 el internal:    14189 conf   101369 CSFs
 N-2 el internal:     4931 conf    61610 CSFs

 Number of electrons in valence space:                     23
 Maximum number of open shell orbitals in reference space:  5
 Maximum number of open shell orbitals in internal spaces: 11


 Number of closed-shell orbitals:   9 (   6   3 )
 Number of active  orbitals:        7 (   1   6 )
 Number of external orbitals:     169 (  85  84 )

 Molecular orbitals read from record     2140.2  Type=MCSCF/NATURAL (state averaged)

 Valence orbitals related to previous ones by unitary transformation. Operators transformed.


 Number of p-space configurations:  10

 Reference wavefunction optimized for reference space (refopt=1)

 State     Reference Energy 
     1      -239.27413013

 Number of blocks in overlap matrix:   167   Smallest eigenvalue:  0.13D-04
 Number of N-2 electron functions:     250
 Number of N-1 electron functions:  101369

 Number of internal configurations:                33680
 Number of singly external configurations:       8565644
 Number of doubly external configurations:       1785907
 Total number of contracted configurations:     10385231
 Total number of uncontracted configurations:  447321117

 Diagonal Coupling coefficients finished.               Storage:  10292981 words, CPU-Time:      0.58 seconds.
 Energy denominators for pairs finished in 1 passes.    Storage:   1993866 words, CPU-time:      0.60 seconds.

  ITER. STATE  ROOT     SQ.NORM     CORR.ENERGY   TOTAL ENERGY   ENERGY CHANGE       DEN1      VAR(S)    VAR(P)      TIME
    1     1     1     1.00000000     0.00000000  -239.27413013     0.00000000    -1.03604417  0.50D-01  0.12D+00     2.57
    2     1     1     1.10423454    -0.81736924  -240.09149937    -0.81736924    -0.02736231  0.48D-02  0.17D-02    17.33
    3     1     1     1.08874347    -0.84330280  -240.11743293    -0.02593356    -0.00044023  0.69D-04  0.38D-04    31.89
    4     1     1     1.08829687    -0.84374959  -240.11787972    -0.00044678    -0.00001207  0.20D-05  0.12D-05    46.39
    5     1     1     1.08836049    -0.84376189  -240.11789202    -0.00001230    -0.00000039  0.32D-07  0.64D-07    60.94
    6     1     1     1.08837793    -0.84376230  -240.11789243    -0.00000041    -0.00000002  0.15D-08  0.36D-08    75.49


 =====================================
 Analysis of CPU times by interactions
 =====================================

       I      S      P

 I   3.1%
 S   3.4%  26.1%
 P   0.9%  52.6%   4.2%

 Initialization:   1.9%
 Other:            7.8%

 Total CPU:       75.5 seconds
 =====================================



 Wavefunction saved on  5302.2

 Reference coefficients greater than 0.0500000
 =============================================
 2222222222///000           0.9576637


 RESULTS FOR STATE 1.2
 =====================

 Coefficient of reference function:   C(0) = 0.95848030 (fixed)   0.95851390 (relaxed)

 Energy contributions of configuration classes

 CLASS          SQ.NORM        ECORR1        ECORR2
 +++++++++++++++++++++++++++++++++++++++++++++++++++
 Internals    0.00012409   -0.00021009   -0.00028920
 Singles      0.01382789   -0.05055799   -0.05716828
 Pairs        0.07456101   -0.79299422   -0.78630482
 Total        1.08851299   -0.84376230   -0.84376230
 +++++++++++++++++++++++++++++++++++++++++++++++++++


 Reference energy                    -239.27413013
 Nuclear energy                         0.00000000
 Kinetic energy                        93.13880903
 One electron energy                 -419.51401461
 Two electron energy                  179.39612218
 Virial quotient                       -2.57806488
 Correlation energy                    -0.84376230
 !MRCI STATE 1.2 Energy              -240.117892427691

 Properties without orbital relaxation:

 !MRCI STATE 1.2 Dipole moment          0.00000000     0.00000000     0.00000000
 Dipole moment /Debye                   0.00000000     0.00000000     0.00000000

 Cluster corrected energies          -240.19257636 (Davidson, fixed reference)
 Cluster corrected energies          -240.19251196 (Davidson, relaxed reference)

 Cluster corrected energies          -240.19017125 (Pople, fixed reference)
 Cluster corrected energies          -240.19010429 (Pople, relaxed reference)



 **********************************************************************************************************************************
 DATASETS  * FILE   NREC   LENGTH (MB)   RECORD NAMES
              1      21       57.06       500      610      700      900      950      970     1000      129      960     1100   
                                          VAR    BASINP    GEOM    SYMINP    ZMAT    AOBASIS   BASIS     P2S    ABASIS      S 
                                         1400     1410     1420     1200     1210     1080     1700     1600     1650     1380   
                                           T        V       ECP      H0       H01     AOSYM    OPER      SMH    MOLCAS    JKOP   
                                         1700(1)
                                         OPER   

              2       5       82.39       700     1000      520     2140     5302   
                                         GEOM     BASIS   MCVARS    MCSCF    MRCI   

 PROGRAMS   *        TOTAL        CI     MULTI       INT
 CPU TIMES  *        89.23     77.02      8.10      3.78
 REAL TIME  *        96.05 SEC
 DISK USED  *       139.56 MB (local),        4.69 GB (total)
 SF USED    *         1.10 GB
 GA USED    *         0.00 MB       (max)       0.00 MB       (current)
 **********************************************************************************************************************************
 SETTING HLSDIAG(1)     =      -240.19251196  AU                              


 PROGRAM * CI (Multireference internally contracted CI)     Authors: H.-J. Werner, P.J. Knowles, 1987


 Convergence thresholds:  THRVAR = 1.00D-08  THRDEN = 1.00D-06

 Number of optimized states: 17  Roots:   1   2   3   4   5   6   7   8   9  10  11  12  13  14  15  16  17
 Number of reference states: 17  Roots:   1   2   3   4   5   6   7   8   9  10  11  12  13  14  15  16  17

 Reference symmetry:                   2   Doublet 
 Number of electrons:                 23
 Maximum number of shells:             6
 Maximum number of spin couplings:   132

 Reference space:      176 conf      280 CSFs
 N elec internal:    21164 conf    87808 CSFs
 N-1 el internal:    18620 conf   124768 CSFs
 N-2 el internal:     9446 conf    81340 CSFs

 Number of electrons in valence space:                     23
 Maximum number of open shell orbitals in reference space:  5
 Maximum number of open shell orbitals in internal spaces: 11


 Number of closed-shell orbitals:   9 (   6   3 )
 Number of active  orbitals:        7 (   1   6 )
 Number of external orbitals:     169 (  85  84 )

 Molecular orbitals read from record     2140.2  Type=MCSCF/NATURAL (state averaged)

 Coulomb and exchange operators available. No transformation done.


 Number of p-space configurations:  35

 Reference wavefunction optimized for reference space (refopt=1)

 State     Reference Energy 
     1      -239.21382537
     2      -239.21382537
     3      -239.21382537
     4      -239.21382537
     5      -239.21382537
     6      -239.19065090
     7      -239.19065090
     8      -239.19065090
     9      -239.04355021
    10      -239.03076644
    11      -239.03076644
    12      -239.03076644
    13      -239.03076644
    14      -239.03076644
    15      -239.02506718
    16      -239.02506718
    17      -239.02506718

 ?WARNING: SMALL EIGENVALUE OF PAIR OVERLAP MATRIX:  0.1152D-06

 ?WARNING: SMALL EIGENVALUE OF PAIR OVERLAP MATRIX:  0.1344D-06

 ?WARNING: SMALL EIGENVALUE OF PAIR OVERLAP MATRIX:  0.1344D-06

 ?WARNING: SMALL EIGENVALUE OF PAIR OVERLAP MATRIX:  0.1344D-06

 ?WARNING: SMALL EIGENVALUE OF PAIR OVERLAP MATRIX:  0.1344D-06

 ?WARNING: SMALL EIGENVALUE OF PAIR OVERLAP MATRIX:  0.1344D-06

 ?WARNING: SMALL EIGENVALUE OF PAIR OVERLAP MATRIX:  0.1344D-06

 ?WARNING: SMALL EIGENVALUE OF PAIR OVERLAP MATRIX:  0.1344D-06

 ?WARNING: SMALL EIGENVALUE OF PAIR OVERLAP MATRIX:  0.1344D-06

 ?WARNING: SMALL EIGENVALUE OF PAIR OVERLAP MATRIX:  0.1344D-06

 ?WARNING: SMALL EIGENVALUE OF PAIR OVERLAP MATRIX:  0.1344D-06

 ?WARNING: SMALL EIGENVALUE OF PAIR OVERLAP MATRIX:  0.1344D-06

 ?WARNING: SMALL EIGENVALUE OF PAIR OVERLAP MATRIX:  0.1344D-06

 ?WARNING: SMALL EIGENVALUE OF PAIR OVERLAP MATRIX:  0.1344D-06

 ?WARNING: SMALL EIGENVALUE OF PAIR OVERLAP MATRIX:  0.1344D-06

 ?WARNING: SMALL EIGENVALUE OF PAIR OVERLAP MATRIX:  0.1344D-06

 ?WARNING: SMALL EIGENVALUE OF PAIR OVERLAP MATRIX:  0.1344D-06

 ?WARNING: SMALL EIGENVALUE OF PAIR OVERLAP MATRIX:  0.1344D-06

 ?WARNING: SMALL EIGENVALUE OF PAIR OVERLAP MATRIX:  0.1344D-06

 Number of blocks in overlap matrix:  1471   Smallest eigenvalue:  0.12D-06
 Number of N-2 electron functions:    3556
 Number of N-1 electron functions:  124768

 Number of internal configurations:                44086
 Number of singly external configurations:      10542724
 Number of doubly external configurations:      25402678
 Total number of contracted configurations:     35989488
 Total number of uncontracted configurations:  590453964

 Diagonal Coupling coefficients finished.               Storage:  46681860 words, CPU-Time:    230.50 seconds.
 Energy denominators for pairs finished in 1 passes.    Storage:   2935596 words, CPU-time:      8.50 seconds.

  ITER. STATE  ROOT     SQ.NORM     CORR.ENERGY   TOTAL ENERGY   ENERGY CHANGE       DEN1      VAR(S)    VAR(P)      TIME
    1     1     1     1.00000000     0.00000000  -239.21382537     0.00000000    -1.03657706  0.60D-01  0.11D+00   262.04
    1     2     2     1.00000000     0.00000000  -239.21382537     0.00000000    -1.03604900  0.59D-01  0.11D+00   262.04
    1     3     3     1.00000000     0.00000000  -239.21382537     0.00000000    -1.03679770  0.60D-01  0.11D+00   262.04
    1     4     4     1.00000000     0.00000000  -239.21382537     0.00000000    -1.03783820  0.60D-01  0.11D+00   262.04
    1     5     5     1.00000000     0.00000000  -239.21382537     0.00000000    -1.03655498  0.59D-01  0.11D+00   262.04
    1     6     6     1.00000000     0.00000000  -239.19065090     0.00000000    -1.01696433  0.41D-01  0.11D+00   262.04
    1     7     7     1.00000000     0.00000000  -239.19065090     0.00000000    -1.01674424  0.41D-01  0.11D+00   262.04
    1     8     8     1.00000000     0.00000000  -239.19065090     0.00000000    -1.01713304  0.41D-01  0.11D+00   262.04
    1     9     9     1.00000000     0.00000000  -239.04355021     0.00000000    -0.98661429  0.44D-01  0.10D+00   262.04
    1    10    10     1.00000000     0.00000000  -239.03076644     0.00000000    -0.99070316  0.46D-01  0.10D+00   262.04
    1    11    11     1.00000000     0.00000000  -239.03076644    -0.00000000    -0.99096522  0.45D-01  0.10D+00   262.04
    1    12    12     1.00000000     0.00000000  -239.03076644     0.00000000    -0.99085447  0.45D-01  0.10D+00   262.04
    1    13    13     1.00000000     0.00000000  -239.03076644     0.00000000    -0.99102729  0.45D-01  0.10D+00   262.04
    1    14    14     1.00000000     0.00000000  -239.03076644     0.00000000    -0.99083530  0.46D-01  0.10D+00   262.04
    1    15    15     1.00000000     0.00000000  -239.02506718     0.00000000    -0.99167149  0.47D-01  0.10D+00   262.04
    1    16    16     1.00000000     0.00000000  -239.02506718     0.00000000    -0.99161882  0.47D-01  0.10D+00   262.04
    1    17    17     1.00000000     0.00000000  -239.02506718     0.00000000    -0.99175388  0.47D-01  0.10D+00   262.04
    2     1     1     1.10830143    -0.82607097  -240.03989634    -0.82607097    -0.02825829  0.55D-02  0.17D-02  1737.39
    2     2     2     1.10834754    -0.82605166  -240.03987702    -0.82605166    -0.02831680  0.55D-02  0.17D-02  1737.39
    2     3     3     1.10851649    -0.82592100  -240.03974636    -0.82592099    -0.02844892  0.55D-02  0.17D-02  1737.39
    2     4     4     1.10865451    -0.82570017  -240.03952554    -0.82570017    -0.02865937  0.57D-02  0.17D-02  1737.39
    2     5     5     1.10906810    -0.82530586  -240.03913123    -0.82530586    -0.02906739  0.59D-02  0.17D-02  1737.39
    2     6     6     1.10103445    -0.82356046  -240.01421136    -0.82356046    -0.02528447  0.50D-02  0.16D-02  1737.39
    2     7     7     1.10114222    -0.82352713  -240.01417803    -0.82352713    -0.02533582  0.50D-02  0.16D-02  1737.39
    2     8     8     1.10106908    -0.82345405  -240.01410495    -0.82345405    -0.02536384  0.50D-02  0.17D-02  1737.39
    2     9     9     1.09788261    -0.80854283  -239.85209304    -0.80854283    -0.02032481  0.29D-02  0.13D-02  1737.39
    2    10    10     1.09855242    -0.80971887  -239.84048531    -0.80971887    -0.02109441  0.32D-02  0.13D-02  1737.39
    2    11    11     1.09864759    -0.80967852  -239.84044496    -0.80967852    -0.02113338  0.33D-02  0.13D-02  1737.39
    2    12    12     1.09870497    -0.80962901  -239.84039545    -0.80962901    -0.02118578  0.33D-02  0.13D-02  1737.39
    2    13    13     1.09873500    -0.80961068  -239.84037712    -0.80961068    -0.02119981  0.33D-02  0.13D-02  1737.39
    2    14    14     1.09891560    -0.80944395  -239.84021039    -0.80944395    -0.02137267  0.34D-02  0.13D-02  1737.39
    2    15    15     1.09976689    -0.80943989  -239.83450707    -0.80943989    -0.02167085  0.38D-02  0.13D-02  1737.39
    2    16    16     1.09984208    -0.80936266  -239.83442984    -0.80936266    -0.02174976  0.39D-02  0.13D-02  1737.39
    2    17    17     1.09988534    -0.80936218  -239.83442936    -0.80936218    -0.02174544  0.39D-02  0.13D-02  1737.39
    3     1     1     1.09340472    -0.85285780  -240.06668316    -0.02678683    -0.00075879  0.12D-03  0.84D-04  3218.68
    3     2     2     1.09339693    -0.85285092  -240.06667628    -0.02679926    -0.00076331  0.12D-03  0.84D-04  3218.68
    3     3     3     1.09336909    -0.85284902  -240.06667439    -0.02692802    -0.00076445  0.12D-03  0.85D-04  3218.68
    3     4     4     1.09336353    -0.85282880  -240.06665416    -0.02712863    -0.00077981  0.12D-03  0.87D-04  3218.68
    3     5     5     1.09335603    -0.85281918  -240.06664455    -0.02751332    -0.00079011  0.12D-03  0.89D-04  3218.68
    3     6     6     1.09019512    -0.84797728  -240.03862819    -0.02441682    -0.00066859  0.78D-04  0.90D-04  3218.68
    3     7     7     1.09022696    -0.84797386  -240.03862476    -0.02444673    -0.00067164  0.79D-04  0.91D-04  3218.68
    3     8     8     1.09016194    -0.84795187  -240.03860277    -0.02449782    -0.00068335  0.79D-04  0.93D-04  3218.68
    3     9     9     1.08709006    -0.82803290  -239.87158311    -0.01949007    -0.00034430  0.45D-04  0.32D-04  3218.68
    3    10    10     1.08740638    -0.82990793  -239.86067437    -0.02018905    -0.00039347  0.52D-04  0.41D-04  3218.68
    3    11    11     1.08741599    -0.82990530  -239.86067174    -0.02022678    -0.00039583  0.52D-04  0.41D-04  3218.68
    3    12    12     1.08741320    -0.82990309  -239.86066953    -0.02027408    -0.00039837  0.52D-04  0.42D-04  3218.68
    3    13    13     1.08741603    -0.82990221  -239.86066865    -0.02029153    -0.00039799  0.52D-04  0.42D-04  3218.68
    3    14    14     1.08740545    -0.82989583  -239.86066227    -0.02045188    -0.00040431  0.53D-04  0.42D-04  3218.68
    3    15    15     1.08759211    -0.83027826  -239.85534544    -0.02083837    -0.00042677  0.58D-04  0.47D-04  3218.68
    3    16    16     1.08758275    -0.83027591  -239.85534309    -0.02091325    -0.00042886  0.58D-04  0.47D-04  3218.68
    3    17    17     1.08759644    -0.83027231  -239.85533949    -0.02091013    -0.00043100  0.59D-04  0.48D-04  3218.68
    4     1     1     1.09308010    -0.85366863  -240.06749399    -0.00081083    -0.00004983  0.37D-05  0.81D-05  4708.33
    4     2     2     1.09307384    -0.85366764  -240.06749301    -0.00081673    -0.00005059  0.37D-05  0.81D-05  4708.33
    4     3     3     1.09307913    -0.85366741  -240.06749278    -0.00081840    -0.00005062  0.37D-05  0.82D-05  4708.33
    4     4     4     1.09305705    -0.85366486  -240.06749022    -0.00083606    -0.00005210  0.37D-05  0.85D-05  4708.33
    4     5     5     1.09305989    -0.85366484  -240.06749021    -0.00084567    -0.00005216  0.37D-05  0.85D-05  4708.33
    4     6     6     1.09097099    -0.84872695  -240.03937786    -0.00074967    -0.00005359  0.29D-05  0.93D-05  4708.33
    4     7     7     1.09097174    -0.84872638  -240.03937728    -0.00075252    -0.00005399  0.29D-05  0.94D-05  4708.33
    4     8     8     1.09094207    -0.84872202  -240.03937293    -0.00077015    -0.00005672  0.30D-05  0.98D-05  4708.33
    4     9     9     1.08690955    -0.82839669  -239.87194690    -0.00036379    -0.00001711  0.21D-05  0.25D-05  4708.33
    4    10    10     1.08728831    -0.83033106  -239.86109750    -0.00042313    -0.00002523  0.26D-05  0.44D-05  4708.33
    4    11    11     1.08728870    -0.83033104  -239.86109748    -0.00042574    -0.00002528  0.26D-05  0.44D-05  4708.33
    4    12    12     1.08728772    -0.83033067  -239.86109711    -0.00042758    -0.00002535  0.26D-05  0.44D-05  4708.33
    4    13    13     1.08728541    -0.83033029  -239.86109673    -0.00042807    -0.00002566  0.26D-05  0.45D-05  4708.33
    4    14    14     1.08728373    -0.83033005  -239.86109649    -0.00043422    -0.00002576  0.26D-05  0.45D-05  4708.33
    4    15    15     1.08744340    -0.83074485  -239.85581203    -0.00046659    -0.00002961  0.30D-05  0.53D-05  4708.33
    4    16    16     1.08744070    -0.83074455  -239.85581173    -0.00046864    -0.00002966  0.30D-05  0.53D-05  4708.33
    4    17    17     1.08743877    -0.83074373  -239.85581091    -0.00047142    -0.00003011  0.30D-05  0.53D-05  4708.33
    5     1     1     1.09337152    -0.85372904  -240.06755441    -0.00006042    -0.00000403  0.20D-06  0.70D-06  6197.71
    5     2     2     1.09337089    -0.85372892  -240.06755429    -0.00006128    -0.00000408  0.20D-06  0.71D-06  6197.71
    5     3     3     1.09337017    -0.85372888  -240.06755425    -0.00006147    -0.00000412  0.20D-06  0.71D-06  6197.71
    5     4     4     1.09336789    -0.85372850  -240.06755387    -0.00006365    -0.00000432  0.21D-06  0.75D-06  6197.71
    5     5     5     1.09336770    -0.85372849  -240.06755386    -0.00006365    -0.00000431  0.21D-06  0.75D-06  6197.71
    5     6     6     1.09159366    -0.84879445  -240.03944535    -0.00006749    -0.00000470  0.23D-06  0.76D-06  6197.71
    5     7     7     1.09159241    -0.84879444  -240.03944534    -0.00006806    -0.00000473  0.23D-06  0.76D-06  6197.71
    5     8     8     1.09159052    -0.84879393  -240.03944484    -0.00007191    -0.00000508  0.25D-06  0.81D-06  6197.71
    5     9     9     1.08698440    -0.82841756  -239.87196777    -0.00002087    -0.00000164  0.69D-07  0.33D-06  6197.71
    5    10    10     1.08745984    -0.83036442  -239.86113086    -0.00003336    -0.00000320  0.18D-06  0.59D-06  6197.71
    5    11    11     1.08746001    -0.83036437  -239.86113081    -0.00003333    -0.00000321  0.18D-06  0.60D-06  6197.71
    5    12    12     1.08745866    -0.83036434  -239.86113078    -0.00003368    -0.00000330  0.19D-06  0.61D-06  6197.71
    5    13    13     1.08745907    -0.83036416  -239.86113060    -0.00003388    -0.00000321  0.18D-06  0.59D-06  6197.71
    5    14    14     1.08745933    -0.83036412  -239.86113056    -0.00003407    -0.00000328  0.19D-06  0.61D-06  6197.71
    5    15    15     1.08764012    -0.83078419  -239.85585137    -0.00003934    -0.00000369  0.22D-06  0.67D-06  6197.71
    5    16    16     1.08764009    -0.83078395  -239.85585112    -0.00003939    -0.00000369  0.22D-06  0.67D-06  6197.71
    5    17    17     1.08763890    -0.83078391  -239.85585109    -0.00004018    -0.00000382  0.23D-06  0.69D-06  6197.71
    6     1     1     1.09342026    -0.85373415  -240.06755952    -0.00000511    -0.00000040  0.39D-07  0.55D-07  7690.35
    6     2     2     1.09341974    -0.85373411  -240.06755948    -0.00000518    -0.00000041  0.40D-07  0.57D-07  7690.35
    6     3     3     1.09342024    -0.85373410  -240.06755947    -0.00000522    -0.00000041  0.39D-07  0.56D-07  7690.35
    6     4     4     1.09341886    -0.85373400  -240.06755937    -0.00000550    -0.00000043  0.42D-07  0.59D-07  7690.35
    6     5     5     1.09341881    -0.85373398  -240.06755935    -0.00000549    -0.00000043  0.42D-07  0.59D-07  7690.35
    6     6     6     1.09164807    -0.84880038  -240.03945128    -0.00000593    -0.00000040  0.35D-07  0.56D-07  7690.35
    6     7     7     1.09164855    -0.84880036  -240.03945126    -0.00000592    -0.00000040  0.35D-07  0.55D-07  7690.35
    6     8     8     1.09164672    -0.84880032  -240.03945122    -0.00000639    -0.00000044  0.37D-07  0.61D-07  7690.35
    6     9     9     1.08700005    -0.82841993  -239.87197014    -0.00000237    -0.00000022  0.22D-07  0.31D-07  7690.35
    6    10    10     1.08749222    -0.83036907  -239.86113551    -0.00000466    -0.00000042  0.38D-07  0.56D-07  7690.35
    6    11    11     1.08749211    -0.83036900  -239.86113544    -0.00000463    -0.00000041  0.38D-07  0.56D-07  7690.35
    6    12    12     1.08749251    -0.83036898  -239.86113542    -0.00000464    -0.00000039  0.36D-07  0.53D-07  7690.35
    6    13    13     1.08749217    -0.83036877  -239.86113521    -0.00000460    -0.00000040  0.37D-07  0.54D-07  7690.35
    6    14    14     1.08749214    -0.83036874  -239.86113518    -0.00000461    -0.00000040  0.36D-07  0.54D-07  7690.35
    6    15    15     1.08767448    -0.83078930  -239.85585648    -0.00000510    -0.00000044  0.40D-07  0.64D-07  7690.35
    6    16    16     1.08767414    -0.83078922  -239.85585640    -0.00000527    -0.00000047  0.42D-07  0.67D-07  7690.35
    6    17    17     1.08767431    -0.83078906  -239.85585624    -0.00000516    -0.00000044  0.40D-07  0.64D-07  7690.35
    7     1     1     1.09344646    -0.85373461  -240.06755998    -0.00000046    -0.00000004  0.33D-08  0.60D-08  9180.72
    7     2     2     1.09344636    -0.85373458  -240.06755995    -0.00000047    -0.00000004  0.35D-08  0.62D-08  9180.72
    7     3     3     1.09344648    -0.85373457  -240.06755994    -0.00000047    -0.00000004  0.35D-08  0.61D-08  9180.72
    7     4     4     1.09344636    -0.85373449  -240.06755986    -0.00000049    -0.00000004  0.38D-08  0.65D-08  9180.72
    7     5     5     1.09344629    -0.85373447  -240.06755984    -0.00000050    -0.00000004  0.38D-08  0.66D-08  9180.72
    7     6     6     1.09167432    -0.84880084  -240.03945174    -0.00000046    -0.00000004  0.41D-08  0.63D-08  9180.72
    7     7     7     1.09167381    -0.84880083  -240.03945173    -0.00000047    -0.00000005  0.46D-08  0.70D-08  9180.72
    7     8     8     1.09167437    -0.84880082  -240.03945172    -0.00000050    -0.00000004  0.41D-08  0.63D-08  9180.72
    7     9     9     1.08700968    -0.82842020  -239.87197042    -0.00000027    -0.00000002  0.19D-08  0.38D-08  9180.72
    7    10    10     1.08750685    -0.83036957  -239.86113601    -0.00000049    -0.00000005  0.40D-08  0.78D-08  9180.72
    7    11    11     1.08750671    -0.83036949  -239.86113593    -0.00000049    -0.00000005  0.39D-08  0.78D-08  9180.72
    7    12    12     1.08750669    -0.83036945  -239.86113589    -0.00000047    -0.00000005  0.37D-08  0.74D-08  9180.72
    7    13    13     1.08750650    -0.83036924  -239.86113568    -0.00000047    -0.00000005  0.37D-08  0.74D-08  9180.72
    7    14    14     1.08750652    -0.83036921  -239.86113565    -0.00000047    -0.00000005  0.37D-08  0.74D-08  9180.72
    7    15    15     1.08769209    -0.83078983  -239.85585701    -0.00000053    -0.00000006  0.45D-08  0.93D-08  9180.72
    7    16    16     1.08769210    -0.83078978  -239.85585696    -0.00000056    -0.00000006  0.49D-08  0.99D-08  9180.72
    7    17    17     1.08769186    -0.83078960  -239.85585678    -0.00000053    -0.00000006  0.45D-08  0.93D-08  9180.72
    8     1     1     1.09344645    -0.85373461  -240.06755998    -0.00000000    -0.00000004  0.33D-08  0.60D-08 10342.70
    8     2     2     1.09344635    -0.85373458  -240.06755995    -0.00000000    -0.00000004  0.35D-08  0.62D-08 10342.70
    8     3     3     1.09344646    -0.85373457  -240.06755994    -0.00000000    -0.00000004  0.35D-08  0.61D-08 10342.70
    8     4     4     1.09344712    -0.85373454  -240.06755991    -0.00000005    -0.00000001  0.36D-09  0.86D-09 10342.70
    8     5     5     1.09344706    -0.85373452  -240.06755989    -0.00000005    -0.00000001  0.37D-09  0.87D-09 10342.70
    8     6     6     1.09167763    -0.84880089  -240.03945179    -0.00000005    -0.00000001  0.28D-09  0.87D-09 10342.70
    8     7     7     1.09167736    -0.84880088  -240.03945178    -0.00000005    -0.00000001  0.32D-09  0.99D-09 10342.70
    8     8     8     1.09167762    -0.84880087  -240.03945177    -0.00000005    -0.00000001  0.28D-09  0.86D-09 10342.70
    8     9     9     1.08700968    -0.82842020  -239.87197042    -0.00000000    -0.00000002  0.19D-08  0.38D-08 10342.70
    8    10    10     1.08750526    -0.83036963  -239.86113607    -0.00000006    -0.00000001  0.43D-09  0.14D-08 10342.70
    8    11    11     1.08750541    -0.83036955  -239.86113599    -0.00000006    -0.00000001  0.38D-09  0.11D-08 10342.70
    8    12    12     1.08750525    -0.83036950  -239.86113595    -0.00000006    -0.00000001  0.40D-09  0.13D-08 10342.70
    8    13    13     1.08750556    -0.83036930  -239.86113574    -0.00000006    -0.00000000  0.30D-09  0.79D-09 10342.70
    8    14    14     1.08750503    -0.83036926  -239.86113570    -0.00000006    -0.00000001  0.40D-09  0.13D-08 10342.70
    8    15    15     1.08769217    -0.83078991  -239.85585709    -0.00000008    -0.00000000  0.32D-09  0.80D-09 10342.70
    8    16    16     1.08769206    -0.83078987  -239.85585704    -0.00000008    -0.00000001  0.36D-09  0.88D-09 10342.70
    8    17    17     1.08769184    -0.83078967  -239.85585685    -0.00000008    -0.00000000  0.32D-09  0.79D-09 10342.70


 =====================================
 Analysis of CPU times by interactions
 =====================================

       I      S      P

 I   0.5%
 S   0.5%   4.2%
 P   0.3%  34.0%  42.1%

 Initialization:   2.3%
 Other:           16.2%

 Total CPU:    10342.7 seconds
 =====================================



 Wavefunction saved on  5102.2

 Reference coefficients greater than 0.0500000
 =============================================
 2222222222/\/000           0.8686537  -0.0045240   0.0027847  -0.3935598  -0.0027318   0.0000000  -0.0000000   0.0000000
                           -0.0000005  -0.0006674   0.0349958  -0.0000222   0.0258373   0.0002651  -0.0000000   0.0000000
                           -0.0000000
 2222222222//\000           0.3934554  -0.0011754   0.0170372   0.8684764   0.0115562   0.0000000  -0.0000000   0.0000001
                            0.0000001   0.0004665  -0.0258337  -0.0001229   0.0350022   0.0000804   0.0000000   0.0000000
                            0.0000000
 2222222222/0/0\0          -0.0236687   0.0001419   0.0002602   0.0330212   0.0003470   0.0000000  -0.0000000   0.0000000
                           -0.5507730  -0.0142900   0.7613571   0.0007434   0.0858640   0.0033369  -0.0000001   0.0000000
                           -0.0000002
 22222222220//00\          -0.0404309   0.0001920  -0.0004657  -0.0039794  -0.0001454   0.0000000  -0.0000000   0.0000000
                            0.5507667  -0.0060729   0.3063210  -0.0014215   0.7024005   0.0047525  -0.0000001   0.0000002
                           -0.0000001
 222222222202/000           0.0032004   0.6743150   0.0056721  -0.0006459  -0.0001980   0.6617836   0.0803365   0.0103145
                           -0.0000000  -0.0000837   0.0000376  -0.0307637  -0.0000790  -0.0000585   0.0462286  -0.0000992
                            0.0000691
 222222222220/000          -0.0032004  -0.6743129  -0.0056720   0.0006459   0.0001980   0.6617858   0.0803368   0.0103145
                            0.0000000   0.0000837  -0.0000376   0.0307622   0.0000790   0.0000585   0.0462294  -0.0000992
                            0.0000691
 2222222222/02000          -0.0016268   0.0001858   0.0014258  -0.0082630   0.6742913  -0.0799512   0.6615226  -0.0226937
                           -0.0000000  -0.0307574  -0.0005759   0.0000830  -0.0000149   0.0000504  -0.0000987  -0.0462283
                           -0.0003031
 2222222222/20000           0.0016268  -0.0001857  -0.0014258   0.0082630  -0.6742913  -0.0799511   0.6615227  -0.0226937
                           -0.0000000   0.0307584   0.0005759  -0.0000829   0.0000150  -0.0000504  -0.0000987  -0.0462278
                           -0.0003031
 22222222220/2000          -0.0067888  -0.0056491   0.6742108  -0.0101375  -0.0015647  -0.0129686   0.0212887   0.6662557
                            0.0000000  -0.0000525   0.0001161   0.0000584   0.0001572  -0.0307635  -0.0000697  -0.0003030
                            0.0462272
 22222222222/0000           0.0067886   0.0056491  -0.6742089   0.0101374   0.0015647  -0.0129686   0.0212888   0.6662577
                            0.0000000   0.0000525  -0.0001160  -0.0000584  -0.0001572   0.0307616  -0.0000697  -0.0003030
                            0.0462285
 22222222220//0\0          -0.0001670  -0.0351847  -0.0002960   0.0000337   0.0000103  -0.0535144  -0.0064963  -0.0008341
                            0.0000000  -0.0018062   0.0008119  -0.6636617  -0.0017042  -0.0012622   0.6617383  -0.0014202
                            0.0009890
 22222222220//\00          -0.0003542  -0.0002948   0.0351792  -0.0005290  -0.0000816  -0.0010487   0.0017215   0.0538757
                           -0.0000001   0.0011327  -0.0025040  -0.0012597  -0.0033912   0.6636570   0.0009982   0.0043369
                           -0.6617213
 2222222222/0/00\           0.0001670   0.0351846   0.0002960  -0.0000337  -0.0000103  -0.0535142  -0.0064963  -0.0008341
                           -0.0000000   0.0018063  -0.0008118   0.6636454   0.0017043   0.0012622   0.6617550  -0.0014196
                            0.0009889
 2222222222//000\          -0.0003542  -0.0002948   0.0351792  -0.0005290  -0.0000816   0.0010487  -0.0017215  -0.0538757
[...]
   33    0.00000000    0.00000000    0.00000000    0.00000000    0.00000000    0.00000000    0.00000000    0.00000000
   34    0.00000000    0.00000000    0.00000000    0.00000000    0.00000000    0.00000000    0.00000000    0.00000000
   35    0.00000000    0.00000000    0.00000000    0.00000000    0.00000000    0.00000000    0.00000000    0.00000000
   36    0.00000000    0.00000000    0.00000000    0.00000000    0.00000000    0.00000000    0.00000000    0.00000000
   37    0.00000000    0.00000000    0.00000000    0.00000000    0.00000000    0.00000000    0.00000000    0.00000000
   38    0.00000000    0.00000000    0.00000000    0.00000000    0.00000000    0.00000000    0.00000000    0.00000000
              9            10            11            12            13            14            15            16
    1    0.00000000    0.00000000    0.00000000    0.00000000    0.00000000    0.00000000    0.00000000    0.00000000
    2    0.00000000    0.00000000    0.00000000    0.00000000    0.00000000    0.00000000    0.00000000    0.00000000
    3    0.00000000    0.00000000    0.00000000    0.00000000    0.00000000    0.00000000    0.00000000    0.00000000
    4    0.00000000    0.00000000    0.00000000    0.00000000    0.00000000    0.00000000    0.00000000    0.00000000
    5    0.00000000    0.00000000    0.00000000    0.00000000    0.00000000    0.00000000    0.00000000    0.00000000
    6    0.00000000    0.00000000    0.00000000    0.00000000    0.00000000    0.00000000    0.00000000    0.00000000
    7    0.00000000    0.00000000    0.00000000    0.00000000    0.00000000    0.00000000    0.00000000    0.00000000
    8    0.00000000    0.00000000    0.00000000    0.00000000    0.00000000    0.00000000    0.00000000    0.00000000
    9    0.00000000    0.00000000    0.00000000    0.00000000    0.00000000    0.00000000    0.00000000    0.00000000
   10    0.00000000    0.00000000    0.00000000    0.00000000    0.00000000    0.00000000    0.00000000    0.00000000
   11    0.00000000    0.00000000    0.00000000    0.00000000    0.00000000    0.00000000    0.00000000    0.00000000
   12    0.00000000    0.00000000    0.00000000    0.00000000    0.00000000    0.00000000    0.00000000    0.00000000
   13    0.00000000    0.00000000    0.00000000    0.00000000    0.00000000    0.00000000    0.00000000    0.00000000
   14    0.00000000    0.00000000    0.00000000    0.00000000    0.00000000    0.00000000    0.00000000    0.00000000
   15    0.00000000    0.00000000    0.00000000    0.00000000    0.00000000    0.00000000    0.00000000    0.00000000
   16    0.00000000    0.00000000    0.00000000    0.00000000    0.00000000    0.00000000    0.00000000    0.00000000
   17    0.00000000    0.00000000    0.00000000    0.00000000    0.00000000    0.00000000    0.00000000    0.00000000
   18    0.00000000    0.00000000    0.00000000    0.00000000    0.00000000    0.00000000    0.00000000    0.00000000
   19    0.00000000    0.00000000    0.00000000    0.00000000    0.00000000    0.00000000    0.00000000    0.00000000
   20    0.00000000    0.00000000    0.00000000    0.00000000    0.00000000    0.00000000    0.00000000    0.00000000
   21    0.00000000    0.00000000    0.00000000    0.00000000    0.00000000    0.00000000    0.00000000    0.00000000
   22    0.00000000    0.00000000    0.00000000    0.00000000    0.00000000    0.00000000    0.00000000    0.00000000
   23    0.00000000    0.00000000    0.00000000    0.00000000    0.00000000    0.00000000    0.00000000    0.00000000
   24    0.00000000    0.00000000    0.00000000    0.00000000    0.00000000    0.00000000    0.00000000    0.00000000
   25    0.00000000    0.00000000    0.00000000    0.00000000    0.00000000    0.00000000    0.00000000    0.00000000
   26    0.00000000    0.00000000    0.00000000    0.00000000    0.00000000    0.00000000    0.00000000    0.00000000
   27    0.00000000    0.00000000    0.00000000    0.00000000    0.00000000    0.00000000    0.00000000    0.00000000
   28    0.00000000    0.00000000    0.00000000    0.00000000    0.00000000    0.00000000    0.00000000    0.00000000
   29    0.00000000    0.00000000    0.00000000    0.00000000    0.00000000    0.00000000    0.00000000    0.00000000
   30    0.00000000    0.00000000    0.00000000    0.00000000    0.00000000    0.00000000    0.00000000    0.00000000
   31    0.00000000    0.00000000    0.00000000    0.00000000    0.00000000    0.00000000    0.00000000    0.00000000
   32    0.00000000    0.00000000    0.00000000    0.00000000    0.00000000    0.00000000    0.00000000    0.00000000
   33    0.00000000    0.00000000    0.00000000    0.00000000    0.00000000    0.00000000    0.00000000    0.00000000
   34    0.00000000    0.00000000    0.00000000    0.00000000    0.00000000    0.00000000    0.00000000    0.00000000
   35    0.00000000    0.00000000    0.00000000    0.00000000    0.00000000    0.00000000    0.00000000    0.00000000
   36    0.00000000    0.00000000    0.00000000    0.00000000    0.00000000    0.00000000    0.00000000    0.00000000
   37    0.00000000    0.00000000    0.00000000    0.00000000    0.00000000    0.00000000    0.00000000    0.00000000
   38    0.00000000    0.00000000    0.00000000    0.00000000    0.00000000    0.00000000    0.00000000    0.00000000
             17            18            19            20            21            22            23            24
    1    0.00000000    0.00000000    0.00000000    0.00000000    0.00000000    0.00000000    0.00000000    0.00000000
    2    0.00000000    0.00000000    0.00000000    0.00000000    0.00000000    0.00000000    0.00000000    0.00000000
    3    0.00000000    0.00000000    0.00000000    0.00000000    0.00000000    0.00000000    0.00000000    0.00000000
    4    0.00000000    0.00000000    0.00000000    0.00000000    0.00000000    0.00000000    0.00000000    0.00000000
    5    0.00000000    0.00000000    0.00000000    0.00000000    0.00000000    0.00000000    0.00000000    0.00000000
    6    0.00000000    0.00000000    0.00000000    0.00000000    0.00000000    0.00000000    0.00000000    0.00000000
    7    0.00000000    0.00000000    0.00000000    0.00000000    0.00000000    0.00000000    0.00000000    0.00000000
    8    0.00000000    0.00000000    0.00000000    0.00000000    0.00000000    0.00000000    0.00000000    0.00000000
    9    0.00000000    0.00000000    0.00000000    0.00000000    0.00000000    0.00000000    0.00000000    0.00000000
   10    0.00000000    0.00000000    0.00000000    0.00000000    0.00000000    0.00000000    0.00000000    0.00000000
   11    0.00000000    0.00000000    0.00000000    0.00000000    0.00000000    0.00000000    0.00000000    0.00000000
   12    0.00000000    0.00000000    0.00000000    0.00000000    0.00000000    0.00000000    0.00000000    0.00000000
   13    0.00000000    0.00000000    0.00000000    0.00000000    0.00000000    0.00000000    0.00000000    0.00000000
   14    0.00000000    0.00000000    0.00000000    0.00000000    0.00000000    0.00000000    0.00000000    0.00000000
   15    0.00000000    0.00000000    0.00000000    0.00000000    0.00000000    0.00000000    0.00000000    0.00000000
   16    0.00000000    0.00000000    0.00000000    0.00000000    0.00000000    0.00000000    0.00000000    0.00000000
   17    0.00000000    0.00000000    0.00000000    0.00000000    0.00000000    0.00000000    0.00000000    0.00000000
   18    0.00000000    0.00000000    0.00000000    0.00000000    0.00000000    0.00000000    0.00000000    0.00000000
   19    0.00000000    0.00000000    0.00000000    0.00000000    0.00000000    0.00000000    0.00000000    0.00000000
   20    0.00000000    0.00000000    0.00000000    0.00000000    0.00000000    0.00000000    0.00000000    0.00000000
   21    0.00000000    0.00000000    0.00000000    0.00000000    0.00000000    0.00000000    0.00000000    0.00000000
   22    0.00000000    0.00000000    0.00000000    0.00000000    0.00000000    0.00000000    0.00000000    0.00000000
   23    0.00000000    0.00000000    0.00000000    0.00000000    0.00000000    0.00000000    0.00000000    0.00000000
   24    0.00000000    0.00000000    0.00000000    0.00000000    0.00000000    0.00000000    0.00000000    0.00000000
   25    0.00000000    0.00000000    0.00000000    0.00000000    0.00000000    0.00000000    0.00000000    0.00000000
   26    0.00000000    0.00000000    0.00000000    0.00000000    0.00000000    0.00000000    0.00000000    0.00000000
   27    0.00000000    0.00000000    0.00000000    0.00000000    0.00000000    0.00000000    0.00000000    0.00000000
   28    0.00000000    0.00000000    0.00000000    0.00000000    0.00000000    0.00000000    0.00000000    0.00000000
   29    0.00000000    0.00000000    0.00000000    0.00000000    0.00000000    0.00000000    0.00000000    0.00000000
   30    0.00000000    0.00000000    0.00000000    0.00000000    0.00000000    0.00000000    0.00000000    0.00000000
   31    0.00000000    0.00000000    0.00000000    0.00000000    0.00000000    0.00000000    0.00000000    0.00000000
   32    0.00000000    0.00000000    0.00000000    0.00000000    0.00000000    0.00000000    0.00000000    0.00000000
   33    0.00000000    0.00000000    0.00000000    0.00000000    0.00000000    0.00000000    0.00000000    0.00000000
   34    0.00000000    0.00000000    0.00000000    0.00000000    0.00000000    0.00000000    0.00000000    0.00000000
   35    0.00000000    0.00000000    0.00000000    0.00000000    0.00000000    0.00000000    0.00000000    0.00000000
   36    0.00000000    0.00000000    0.00000000    0.00000000    0.00000000    0.00000000    0.00000000    0.00000000
   37    0.00000000    0.00000000    0.00000000    0.00000000    0.00000000    0.00000000    0.00000000    0.00000000
   38    0.00000000    0.00000000    0.00000000    0.00000000    0.00000000    0.00000000    0.00000000    0.00000000
             25            26            27            28            29            30            31            32
    1    0.00000000    0.00000000    0.00000000    0.00000000    0.00000000    0.00000000    0.00000000    0.00000000
    2    0.00000000    0.00000000    0.00000000    0.00000000    0.00000000    0.00000000    0.00000000    0.00000000
    3    0.00000000    0.00000000    0.00000000    0.00000000    0.00000000    0.00000000    0.00000000    0.00000000
    4    0.00000000    0.00000000    0.00000000    0.00000000    0.00000000    0.00000000    0.00000000    0.00000000
    5    0.00000000    0.00000000    0.00000000    0.00000000    0.00000000    0.00000000    0.00000000    0.00000000
    6    0.00000000    0.00000000    0.00000000    0.00000000    0.00000000    0.00000000    0.00000000    0.00000000
    7    0.00000000    0.00000000    0.00000000    0.00000000    0.00000000    0.00000000    0.00000000    0.00000000
    8    0.00000000    0.00000000    0.00000000    0.00000000    0.00000000    0.00000000    0.00000000    0.00000000
    9    0.00000000    0.00000000    0.00000000    0.00000000    0.00000000    0.00000000    0.00000000    0.00000000
   10    0.00000000    0.00000000    0.00000000    0.00000000    0.00000000    0.00000000    0.00000000    0.00000000
   11    0.00000000    0.00000000    0.00000000    0.00000000    0.00000000    0.00000000    0.00000000    0.00000000
   12    0.00000000    0.00000000    0.00000000    0.00000000    0.00000000    0.00000000    0.00000000    0.00000000
   13    0.00000000    0.00000000    0.00000000    0.00000000    0.00000000    0.00000000    0.00000000    0.00000000
   14    0.00000000    0.00000000    0.00000000    0.00000000    0.00000000    0.00000000    0.00000000    0.00000000
   15    0.00000000    0.00000000    0.00000000    0.00000000    0.00000000    0.00000000    0.00000000    0.00000000
   16    0.00000000    0.00000000    0.00000000    0.00000000    0.00000000    0.00000000    0.00000000    0.00000000
   17    0.00000000    0.00000000    0.00000000    0.00000000    0.00000000    0.00000000    0.00000000    0.00000000
   18    0.00000000    0.00000000    0.00000000    0.00000000    0.00000000    0.00000000    0.00000000    0.00000000
   19    0.00000000    0.00000000    0.00000000    0.00000000    0.00000000    0.00000000    0.00000000    0.00000000
   20    0.00000000    0.00000000    0.00000000    0.00000000    0.00000000    0.00000000    0.00000000    0.00000000
   21    0.00000000    0.00000000    0.00000000    0.00000000    0.00000000    0.00000000    0.00000000    0.00000000
   22    0.00000000    0.00000000    0.00000000    0.00000000    0.00000000    0.00000000    0.00000000    0.00000000
   23    0.00000000    0.00000000    0.00000000    0.00000000    0.00000000    0.00000000    0.00000000    0.00000000
   24    0.00000000    0.00000000    0.00000000    0.00000000    0.00000000    0.00000000    0.00000000    0.00000000
   25    0.00000000    0.00000000    0.00000000    0.00000000    0.00000000    0.00000000    0.00000000    0.00000000
   26    0.00000000    0.00000000    0.00000000    0.00000000    0.00000000    0.00000000    0.00000000    0.00000000
   27    0.00000000    0.00000000    0.00000000    0.00000000    0.00000000    0.00000000    0.00000000    0.00000000
   28    0.00000000    0.00000000    0.00000000    0.00000000    0.00000000    0.00000000    0.00000000    0.00000000
   29    0.00000000    0.00000000    0.00000000    0.00000000    0.00000000    0.00000000    0.00000000    0.00000000
   30    0.00000000    0.00000000    0.00000000    0.00000000    0.00000000    0.00000000    0.00000000    0.00000000
   31    0.00000000    0.00000000    0.00000000    0.00000000    0.00000000    0.00000000    0.00000000    0.00000000
   32    0.00000000    0.00000000    0.00000000    0.00000000    0.00000000    0.00000000    0.00000000    0.00000000
   33    0.00000000    0.00000000    0.00000000    0.00000000    0.00000000    0.00000000    0.00000000    0.00000000
   34    0.00000000    0.00000000    0.00000000    0.00000000    0.00000000    0.00000000    0.00000000    0.00000000
   35    0.00000000    0.00000000    0.00000000    0.00000000    0.00000000    0.00000000    0.00000000    0.00000000
   36    0.00000000    0.00000000    0.00000000    0.00000000    0.00000000    0.00000000    0.00000000    0.00000000
   37    0.00000000    0.00000000    0.00000000    0.00000000    0.00000000    0.00000000    0.00000000    0.00000000
   38    0.00000000    0.00000000    0.00000000    0.00000000    0.00000000    0.00000000    0.00000000    0.00000000
             33            34            35            36            37            38
    1    0.00000000    0.00000000    0.00000000    0.00000000    0.00000000    0.00000000
    2    0.00000000    0.00000000    0.00000000    0.00000000    0.00000000    0.00000000
    3    0.00000000    0.00000000    0.00000000    0.00000000    0.00000000    0.00000000
    4    0.00000000    0.00000000    0.00000000    0.00000000    0.00000000    0.00000000
    5    0.00000000    0.00000000    0.00000000    0.00000000    0.00000000    0.00000000
    6    0.00000000    0.00000000    0.00000000    0.00000000    0.00000000    0.00000000
    7    0.00000000    0.00000000    0.00000000    0.00000000    0.00000000    0.00000000
    8    0.00000000    0.00000000    0.00000000    0.00000000    0.00000000    0.00000000
    9    0.00000000    0.00000000    0.00000000    0.00000000    0.00000000    0.00000000
   10    0.00000000    0.00000000    0.00000000    0.00000000    0.00000000    0.00000000
   11    0.00000000    0.00000000    0.00000000    0.00000000    0.00000000    0.00000000
   12    0.00000000    0.00000000    0.00000000    0.00000000    0.00000000    0.00000000
   13    0.00000000    0.00000000    0.00000000    0.00000000    0.00000000    0.00000000
   14    0.00000000    0.00000000    0.00000000    0.00000000    0.00000000    0.00000000
   15    0.00000000    0.00000000    0.00000000    0.00000000    0.00000000    0.00000000
   16    0.00000000    0.00000000    0.00000000    0.00000000    0.00000000    0.00000000
   17    0.00000000    0.00000000    0.00000000    0.00000000    0.00000000    0.00000000
   18    0.00000000    0.00000000    0.00000000    0.00000000    0.00000000    0.00000000
   19    0.00000000    0.00000000    0.00000000    0.00000000    0.00000000    0.00000000
   20    0.00000000    0.00000000    0.00000000    0.00000000    0.00000000    0.00000000
   21    0.00000000    0.00000000    0.00000000    0.00000000    0.00000000    0.00000000
   22    0.00000000    0.00000000    0.00000000    0.00000000    0.00000000    0.00000000
   23    0.00000000    0.00000000    0.00000000    0.00000000    0.00000000    0.00000000
   24    0.00000000    0.00000000    0.00000000    0.00000000    0.00000000    0.00000000
   25    0.00000000    0.00000000    0.00000000    0.00000000    0.00000000    0.00000000
   26    0.00000000    0.00000000    0.00000000    0.00000000    0.00000000    0.00000000
   27    0.00000000    0.00000000    0.00000000    0.00000000    0.00000000    0.00000000
   28    0.00000000    0.00000000    0.00000000    0.00000000    0.00000000    0.00000000
   29    0.00000000    0.00000000    0.00000000    0.00000000    0.00000000    0.00000000
   30    0.00000000    0.00000000    0.00000000    0.00000000    0.00000000    0.00000000
   31    0.00000000    0.00000000    0.00000000    0.00000000    0.00000000    0.00000000
   32    0.00000000    0.00000000    0.00000000    0.00000000    0.00000000    0.00000000
   33    0.00000000    0.00000000    0.00000000    0.00000000    0.00000000    0.00000000
   34    0.00000000    0.00000000    0.00000000    0.00000000    0.00000000    0.00000000
   35    0.00000000    0.00000000    0.00000000    0.00000000    0.00000000    0.00000000
   36    0.00000000    0.00000000    0.00000000    0.00000000    0.00000000    0.00000000
   37    0.00000000    0.00000000    0.00000000    0.00000000    0.00000000    0.00000000
   38    0.00000000    0.00000000    0.00000000    0.00000000    0.00000000    0.00000000

 No matrix element <i|DMZ|i> larger than 5E-7
 No matrix element <i|DMZ|1> larger than 5E-7


 **********************************************************************************************************************************
 DATASETS  * FILE   NREC   LENGTH (MB)   RECORD NAMES
              1      21       57.06       500      610      700      900      950      970     1000      129      960     1100   
                                          VAR    BASINP    GEOM    SYMINP    ZMAT    AOBASIS   BASIS     P2S    ABASIS      S 
                                         1400     1410     1420     1200     1210     1080     1700     1600     1650     1380   
                                           T        V       ECP      H0       H01     AOSYM    OPER      SMH    MOLCAS    JKOP   
                                         1700(1)
                                         OPER   

              2       6     4800.88       700     1000      520     2140     5302     5102   
                                         GEOM     BASIS   MCVARS    MCSCF    MRCI     MRCI   

 PROGRAMS   *        TOTAL        CI        CI        CI     MULTI       INT
 CPU TIMES  *   1006044.18 990718.37  15236.56     77.02      8.10      3.78
 REAL TIME  *   1017143.67 SEC
 DISK USED  *         4.74 GB (local),      152.14 GB (total)
 SF USED    *        46.61 GB
 GA USED    *         0.00 MB       (max)       0.00 MB       (current)
 **********************************************************************************************************************************

 CI/USERDEF energy=   1668.763326968803

              CI              CI           MULTI
   -239.85585685   -240.11789243   -239.03076644
 **********************************************************************************************************************************
 Molpro calculation terminated with 1 warning(s)
