
 Working directory              : /wrk/irikura/molpro.Yf3VDKwcuC/
 Global scratch directory       : /wrk/irikura/molpro.Yf3VDKwcuC/
 Wavefunction directory         : /home/irikura/wfu/
 Main file repository           : /wrk/irikura/molpro.Yf3VDKwcuC/

 id        : nistki

 Nodes            nprocs
 pn125343.nist.gov   32
 GA implementation: MPI file
 GA implementation (serial work in mppx): MPI file

 Using customized tuning parameters: mindgm=1; mindgv=20; mindgc=4; mindgr=1; noblas=0; minvec=7
 default implementation of scratch files=sf  


 Variables initialized (1042), CPU time= 0.01 sec
 ***,Sb SO-CI
 memory,1500,M;
 
 gprint,orbitals,civector;
 
 symmetry,xyz
 geometry={Sb};
 
 basis=aug-cc-pwCVQZ-PP
 
 PAR=2                                                                           ! parity even (1) or odd (2)
 NQ=1
 ND=17
 
 {multi
     closed,6,3
     occ,7,9
     wf,charge=0,sym=PAR,spin=3;state,NQ; weight,25
     wf,charge=0,sym=PAR,spin=1;state,ND;
     expec2,lxx,lyy,lzz;
 }
 table, energy, ll
 title, Energies and &lt;L**2&gt; values
 
 core,0,0
 
 {ci;wf,sym=PAR,spin=3;state,NQ; save,5302.2}
 if NQ.LT.2 then
 hlsdiag(1) = energd
 else
 hlsdiag = energd4
 endif
 
 {ci;wf,sym=PAR,spin=1;state,ND; save,5102.2}
 hlsdiag(NQ+1) = energd4
 
 table,hlsdiag
 
 {ci;hlsmat,ecp,5302.2,5102.2;print,vls=0,hls=0}                                 !compute and diagonalize SO matrix
 Commands initialized (847), CPU time= 0.02 sec, 718 directives.
 Default parameters read. Elapsed time= 0.17 sec

 Checking input...
 Passed
1


                                         ***  PROGRAM SYSTEM MOLPRO  ***
                                       Copyright, TTI GmbH Stuttgart, 2015
                                    Version 2024.1 linked Mon Jun 17 07:53:25 2024


 **********************************************************************************************************************************
 LABEL *   Sb SO-CI                                                                                                                                                      
  (64 PROC) 64 bit mpp version                                                           DATE: 12-Nov-24          TIME: 10:50:00  
 **********************************************************************************************************************************

 SHA1:             0134236b472f03f1f5189f93707d8671e415b05c
 **********************************************************************************************************************************

 Memory per process:      1500 MW
 Total memory per node:  48000 MW

 GA preallocation disabled
 GA check disabled

 Variable memory set to 1500.0 MW


 ZSYMEL=XYZ

 SETTING BASIS          =    AUG-CC-PWCVQZ-PP
 SETTING PAR            =         2.00000000                                  
 SETTING NQ             =         1.00000000                                  
 SETTING ND             =        17.00000000                                  


 Recomputing integrals since basis changed


 Using spherical harmonics

 Library entry Sb   ECP ECP28MDF                 selected for group  1
 Library entry SB     S aug-cc-pwCVQZ-PP     selected for orbital group  1
 Library entry SB     P aug-cc-pwCVQZ-PP     selected for orbital group  1
 Library entry SB     D aug-cc-pwCVQZ-PP     selected for orbital group  1
 Library entry SB     F aug-cc-pwCVQZ-PP     selected for orbital group  1
 Library entry SB     G aug-cc-pwCVQZ-PP     selected for orbital group  1
 Library entry SB     H aug-cc-pwCVQZ-PP     selected for orbital group  1


 PROGRAM * SEWARD (Integral evaluation for generally contracted gaussian basis sets)     Author: Roland Lindh, 1990

 Geometry written to block  1 of record 700

 Orientation using atomic masses  
 Molecule type: Atom
 User-specified symmetry elements: XYZ
 Symmetry elements: XYZ
 Rotational constants:       0.0000000      0.0000000      0.0000000 GHz  (calculated with average atomic masses)

 Point group  Ci  



 ATOMIC COORDINATES

 NR  ATOM    CHARGE       X              Y              Z

   1  SB     23.00    0.000000000    0.000000000    0.000000000

 NUCLEAR CHARGE:                   23
 NUMBER OF PRIMITIVE AOS:         300
 NUMBER OF SYMMETRY AOS:          232
 NUMBER OF CONTRACTIONS:          169   (   86Ag  +   83Au  )
 NUMBER OF INNER CORE ORBITALS:     0   (    0Ag  +    0Au  )
 NUMBER OF OUTER CORE ORBITALS:     9   (    6Ag  +    3Au  )
 NUMBER OF VALENCE ORBITALS:        4   (    1Ag  +    3Au  )


 LX: Ag           LY: Ag           LZ: Ag 


 NUCLEAR REPULSION ENERGY    0.00000000

 EXTRA SYMMETRY OF AOS IN SYMMETRY 1:   1 1 1 1 1 1 1 1 1 1   2 3 4 5 6 2 3 4 5 6   2 3 4 5 6 2 3 4 5 6   2 3 4 5 6 2 3 4 5 6
                                        2 3 4 5 6 2 3 4 5 6   7 8 9101112131415 7   8 9101112131415 7 8   9101112131415 7 8 9
                                       101112131415
 EXTRA SYMMETRY OF AOS IN SYMMETRY 2:   1 2 3 1 2 3 1 2 3 1   2 3 1 2 3 1 2 3 1 2   3 1 2 3 1 2 3 1 2 3   4 5 6 7 8 910 4 5 6
                                        7 8 910 4 5 6 7 8 9  10 4 5 6 7 8 910 4 5   6 7 8 910 4 5 6 7 8   9101112131415161718
                                       192021


 Eigenvalues of metric

         1 0.513E-04 0.513E-04 0.513E-04 0.513E-04 0.513E-04 0.561E-04 0.928E-03 0.507E-02
         2 0.152E-03 0.152E-03 0.152E-03 0.216E-02 0.216E-02 0.216E-02 0.113E-01 0.113E-01


 Contracted 2-electron integrals neglected if value below      1.0D-11
 AO integral compression algorithm  1   Integral accuracy      1.0D-11

     100.925 MB (compressed) written to integral file ( 13.6%)

     Node minimum: 0.786 MB, node maximum: 5.243 MB


 NUMBER OF SORTED TWO-ELECTRON INTEGRALS:    1617588.     BUFFER LENGTH:  32768
 NUMBER OF SEGMENTS:   1  SEGMENT LENGTH:    1617588      RECORD LENGTH: 524288

 Memory used in sort:       2.17 MW

 SORT1 READ    92659037. AND WROTE      294632. INTEGRALS IN      1 RECORDS. CPU TIME:     0.63 SEC, REAL TIME:     0.66 SEC
 SORT2 READ     9613363. AND WROTE    52200630. INTEGRALS IN    256 RECORDS. CPU TIME:     0.03 SEC, REAL TIME:     0.04 SEC

 Node minimum:     1617364.  Node maximum:     1635365. integrals

 OPERATOR DM      FOR CENTER  0  COORDINATES:    0.000000    0.000000    0.000000


 **********************************************************************************************************************************
 DATASETS  * FILE   NREC   LENGTH (MB)   RECORD NAMES
              1      19       29.37       500      610      700      900      950      970     1000      129      960     1100   
                                          VAR    BASINP    GEOM    SYMINP    ZMAT    AOBASIS   BASIS     P2S    ABASIS      S 
                                         1400     1410     1420     1200     1210     1080     1700     1600     1650   
                                           T        V       ECP      H0       H01     AOSYM    OPER      SMH    MOLCAS    

 PROGRAMS   *        TOTAL       INT
 CPU TIMES  *         3.41      3.09
 REAL TIME  *         4.76 SEC
 DISK USED  *        29.74 MB (local),        1.11 GB (total)
 GA USED    *         0.00 MB       (max)       0.00 MB       (current)
 **********************************************************************************************************************************

 PROGRAM * MULTI (Direct Multiconfiguration SCF)       Authors: P.J. Knowles, H.-J. Werner (1984)
                                                                D.A. Kreplin, P.J. Knowles, H.-J. Werner (2019)

 Number of closed-shell orbitals:   9 (    6    3)
 Number of active  orbitals:        7 (    1    6)
 Number of external orbitals:     153 (   79   74)

 State symmetry 1

 Number of active electrons:   5    Spin symmetry=Quartet   Space symmetry=2
 Number of states:             1
 Number of CSFs:             104   (110 determinants, 245 intermediate states)

 State symmetry 2

 Number of active electrons:   5    Spin symmetry=Doublet   Space symmetry=2
 Number of states:            17
 Number of CSFs:             280   (390 determinants, 735 intermediate states)

 Orbital guess generated from atomic densities.
 *** IN SYMMETRY 1 ORBITAL  2 SYMMETRY CONTAMINATION OF 0.272D-03 HAS BEEN REMOVED
 *** IN SYMMETRY 1 ORBITAL  3 SYMMETRY CONTAMINATION OF 0.542D-03 HAS BEEN REMOVED
 *** IN SYMMETRY 1 ORBITAL  4 SYMMETRY CONTAMINATION OF 0.119D-02 HAS BEEN REMOVED
 *** IN SYMMETRY 1 ORBITAL  5 SYMMETRY CONTAMINATION OF 0.377D-02 HAS BEEN REMOVED
 *** IN SYMMETRY 1 ORBITAL  6 SYMMETRY CONTAMINATION OF 0.318D-02 HAS BEEN REMOVED

 EXTRA SYMMETRY OF MOS IN SYMMETRY 1:   1 2 3 5 4 6 1 1 2 4   6 5 3 1 3 5 6 4 2 6   4 3 5 21415 7 91113  1012 8 1 6 4 2 3 514
                                       15 7 91112 81310 114  15 7 911131012 8 6 4   2 5 3 1 2 5 3 4 6 7  1514131012 8 911 1 5
                                        3 2 4 6 1 1
 *** IN SYMMETRY 2 ORBITAL  2 SYMMETRY CONTAMINATION OF 0.382D-03 HAS BEEN REMOVED
 *** IN SYMMETRY 2 ORBITAL  3 SYMMETRY CONTAMINATION OF 0.382D-03 HAS BEEN REMOVED
 *** IN SYMMETRY 2 ORBITAL  4 SYMMETRY CONTAMINATION OF 0.593D-04 HAS BEEN REMOVED
 *** IN SYMMETRY 2 ORBITAL  6 SYMMETRY CONTAMINATION OF 0.593D-04 HAS BEEN REMOVED
 *** IN SYMMETRY 2 ORBITAL  8 SYMMETRY CONTAMINATION OF 0.642D-04 HAS BEEN REMOVED
 *** IN SYMMETRY 2 ORBITAL  9 SYMMETRY CONTAMINATION OF 0.661D-04 HAS BEEN REMOVED
 EXTRA SYMMETRY OF MOS IN SYMMETRY 2:   1 2 3 3 1 2 1 2 3 2   1 310 8 6 7 9 5 4 1   2 3 810 6 4 5 7 9 8  10 5 4 6 7 9 2 1 3 8
                                       10 9 7 4 5 6 2 1 319  16141211132118201517  10 8 6 9 7 4 5 1 2 3  10 8 7 9 6 5 4 2 1 3
                                        2 1 3

 Wavefunction dump at record             2140.2

 Convergence thresholds  0.10E-04 (gradient)  0.10E-05 (energy)

 Weight factors for state symmetry  1:    0.59524
 Weight factors for state symmetry  2:    0.02381   0.02381   0.02381   0.02381   0.02381   0.02381   0.02381   0.02381
                                          0.02381   0.02381   0.02381   0.02381   0.02381   0.02381   0.02381   0.02381
                                          0.02381
 
 Number of orbital rotations:  1243  ( 24 closed/active, 696 closed/virtual, 0 active/active, 523 active/virtual )
 Total number of variables:    7983
 
 Second-order MCSCF: L-BFGS accelerated
 
 ITER  MIC  NCI  NEG     ENERGY(VAR)    ENERGY(PROJ) ENERGY CHANGE       GRAD(0)  GRAD(ORB)   GRAD(CI)      STEP      TIME
   1   10   16    0   -239.19657386    -239.20992653   -0.01335267    0.09090556 0.00042504 0.00000000  0.52E+00      1.94
   2    7   12    0   -239.20819914    -239.20921639   -0.00101725    0.08224143 0.00004180 0.00000000  0.57E-01      3.64
   3    4    8    0   -239.20922045    -239.20922050   -0.00000005    0.00039404 0.00000151 0.00000000  0.11E-02      4.86
   4    2    4    0   -239.20922050    -239.20922050    0.00000000    0.00000006 0.00000001 0.00000000  0.11E-06      5.64

 CONVERGENCE REACHED!  Final gradient:    0.00000000 ( 0.50E-08)
                       Final energy:   -239.20922050
 
 Results for state 1.2 Quartet
 =============================
 !MCSCF STATE 1.2 Quartet Energy              -239.276580835036
 Nuclear energy                                  0.00000000
 Kinetic energy                                 92.40082553
 One electron energy                          -419.82540334
 Two electron energy                           180.54882251
 Virial ratio                                    3.58955025
 
 !MCSCF STATE 1.2 Quartet Dipole moment          0.00000000     0.00000000     0.00000000
 Dipole moment /Debye                            0.00000000     0.00000000     0.00000000
 
 Results for state 1.2 Doublet
 =============================
 !MCSCF STATE 1.2 Doublet Energy              -239.217169080474
 Nuclear energy                                  0.00000000
 Kinetic energy                                 92.35244213
 One electron energy                          -419.58380347
 Two electron energy                           180.36663439
 Virial ratio                                    3.59026360
 
 !MCSCF STATE 1.2 Doublet Dipole moment          0.00000000     0.00000000     0.00000000
 Dipole moment /Debye                            0.00000000     0.00000000     0.00000000
 
 Results for state 2.2 Doublet
 =============================
 !MCSCF STATE 2.2 Doublet Energy              -239.217169080455
 Nuclear energy                                  0.00000000
 Kinetic energy                                 92.35244213
 One electron energy                          -419.58380347
 Two electron energy                           180.36663439
 Virial ratio                                    3.59026360
 
 !MCSCF STATE 2.2 Doublet Dipole moment          0.00000000     0.00000000     0.00000000
 Dipole moment /Debye                            0.00000000     0.00000000     0.00000000
 
 Results for state 3.2 Doublet
 =============================
 !MCSCF STATE 3.2 Doublet Energy              -239.217169080366
 Nuclear energy                                  0.00000000
 Kinetic energy                                 92.35244213
 One electron energy                          -419.58380347
 Two electron energy                           180.36663439
 Virial ratio                                    3.59026360
 
 !MCSCF STATE 3.2 Doublet Dipole moment          0.00000000     0.00000000     0.00000000
 Dipole moment /Debye                            0.00000000     0.00000000     0.00000000
 
 Results for state 4.2 Doublet
 =============================
 !MCSCF STATE 4.2 Doublet Energy              -239.217169080318
 Nuclear energy                                  0.00000000
 Kinetic energy                                 92.35244213
 One electron energy                          -419.58380348
 Two electron energy                           180.36663440
 Virial ratio                                    3.59026360
 
 !MCSCF STATE 4.2 Doublet Dipole moment          0.00000000     0.00000000     0.00000000
 Dipole moment /Debye                            0.00000000     0.00000000     0.00000000
 
 Results for state 5.2 Doublet
 =============================
 !MCSCF STATE 5.2 Doublet Energy              -239.217169080314
 Nuclear energy                                  0.00000000
 Kinetic energy                                 92.35244213
 One electron energy                          -419.58380348
 Two electron energy                           180.36663440
 Virial ratio                                    3.59026360
 
 !MCSCF STATE 5.2 Doublet Dipole moment          0.00000000     0.00000000     0.00000000
 Dipole moment /Debye                            0.00000000     0.00000000     0.00000000
 
 Results for state 6.2 Doublet
 =============================
 !MCSCF STATE 6.2 Doublet Energy              -239.194132590789
 Nuclear energy                                  0.00000000
 Kinetic energy                                 92.32586452
 One electron energy                          -419.39288959
 Two electron energy                           180.19875700
 Virial ratio                                    3.59075974
 
 !MCSCF STATE 6.2 Doublet Dipole moment          0.00000000     0.00000000     0.00000000
 Dipole moment /Debye                            0.00000000     0.00000000     0.00000000
 
 Results for state 7.2 Doublet
 =============================
 !MCSCF STATE 7.2 Doublet Energy              -239.194132590668
 Nuclear energy                                  0.00000000
 Kinetic energy                                 92.32586452
 One electron energy                          -419.39288959
 Two electron energy                           180.19875699
 Virial ratio                                    3.59075974
 
 !MCSCF STATE 7.2 Doublet Dipole moment          0.00000000     0.00000000     0.00000000
 Dipole moment /Debye                            0.00000000     0.00000000     0.00000000
 
 Results for state 8.2 Doublet
 =============================
 !MCSCF STATE 8.2 Doublet Energy              -239.194132590589
 Nuclear energy                                  0.00000000
 Kinetic energy                                 92.32586452
 One electron energy                          -419.39288959
 Two electron energy                           180.19875700
 Virial ratio                                    3.59075974
 
 !MCSCF STATE 8.2 Doublet Dipole moment          0.00000000     0.00000000     0.00000000
 Dipole moment /Debye                            0.00000000     0.00000000     0.00000000
 
 Results for state 9.2 Doublet
 =============================
 !MCSCF STATE 9.2 Doublet Energy              -239.040435284718
 Nuclear energy                                  0.00000000
 Kinetic energy                                 91.83119833
 One electron energy                          -414.47429612
 Two electron energy                           175.43386083
 Virial ratio                                    3.60304166
 
 !MCSCF STATE 9.2 Doublet Dipole moment          0.00000000     0.00000000     0.00000000
 Dipole moment /Debye                            0.00000000     0.00000000     0.00000000
 
 Results for state 10.2 Doublet
 ==============================
 !MCSCF STATE 10.2 Doublet Energy             -239.023336475048
 Nuclear energy                                  0.00000000
 Kinetic energy                                 91.88677764
 One electron energy                          -414.73300055
 Two electron energy                           175.70966408
 Virial ratio                                    3.60128108
 
 !MCSCF STATE 10.2 Doublet Dipole moment         0.00000000     0.00000000     0.00000000
 Dipole moment /Debye                            0.00000000     0.00000000     0.00000000
 
 Results for state 11.2 Doublet
 ==============================
 !MCSCF STATE 11.2 Doublet Energy             -239.023336475030
 Nuclear energy                                  0.00000000
 Kinetic energy                                 91.88677764
 One electron energy                          -414.73300055
 Two electron energy                           175.70966408
 Virial ratio                                    3.60128108
 
 !MCSCF STATE 11.2 Doublet Dipole moment         0.00000000     0.00000000     0.00000000
 Dipole moment /Debye                            0.00000000     0.00000000     0.00000000
 
 Results for state 12.2 Doublet
 ==============================
 !MCSCF STATE 12.2 Doublet Energy             -239.023336474638
 Nuclear energy                                  0.00000000
 Kinetic energy                                 91.88677765
 One electron energy                          -414.73300060
 Two electron energy                           175.70966413
 Virial ratio                                    3.60128108
 
 !MCSCF STATE 12.2 Doublet Dipole moment         0.00000000     0.00000000     0.00000000
 Dipole moment /Debye                            0.00000000     0.00000000     0.00000000
 
 Results for state 13.2 Doublet
 ==============================
 !MCSCF STATE 13.2 Doublet Energy             -239.023336474599
 Nuclear energy                                  0.00000000
 Kinetic energy                                 91.88677765
 One electron energy                          -414.73300058
 Two electron energy                           175.70966411
 Virial ratio                                    3.60128108
 
 !MCSCF STATE 13.2 Doublet Dipole moment         0.00000000     0.00000000     0.00000000
 Dipole moment /Debye                            0.00000000     0.00000000     0.00000000
 
 Results for state 14.2 Doublet
 ==============================
 !MCSCF STATE 14.2 Doublet Energy             -239.023336474455
 Nuclear energy                                  0.00000000
 Kinetic energy                                 91.88677765
 One electron energy                          -414.73300061
 Two electron energy                           175.70966413
 Virial ratio                                    3.60128108
 
 !MCSCF STATE 14.2 Doublet Dipole moment         0.00000000     0.00000000     0.00000000
 Dipole moment /Debye                            0.00000000     0.00000000     0.00000000
 
 Results for state 15.2 Doublet
 ==============================
 !MCSCF STATE 15.2 Doublet Energy             -239.015793085537
 Nuclear energy                                  0.00000000
 Kinetic energy                                 91.90175322
 One electron energy                          -414.80359325
 Two electron energy                           175.78780016
 Virial ratio                                    3.60077512
 
 !MCSCF STATE 15.2 Doublet Dipole moment         0.00000000     0.00000000     0.00000000
 Dipole moment /Debye                            0.00000000     0.00000000     0.00000000
 
 Results for state 16.2 Doublet
 ==============================
 !MCSCF STATE 16.2 Doublet Energy             -239.015793084948
 Nuclear energy                                  0.00000000
 Kinetic energy                                 91.90175322
 One electron energy                          -414.80359328
 Two electron energy                           175.78780019
 Virial ratio                                    3.60077512
 
 !MCSCF STATE 16.2 Doublet Dipole moment         0.00000000     0.00000000     0.00000000
 Dipole moment /Debye                            0.00000000     0.00000000     0.00000000
 
 Results for state 17.2 Doublet
 ==============================
 !MCSCF STATE 17.2 Doublet Energy             -239.015793084941
 Nuclear energy                                  0.00000000
 Kinetic energy                                 91.90175323
 One electron energy                          -414.80359329
 Two electron energy                           175.78780021
 Virial ratio                                    3.60077512
 
 !MCSCF STATE 17.2 Doublet Dipole moment         0.00000000     0.00000000     0.00000000
 Dipole moment /Debye                            0.00000000     0.00000000     0.00000000
 
 State-averaged charge density matrix saved on record 2140.2 (density set 1)
 
 No non-zero expectation values
 
 Expectation values for two-electron operators:
 
 ? Warning
 ? Transition properties are only calculated between states of the same symmetry
 ? The problem occurs in mu_properties_expec2

 !MCSCF expec      <1.2 Quartet|LXLX|1.2 Quartet>    -0.000000000000
 !MCSCF expec      <1.2 Doublet|LXLX|1.2 Doublet>     0.464317120716
 !MCSCF expec      <2.2 Doublet|LXLX|2.2 Doublet>     0.999999986849
 !MCSCF expec      <3.2 Doublet|LXLX|3.2 Doublet>     0.999999999736
 !MCSCF expec      <4.2 Doublet|LXLX|4.2 Doublet>     3.999999999999
 !MCSCF expec      <5.2 Doublet|LXLX|5.2 Doublet>     3.535718777418
 !MCSCF expec      <6.2 Doublet|LXLX|6.2 Doublet>     1.000000000000
 !MCSCF expec      <7.2 Doublet|LXLX|7.2 Doublet>     1.000000000000
 !MCSCF expec      <8.2 Doublet|LXLX|8.2 Doublet>    -0.000000000000
 !MCSCF expec      <9.2 Doublet|LXLX|9.2 Doublet>    -0.000000000000
 !MCSCF expec    <10.2 Doublet|LXLX|10.2 Doublet>     3.999999999855
 !MCSCF expec    <11.2 Doublet|LXLX|11.2 Doublet>     3.993885361942
 !MCSCF expec    <12.2 Doublet|LXLX|12.2 Doublet>     0.999999994898
 !MCSCF expec    <13.2 Doublet|LXLX|13.2 Doublet>     0.999999991358
 !MCSCF expec    <14.2 Doublet|LXLX|14.2 Doublet>     0.006114733154
 !MCSCF expec    <15.2 Doublet|LXLX|15.2 Doublet>     0.000000000000
 !MCSCF expec    <16.2 Doublet|LXLX|16.2 Doublet>     1.000000000000
 !MCSCF expec    <17.2 Doublet|LXLX|17.2 Doublet>     1.000000000000
 
 !MCSCF expec      <1.2 Quartet|LYLY|1.2 Quartet>    -0.000000000000
 !MCSCF expec      <1.2 Doublet|LYLY|1.2 Doublet>     1.658220529606
 !MCSCF expec      <2.2 Doublet|LYLY|2.2 Doublet>     1.000000018829
 !MCSCF expec      <3.2 Doublet|LYLY|3.2 Doublet>     3.999999999201
 !MCSCF expec      <4.2 Doublet|LYLY|4.2 Doublet>     1.000000000001
 !MCSCF expec      <5.2 Doublet|LYLY|5.2 Doublet>     2.341724259585
 !MCSCF expec      <6.2 Doublet|LYLY|6.2 Doublet>     0.999999999812
 !MCSCF expec      <7.2 Doublet|LYLY|7.2 Doublet>     0.000000000215
 !MCSCF expec      <8.2 Doublet|LYLY|8.2 Doublet>     1.000000000000
 !MCSCF expec      <9.2 Doublet|LYLY|9.2 Doublet>    -0.000000000000
 !MCSCF expec    <10.2 Doublet|LYLY|10.2 Doublet>     1.000000000108
 !MCSCF expec    <11.2 Doublet|LYLY|11.2 Doublet>     0.867721172628
 !MCSCF expec    <12.2 Doublet|LYLY|12.2 Doublet>     1.000000052103
 !MCSCF expec    <13.2 Doublet|LYLY|13.2 Doublet>     3.999999927053
 !MCSCF expec    <14.2 Doublet|LYLY|14.2 Doublet>     3.132279761306
 !MCSCF expec    <15.2 Doublet|LYLY|15.2 Doublet>     1.000000000000
 !MCSCF expec    <16.2 Doublet|LYLY|16.2 Doublet>     0.000001291249
 !MCSCF expec    <17.2 Doublet|LYLY|17.2 Doublet>     0.999998708751
 
 !MCSCF expec      <1.2 Quartet|LZLZ|1.2 Quartet>    -0.000000000000
 !MCSCF expec      <1.2 Doublet|LZLZ|1.2 Doublet>     3.877462349678
 !MCSCF expec      <2.2 Doublet|LZLZ|2.2 Doublet>     3.999999994322
 !MCSCF expec      <3.2 Doublet|LZLZ|3.2 Doublet>     1.000000001063
 !MCSCF expec      <4.2 Doublet|LZLZ|4.2 Doublet>     0.999999999999
 !MCSCF expec      <5.2 Doublet|LZLZ|5.2 Doublet>     0.122556962997
 !MCSCF expec      <6.2 Doublet|LZLZ|6.2 Doublet>     0.000000000188
 !MCSCF expec      <7.2 Doublet|LZLZ|7.2 Doublet>     0.999999999785
 !MCSCF expec      <8.2 Doublet|LZLZ|8.2 Doublet>     1.000000000000
 !MCSCF expec      <9.2 Doublet|LZLZ|9.2 Doublet>    -0.000000000000
 !MCSCF expec    <10.2 Doublet|LZLZ|10.2 Doublet>     1.000000000036
 !MCSCF expec    <11.2 Doublet|LZLZ|11.2 Doublet>     1.138393465430
 !MCSCF expec    <12.2 Doublet|LZLZ|12.2 Doublet>     3.999999952999
 !MCSCF expec    <13.2 Doublet|LZLZ|13.2 Doublet>     1.000000081589
 !MCSCF expec    <14.2 Doublet|LZLZ|14.2 Doublet>     2.861605505541
 !MCSCF expec    <15.2 Doublet|LZLZ|15.2 Doublet>     1.000000000000
 !MCSCF expec    <16.2 Doublet|LZLZ|16.2 Doublet>     0.999998708751
 !MCSCF expec    <17.2 Doublet|LZLZ|17.2 Doublet>     0.000001291250
 
 !MCSCF expec      <1.2 Quartet|L**2|1.2 Quartet>    -0.000000000000
 !MCSCF expec      <1.2 Doublet|L**2|1.2 Doublet>     6.000000000000
 !MCSCF expec      <2.2 Doublet|L**2|2.2 Doublet>     6.000000000000
 !MCSCF expec      <3.2 Doublet|L**2|3.2 Doublet>     6.000000000000
 !MCSCF expec      <4.2 Doublet|L**2|4.2 Doublet>     6.000000000000
 !MCSCF expec      <5.2 Doublet|L**2|5.2 Doublet>     6.000000000000
 !MCSCF expec      <6.2 Doublet|L**2|6.2 Doublet>     2.000000000000
 !MCSCF expec      <7.2 Doublet|L**2|7.2 Doublet>     2.000000000000
 !MCSCF expec      <8.2 Doublet|L**2|8.2 Doublet>     2.000000000000
 !MCSCF expec      <9.2 Doublet|L**2|9.2 Doublet>    -0.000000000000
 !MCSCF expec    <10.2 Doublet|L**2|10.2 Doublet>     6.000000000000
 !MCSCF expec    <11.2 Doublet|L**2|11.2 Doublet>     6.000000000000
 !MCSCF expec    <12.2 Doublet|L**2|12.2 Doublet>     6.000000000000
 !MCSCF expec    <13.2 Doublet|L**2|13.2 Doublet>     6.000000000000
 !MCSCF expec    <14.2 Doublet|L**2|14.2 Doublet>     6.000000000000
 !MCSCF expec    <15.2 Doublet|L**2|15.2 Doublet>     2.000000000000
 !MCSCF expec    <16.2 Doublet|L**2|16.2 Doublet>     2.000000000000
 !MCSCF expec    <17.2 Doublet|L**2|17.2 Doublet>     2.000000000000
 
 EXTRA SYMMETRY OF MOS IN SYMMETRY 1:   1 3 5 6 2 4 1 1 6 3   5 2 4 1 4 5 3 6 2 4   6 5 3 2 7141511 9 8  121310 1 6 4 2 5 314
                                       15 711 8121310 9 114  15111310 7 812 9 6 4   2 5 3 1 2 5 3 6 413  10141511 812 7 9 1 5
                                        3 2 6 4 1 1
 EXTRA SYMMETRY OF MOS IN SYMMETRY 2:   2 1 3 2 1 3 3 1 2 1   2 3 810 6 4 5 9 7 1   2 3 810 6 5 4 9 7 8  10 5 9 7 6 4 2 1 3 8
                                       10 9 7 5 6 4 2 1 318  20121517161419211311   810 6 9 7 5 4 2 1 3   7 910 8 6 5 4 2 1 3
                                        2 1 3
 
  NATURAL ORBITALS (STATE AVERAGED)
  =================================

  Orbital  Occupation    Energy    Cen Mu Typ  Coefficients
    1.1     2.00000    -6.56187     1  1  s    1.00006
    2.1     2.00000    -1.65643     1  1  d2-  1.00030
    3.1     2.00000    -1.65643     1  1  d2+  1.00030
    4.1     2.00000    -1.65643     1  1  d1-  1.00030
    5.1     2.00000    -1.65643     1  1  d0   1.00030
    6.1     2.00000    -1.65643     1  1  d1+  1.00030
    7.1     1.99028    -0.65120     1  1  s   -0.34751    1  4  s    0.55386    1  5  s    0.62665    1  9  s   -0.28616
    1.2     2.00000    -4.62885     1  1  py   0.99972
    2.2     2.00000    -4.62885     1  1  px   0.99972
    3.2     2.00000    -4.62885     1  1  pz   0.99972
    4.2     0.93062    -0.16346     1  1  py  -0.29699    1  4  py   0.45434    1  5  py   0.49079
    5.2     0.93062    -0.16346     1  1  px  -0.29699    1  4  px   0.45434    1  5  px   0.49079
    6.2     0.93062    -0.16346     1  1  pz  -0.29699    1  4  pz   0.45434    1  5  pz   0.49079
    7.2     0.07262     0.05436     1 10  pz   1.14336
    8.2     0.07262     0.05436     1 10  px   1.14336
    9.2     0.07262     0.05436     1 10  py   1.14336
 
 Natural orbital dump (state averaged) at molpro section 2140.2 (Orbital set 2)
 
 Transform the CI vectors
 
 CI Coefficients of symmetry 2 (Quartet)
 =======================================
 
 2 aaa000       0.99930560
 
 Energy:     -239.27658084
 
 
 CI Coefficients of symmetry 2 (Doublet)
 =======================================

 State:              1               2               3               4               5               6               7
 2 aab000      -0.14238846     -0.00000030     -0.00000743     -0.00000077      0.80096549      0.00000000     -0.00000000
 2 aba000       0.76485069     -0.00006621      0.00001867      0.00000052     -0.27717072     -0.00000000      0.00000000
 2 a20000      -0.00001585     -0.00002623      0.70453187     -0.00000005      0.00000372      0.00000952      0.69470508
 2 2a0000      -0.00000025      0.00000002      0.00000005      0.70453187      0.00000063     -0.00000004     -0.00000005
 2 02a000      -0.00006529     -0.70453186     -0.00002623      0.00000002     -0.00001187      0.69470509     -0.00000952
 2 20a000       0.00006529      0.70453185      0.00002623     -0.00000002      0.00001187      0.69470510     -0.00000952
 2 0a2000       0.00000025     -0.00000002     -0.00000005     -0.70453185     -0.00000063     -0.00000004     -0.00000005
 2 a02000       0.00001585      0.00002623     -0.70453185      0.00000005     -0.00000372      0.00000952      0.69470510
 2 a0a0b0      -0.04314459      0.00000373     -0.00000105     -0.00000003      0.01563497     -0.00000000     -0.00000000
 2 baa000      -0.62246223      0.00006651     -0.00001124      0.00000025     -0.52379477      0.00000000      0.00000000
 2 0aa00b      -0.03511256      0.00000375     -0.00000063      0.00000001     -0.02954681      0.00000000      0.00000000
 2 a0ab00       0.00000089      0.00000148     -0.03974205      0.00000000     -0.00000021      0.00000077      0.05593037
 2 a0a00b      -0.00000368     -0.03974204     -0.00000148      0.00000000     -0.00000067     -0.05593036      0.00000077
 2 0aab00       0.00000001     -0.00000000     -0.00000000     -0.03974205     -0.00000004     -0.00000000     -0.00000000
 2 aa000b       0.00000001     -0.00000000     -0.00000000     -0.03974204     -0.00000004      0.00000000      0.00000000
 2 0aa0b0       0.00000368      0.03974205      0.00000148     -0.00000000      0.00000067     -0.05593038      0.00000077
 2 aa00b0      -0.00000089     -0.00000148      0.03974205     -0.00000000      0.00000021      0.00000077      0.05593038
 2 aa0b00      -0.00803201     -0.00000002     -0.00000042     -0.00000004      0.04518179      0.00000000     -0.00000000
 2 ab000a      -0.00000000      0.00000000      0.00000000      0.01304784      0.00000001     -0.00000000     -0.00000000
 2 0baa00      -0.00000000      0.00000000      0.00000000      0.01304784      0.00000001      0.00000000      0.00000000
 2 ba00a0       0.00000029      0.00000049     -0.01304784      0.00000000     -0.00000007     -0.00000022     -0.01573570
 2 0ab0a0      -0.00000121     -0.01304784     -0.00000049      0.00000000     -0.00000022      0.01573570     -0.00000022
 2 a0b00a       0.00000121      0.01304784      0.00000049     -0.00000000      0.00000022      0.01573570     -0.00000022
 2 b0aa00      -0.00000029     -0.00000049      0.01304784     -0.00000000      0.00000007     -0.00000022     -0.01573570
 2 0ba00a       0.02634262     -0.00000251      0.00000057      0.00000001      0.00433198     -0.00000000      0.00000000
 2 ab0a00       0.01745173     -0.00000128      0.00000050      0.00000002     -0.02020241     -0.00000000      0.00000000
 2 b0a0a0       0.02622167     -0.00000251      0.00000056      0.00000000      0.00501244      0.00000000     -0.00000000
 2 a0b0a0       0.01692292     -0.00000122      0.00000049      0.00000002     -0.02064741      0.00000000      0.00000000
 2 ba0a00      -0.00941972      0.00000129     -0.00000008      0.00000002     -0.02497938     -0.00000000      0.00000000
 2 0ab00a       0.00876994     -0.00000124      0.00000006     -0.00000002      0.02521483     -0.00000000     -0.00000000
 2 a0ba00      -0.00000060     -0.00000099      0.02669421     -0.00000000      0.00000014     -0.00000055     -0.04019468
 2 b0a00a       0.00000247      0.02669420      0.00000099     -0.00000000      0.00000045      0.04019466     -0.00000055
 2 0aba00      -0.00000001      0.00000000      0.00000000      0.02669421      0.00000002      0.00000000      0.00000000
 2 ba000a      -0.00000001      0.00000000      0.00000000      0.02669420      0.00000002     -0.00000000     -0.00000000
 2 0ba0a0      -0.00000247     -0.02669421     -0.00000099      0.00000000     -0.00000045      0.04019468     -0.00000055
 2 ab00a0       0.00000060      0.00000099     -0.02669421      0.00000000     -0.00000014     -0.00000055     -0.04019468
 0 a22000       0.00000000      0.00000000     -0.00000000     -0.00000000     -0.00000000     -0.00000207     -0.15120904
 0 2a2000       0.00000000     -0.00000000     -0.00000000     -0.00000000     -0.00000000      0.00000001      0.00000001
 0 22a000      -0.00000000     -0.00000000     -0.00000000      0.00000000      0.00000000     -0.15120904      0.00000207
 2 00200a       0.00000031      0.00000051     -0.01364636      0.00000000     -0.00000007      0.00000017      0.01251370
 2 0020a0       0.00000000     -0.00000000     -0.00000000     -0.01364638     -0.00000001     -0.00000000     -0.00000000
 2 200a00       0.00000126      0.01364637      0.00000051     -0.00000000      0.00000023      0.01251371     -0.00000017
 2 2000a0      -0.00000000      0.00000000      0.00000000      0.01364638      0.00000001     -0.00000000     -0.00000000
 2 020a00      -0.00000126     -0.01364637     -0.00000051      0.00000000     -0.00000023      0.01251371     -0.00000017
 2 02000a      -0.00000031     -0.00000051      0.01364636     -0.00000000      0.00000007      0.00000017      0.01251370
 2 0200a0      -0.00000000     -0.00000000      0.00000000      0.00000000      0.00000000      0.00000000      0.00000000
 2 002a00       0.00000000     -0.00000000      0.00000000      0.00000000      0.00000000     -0.01194527      0.00000016
 2 20000a      -0.00000000     -0.00000000      0.00000000     -0.00000000     -0.00000000     -0.00000016     -0.01194527
 0 a2a0b0       0.01721643     -0.00000149      0.00000042      0.00000001     -0.00623898     -0.00000000      0.00000000
 0 aa200b      -0.00000001      0.00000000      0.00000000      0.01585868      0.00000001      0.00000000      0.00000000
 0 2aab00      -0.00000001      0.00000000      0.00000000      0.01585868      0.00000001     -0.00000000     -0.00000000
 0 aa20b0       0.00000036      0.00000059     -0.01585868      0.00000000     -0.00000008      0.00000010      0.00701763
 0 2aa0b0      -0.00000147     -0.01585868     -0.00000059      0.00000000     -0.00000027     -0.00701763      0.00000010
 0 a2a00b       0.00000147      0.01585868      0.00000059     -0.00000000      0.00000027     -0.00701763      0.00000010
 0 a2ab00      -0.00000036     -0.00000059      0.01585868     -0.00000000      0.00000008      0.00000010      0.00701763
 0 2aa00b       0.01401133     -0.00000150      0.00000025     -0.00000001      0.01179038     -0.00000000     -0.00000000
 0 aa2b00       0.00320510      0.00000001      0.00000017      0.00000002     -0.01802936     -0.00000000      0.00000000
 
 Energy:     -239.21716908   -239.21716908   -239.21716908   -239.21716908   -239.21716908   -239.19413259   -239.19413259

 State:              8               9              10              11              12              13              14
 2 aab000      -0.00000000     -0.00000000     -0.00000023      0.04446774      0.00000207     -0.00000274     -0.02804700
 2 aba000       0.00000000     -0.00000001     -0.00000008      0.00205553     -0.00000385      0.00000494      0.05253370
 2 a20000       0.00000005      0.00000000      0.00000031     -0.00000011     -0.00000521     -0.04553033      0.00000428
 2 2a0000       0.69470509      0.00000000      0.04553031      0.00000028      0.00000002      0.00000031      0.00000006
 2 02a000       0.00000004     -0.00000000      0.00000002      0.00000002     -0.04553033      0.00000521     -0.00000334
 2 20a000       0.00000004     -0.00000000     -0.00000002     -0.00000002      0.04553032     -0.00000521      0.00000334
 2 0a2000       0.69470510     -0.00000000     -0.04553033     -0.00000028     -0.00000002     -0.00000031     -0.00000006
 2 a02000       0.00000005      0.00000000     -0.00000031      0.00000011      0.00000521      0.04553034     -0.00000428
 2 a0a0b0       0.00000000     -0.46795365     -0.00000096      0.02495125     -0.00004676      0.00005991      0.63768269
 2 baa000       0.00000000      0.00000001      0.00000031     -0.04652328      0.00000178     -0.00000219     -0.02448670
 2 0aa00b      -0.00000000      0.46795365     -0.00000381      0.56472503     -0.00002161      0.00002663      0.29723293
 2 a0ab00       0.00000000      0.00000000      0.00000371     -0.00000129     -0.00006320     -0.55267204      0.00005197
 2 a0a00b      -0.00000000     -0.00000000     -0.00000023     -0.00000018      0.55267203     -0.00006319      0.00004054
 2 0aab00       0.05593037      0.00000000      0.55267202      0.00000336      0.00000023      0.00000371      0.00000070
 2 aa000b      -0.05593036      0.00000000      0.55267198      0.00000336      0.00000023      0.00000371      0.00000070
 2 0aa0b0      -0.00000000      0.00000000      0.00000023      0.00000018     -0.55267196      0.00006319     -0.00004054
 2 aa00b0       0.00000000     -0.00000000     -0.00000371      0.00000129      0.00006320      0.55267194     -0.00005197
 2 aa0b00      -0.00000000      0.46795365      0.00000285     -0.53977379     -0.00002515      0.00003327      0.34044975
 2 ab000a       0.01573570     -0.00000000     -0.34778547     -0.00000211     -0.00000014     -0.00000233     -0.00000044
 2 0baa00      -0.01573570     -0.00000000     -0.34778549     -0.00000211     -0.00000014     -0.00000233     -0.00000044
 2 ba00a0      -0.00000000      0.00000000      0.00000233     -0.00000081     -0.00003977     -0.34778545      0.00003270
 2 0ab0a0       0.00000000     -0.00000000     -0.00000014     -0.00000012      0.34778546     -0.00003977      0.00002551
 2 a0b00a       0.00000000      0.00000000      0.00000014      0.00000012     -0.34778550      0.00003977     -0.00002551
 2 b0aa00      -0.00000000     -0.00000000     -0.00000233      0.00000081      0.00003977      0.34778551     -0.00003270
 2 0ba00a       0.00000000     -0.23397683      0.00000215     -0.34891882      0.00000151     -0.00000127     -0.02216342
 2 ab0a00       0.00000000     -0.23397682     -0.00000204      0.34612029      0.00000374     -0.00000545     -0.04935890
 2 b0a0a0      -0.00000000      0.23397682     -0.00000038      0.13031408      0.00002384     -0.00003081     -0.32442842
 2 a0b0a0      -0.00000000      0.23397682      0.00000134     -0.15526533      0.00002292     -0.00002909     -0.31325427
 2 ba0a00       0.00000000     -0.23397682     -0.00000081      0.19365350      0.00002141     -0.00002782     -0.29109085
 2 0ab00a       0.00000000     -0.23397683      0.00000166     -0.21580622      0.00002010     -0.00002536     -0.27506951
 2 a0ba00      -0.00000000     -0.00000000     -0.00000137      0.00000048      0.00002343      0.20488653     -0.00001926
 2 b0a00a       0.00000000      0.00000000      0.00000008      0.00000007     -0.20488653      0.00002343     -0.00001503
 2 0aba00      -0.04019468      0.00000000     -0.20488652     -0.00000125     -0.00000008     -0.00000137     -0.00000026
 2 ba000a       0.04019466      0.00000000     -0.20488651     -0.00000125     -0.00000008     -0.00000137     -0.00000026
 2 0ba0a0       0.00000000     -0.00000000     -0.00000008     -0.00000007      0.20488650     -0.00002343      0.00001503
 2 ab00a0      -0.00000000      0.00000000      0.00000137     -0.00000048     -0.00002343     -0.20488649      0.00001926
 0 a22000      -0.00000001     -0.00000000      0.00000000     -0.00000000     -0.00000000     -0.00000000      0.00000000
 0 2a2000      -0.15120904     -0.00000000      0.00000000      0.00000000      0.00000000      0.00000000      0.00000000
 0 22a000      -0.00000001      0.00000000      0.00000000     -0.00000000      0.00000000     -0.00000000      0.00000000
 2 00200a       0.00000000     -0.00000000     -0.00000096      0.00000033      0.00001634      0.14289897     -0.00001344
 2 0020a0       0.01251372      0.00000000     -0.14289897     -0.00000087     -0.00000006     -0.00000096     -0.00000018
 2 200a00       0.00000000     -0.00000000     -0.00000006     -0.00000005      0.14289897     -0.00001634      0.00001048
 2 2000a0       0.01251371     -0.00000000      0.14289896      0.00000087      0.00000006      0.00000096      0.00000018
 2 020a00       0.00000000      0.00000000      0.00000006      0.00000005     -0.14289896      0.00001634     -0.00001048
 2 02000a       0.00000000      0.00000000      0.00000096     -0.00000033     -0.00001634     -0.14289896      0.00001344
 2 0200a0      -0.01194527      0.00000000      0.00000000      0.00000000     -0.00000000      0.00000000     -0.00000000
 2 002a00      -0.00000000      0.00000000      0.00000000      0.00000000     -0.00000000      0.00000000     -0.00000000
 2 20000a      -0.00000000     -0.00000000      0.00000000     -0.00000000     -0.00000000     -0.00000001      0.00000000
 0 a2a0b0      -0.00000000      0.04738750      0.00000010     -0.00255096      0.00000478     -0.00000612     -0.06519536
 0 aa200b      -0.00701763     -0.00000000     -0.05650404     -0.00000034     -0.00000002     -0.00000038     -0.00000007
 0 2aab00       0.00701763      0.00000000     -0.05650404     -0.00000034     -0.00000002     -0.00000038     -0.00000007
 0 aa20b0       0.00000000      0.00000000      0.00000038     -0.00000013     -0.00000646     -0.05650403      0.00000531
 0 2aa0b0      -0.00000000     -0.00000000     -0.00000002     -0.00000002      0.05650403     -0.00000646      0.00000414
 0 a2a00b      -0.00000000      0.00000000      0.00000002      0.00000002     -0.05650404      0.00000646     -0.00000414
 0 a2ab00       0.00000000     -0.00000000     -0.00000038      0.00000013      0.00000646      0.05650404     -0.00000531
 0 2aa00b       0.00000000     -0.04738750      0.00000039     -0.05773632      0.00000221     -0.00000272     -0.03038848
 0 aa2b00       0.00000000     -0.04738750     -0.00000029      0.05518535      0.00000257     -0.00000340     -0.03480688
 
 Energy:     -239.19413259   -239.04043528   -239.02333648   -239.02333648   -239.02333647   -239.02333647   -239.02333647

 State:             15              16              17
 2 aab000      -0.00000000      0.00000000     -0.00000000
 2 aba000       0.00000000     -0.00000000      0.00000000
 2 a20000      -0.00000001     -0.05993111     -0.00006810
 2 2a0000       0.05993113     -0.00000001      0.00000001
 2 02a000      -0.00000001     -0.00006810      0.05993111
 2 20a000      -0.00000001     -0.00006810      0.05993109
 2 0a2000       0.05993114     -0.00000001      0.00000001
 2 a02000      -0.00000001     -0.05993110     -0.00006810
 2 a0a0b0       0.00000000     -0.00000000      0.00000000
 2 baa000       0.00000000      0.00000000     -0.00000000
 2 0aa00b      -0.00000000      0.00000000     -0.00000000
 2 a0ab00       0.00000008      0.55015658      0.00062516
 2 a0a00b      -0.00000005     -0.00062516      0.55015660
 2 0aab00      -0.55015697      0.00000008     -0.00000005
 2 aa000b       0.55015701     -0.00000008      0.00000005
 2 0aa0b0      -0.00000005     -0.00062516      0.55015667
 2 aa00b0       0.00000008      0.55015669      0.00062516
 2 aa0b00      -0.00000000      0.00000000      0.00000000
 2 ab000a      -0.36671580      0.00000005     -0.00000003
 2 0baa00       0.36671578     -0.00000005      0.00000003
 2 ba00a0      -0.00000005     -0.36671559     -0.00041671
 2 0ab0a0       0.00000003      0.00041671     -0.36671558
 2 a0b00a       0.00000003      0.00041671     -0.36671553
 2 b0aa00      -0.00000005     -0.36671552     -0.00041671
 2 0ba00a       0.00000000     -0.00000000      0.00000000
 2 ab0a00       0.00000000     -0.00000000     -0.00000000
 2 b0a0a0      -0.00000000      0.00000000     -0.00000000
 2 a0b0a0      -0.00000000      0.00000000     -0.00000000
 2 ba0a00       0.00000000      0.00000000     -0.00000000
 2 0ab00a       0.00000000      0.00000000     -0.00000000
 2 a0ba00      -0.00000003     -0.18344107     -0.00020845
 2 b0a00a       0.00000002      0.00020845     -0.18344107
 2 0aba00       0.18344120     -0.00000003      0.00000002
 2 ba000a      -0.18344121      0.00000003     -0.00000002
 2 0ba0a0       0.00000002      0.00020845     -0.18344109
 2 ab00a0      -0.00000003     -0.18344110     -0.00020845
 0 a22000       0.00000000      0.01504734      0.00001710
 0 2a2000      -0.01504735      0.00000000     -0.00000000
 0 22a000       0.00000000      0.00001710     -0.01504734
 2 00200a      -0.00000002     -0.11352254     -0.00012900
 2 0020a0       0.11352263     -0.00000002      0.00000001
 2 200a00      -0.00000001     -0.00012900      0.11352255
 2 2000a0       0.11352264     -0.00000002      0.00000001
 2 020a00      -0.00000001     -0.00012900      0.11352258
 2 02000a      -0.00000002     -0.11352258     -0.00012900
 2 0200a0      -0.06975195      0.00000001     -0.00000001
 2 002a00       0.00000001      0.00007926     -0.06975191
 2 20000a       0.00000001      0.06975191      0.00007926
 0 a2a0b0      -0.00000000      0.00000000     -0.00000000
 0 aa200b      -0.05895523      0.00000001     -0.00000001
 0 2aab00       0.05895523     -0.00000001      0.00000001
 0 aa20b0      -0.00000001     -0.05895520     -0.00006699
 0 2aa0b0       0.00000001      0.00006699     -0.05895519
 0 a2a00b       0.00000001      0.00006699     -0.05895519
 0 a2ab00      -0.00000001     -0.05895519     -0.00006699
 0 2aa00b       0.00000000     -0.00000000      0.00000000
 0 aa2b00       0.00000000     -0.00000000     -0.00000000
 
 Energy:     -239.01579309   -239.01579308   -239.01579308
 


 **********************************************************************************************************************************
 DATASETS  * FILE   NREC   LENGTH (MB)   RECORD NAMES
              1      21       52.36       500      610      700      900      950      970     1000      129      960     1100   
                                          VAR    BASINP    GEOM    SYMINP    ZMAT    AOBASIS   BASIS     P2S    ABASIS      S 
                                         1400     1410     1420     1200     1210     1080     1700     1600     1650     1380   
                                           T        V       ECP      H0       H01     AOSYM    OPER      SMH    MOLCAS    JKOP   
                                         1700(1)
                                         OPER   

              2       4        0.79       700     1000      520     2140   
                                         GEOM     BASIS   MCVARS    MCSCF   

 PROGRAMS   *        TOTAL     MULTI       INT
 CPU TIMES  *         8.80      5.39      3.09
 REAL TIME  *        11.23 SEC
 DISK USED  *        53.25 MB (local),        1.85 GB (total)
 SF USED    *        60.21 MB
 GA USED    *         0.00 MB       (max)       0.00 MB       (current)
 **********************************************************************************************************************************

 Energies and &lt;L**2&gt; values

         ENERGY     LL
    -239.2765808  -0.0
    -239.2171691   6.0
    -239.2171691   6.0
    -239.2171691   6.0
    -239.2171691   6.0
    -239.2171691   6.0
    -239.1941326   2.0
    -239.1941326   2.0
    -239.1941326   2.0
    -239.0404353  -0.0
    -239.0233365   6.0
    -239.0233365   6.0
    -239.0233365   6.0
    -239.0233365   6.0
    -239.0233365   6.0
    -239.0157931   2.0
    -239.0157931   2.0
    -239.0157931   2.0
                                                  


 PROGRAM * CI (Multireference internally contracted CI)     Authors: H.-J. Werner, P.J. Knowles, 1987


 Convergence thresholds:  THRVAR = 1.00D-08  THRDEN = 1.00D-06

 Number of optimized states: 1  Roots:    1
 Number of reference states: 1  Roots:    1

 Reference symmetry:                   2   Quartet 
 Number of electrons:                 23
 Maximum number of shells:             5
 Maximum number of spin couplings:   165

 Reference space:       86 conf      104 CSFs
 N elec internal:    18764 conf    67760 CSFs
 N-1 el internal:    14189 conf   101369 CSFs
 N-2 el internal:     4931 conf    61610 CSFs

 Number of electrons in valence space:                     23
 Maximum number of open shell orbitals in reference space:  5
 Maximum number of open shell orbitals in internal spaces: 11


 Number of closed-shell orbitals:   9 (   6   3 )
 Number of active  orbitals:        7 (   1   6 )
 Number of external orbitals:     153 (  79  74 )

 Molecular orbitals read from record     2140.2  Type=MCSCF/NATURAL (state averaged)

 Valence orbitals related to previous ones by unitary transformation. Operators transformed.


 Number of p-space configurations:  10

 Reference wavefunction optimized for reference space (refopt=1)

 State     Reference Energy 
     1      -239.27658084

 Number of blocks in overlap matrix:   167   Smallest eigenvalue:  0.31D-04
 Number of N-2 electron functions:     250
 Number of N-1 electron functions:  101369

 Number of internal configurations:                33680
 Number of singly external configurations:       7754546
 Number of doubly external configurations:       1463815
 Total number of contracted configurations:      9252041
 Total number of uncontracted configurations:  367286991

 Diagonal Coupling coefficients finished.               Storage:  10292981 words, CPU-Time:      0.52 seconds.
 Energy denominators for pairs finished in 1 passes.    Storage:   1796366 words, CPU-time:      0.26 seconds.

  ITER. STATE  ROOT     SQ.NORM     CORR.ENERGY   TOTAL ENERGY   ENERGY CHANGE       DEN1      VAR(S)    VAR(P)      TIME
    1     1     1     1.00000000     0.00000000  -239.27658084     0.00000000    -1.03242906  0.47D-01  0.12D+00     2.11
    2     1     1     1.10343185    -0.81617966  -240.09276050    -0.81617966    -0.02666902  0.42D-02  0.18D-02    14.30
    3     1     1     1.08862099    -0.84135090  -240.11793173    -0.02517124    -0.00039068  0.54D-04  0.34D-04    26.16
    4     1     1     1.08821665    -0.84174777  -240.11832860    -0.00039687    -0.00000940  0.17D-05  0.86D-06    37.94
    5     1     1     1.08826522    -0.84175745  -240.11833829    -0.00000968    -0.00000028  0.23D-07  0.44D-07    49.70
    6     1     1     1.08828005    -0.84175775  -240.11833858    -0.00000030    -0.00000001  0.11D-08  0.23D-08    61.45


 =====================================
 Analysis of CPU times by interactions
 =====================================

       I      S      P

 I   3.6%
 S   3.7%  27.8%
 P   0.9%  52.2%   4.5%

 Initialization:   1.7%
 Other:            5.5%

 Total CPU:       61.5 seconds
 =====================================



 Wavefunction saved on  5302.2

 Reference coefficients greater than 0.0500000
 =============================================
 2222222222///000           0.9580857


 RESULTS FOR STATE 1.2
 =====================

 Coefficient of reference function:   C(0) = 0.95850539 (fixed)   0.95854739 (relaxed)

 Energy contributions of configuration classes

 CLASS          SQ.NORM        ECORR1        ECORR2
 +++++++++++++++++++++++++++++++++++++++++++++++++++
 Internals    0.00016168   -0.00028333   -0.00038534
 Singles      0.01409332   -0.05114557   -0.05789007
 Pairs        0.07420100   -0.79032885   -0.78348234
 Total        1.08845601   -0.84175775   -0.84175775
 +++++++++++++++++++++++++++++++++++++++++++++++++++


 Reference energy                    -239.27658084
 Nuclear energy                         0.00000000
 Kinetic energy                        93.08657897
 One electron energy                 -419.31093389
 Two electron energy                  179.19259531
 Virial quotient                       -2.57951620
 Correlation energy                    -0.84175775
 !MRCI STATE 1.2 Energy              -240.118338583684

 Properties without orbital relaxation:

 !MRCI STATE 1.2 Dipole moment          0.00000000     0.00000000     0.00000000
 Dipole moment /Debye                   0.00000000     0.00000000     0.00000000

 Cluster corrected energies          -240.19279712 (Davidson, fixed reference)
 Cluster corrected energies          -240.19271682 (Davidson, relaxed reference)

 Cluster corrected energies          -240.19039582 (Pople, fixed reference)
 Cluster corrected energies          -240.19031233 (Pople, relaxed reference)



 **********************************************************************************************************************************
 DATASETS  * FILE   NREC   LENGTH (MB)   RECORD NAMES
              1      21       52.36       500      610      700      900      950      970     1000      129      960     1100   
                                          VAR    BASINP    GEOM    SYMINP    ZMAT    AOBASIS   BASIS     P2S    ABASIS      S 
                                         1400     1410     1420     1200     1210     1080     1700     1600     1650     1380   
                                           T        V       ECP      H0       H01     AOSYM    OPER      SMH    MOLCAS    JKOP   
                                         1700(1)
                                         OPER   

              2       5       73.40       700     1000      520     2140     5302   
                                         GEOM     BASIS   MCVARS    MCSCF    MRCI   

 PROGRAMS   *        TOTAL        CI     MULTI       INT
 CPU TIMES  *        71.54     62.72      5.39      3.09
 REAL TIME  *        76.93 SEC
 DISK USED  *       125.86 MB (local),        4.11 GB (total)
 SF USED    *       994.33 MB
 GA USED    *         0.00 MB       (max)       0.00 MB       (current)
 **********************************************************************************************************************************
 SETTING HLSDIAG(1)     =      -240.19271682  AU                              


 PROGRAM * CI (Multireference internally contracted CI)     Authors: H.-J. Werner, P.J. Knowles, 1987


 Convergence thresholds:  THRVAR = 1.00D-08  THRDEN = 1.00D-06

 Number of optimized states: 17  Roots:   1   2   3   4   5   6   7   8   9  10  11  12  13  14  15  16  17
 Number of reference states: 17  Roots:   1   2   3   4   5   6   7   8   9  10  11  12  13  14  15  16  17

 Reference symmetry:                   2   Doublet 
 Number of electrons:                 23
 Maximum number of shells:             6
 Maximum number of spin couplings:   132

 Reference space:      176 conf      280 CSFs
 N elec internal:    21164 conf    87808 CSFs
 N-1 el internal:    18620 conf   124768 CSFs
 N-2 el internal:     9446 conf    81340 CSFs

 Number of electrons in valence space:                     23
 Maximum number of open shell orbitals in reference space:  5
 Maximum number of open shell orbitals in internal spaces: 11


 Number of closed-shell orbitals:   9 (   6   3 )
 Number of active  orbitals:        7 (   1   6 )
 Number of external orbitals:     153 (  79  74 )

 Molecular orbitals read from record     2140.2  Type=MCSCF/NATURAL (state averaged)

 Coulomb and exchange operators available. No transformation done.


 Number of p-space configurations:  35

 Reference wavefunction optimized for reference space (refopt=1)

 State     Reference Energy 
     1      -239.21716908
     2      -239.21716908
     3      -239.21716908
     4      -239.21716908
     5      -239.21716908
     6      -239.19413259
     7      -239.19413259
     8      -239.19413259
     9      -239.04043528
    10      -239.02333648
    11      -239.02333648
    12      -239.02333647
    13      -239.02333647
    14      -239.02333647
    15      -239.01579309
    16      -239.01579308
    17      -239.01579308

 ?WARNING: SMALL EIGENVALUE OF PAIR OVERLAP MATRIX:  0.3252D-06

 ?WARNING: SMALL EIGENVALUE OF PAIR OVERLAP MATRIX:  0.1910D-06

 ?WARNING: SMALL EIGENVALUE OF PAIR OVERLAP MATRIX:  0.1910D-06

 ?WARNING: SMALL EIGENVALUE OF PAIR OVERLAP MATRIX:  0.1910D-06

 ?WARNING: SMALL EIGENVALUE OF PAIR OVERLAP MATRIX:  0.1910D-06

 ?WARNING: SMALL EIGENVALUE OF PAIR OVERLAP MATRIX:  0.1910D-06

 ?WARNING: SMALL EIGENVALUE OF PAIR OVERLAP MATRIX:  0.1910D-06

 ?WARNING: SMALL EIGENVALUE OF PAIR OVERLAP MATRIX:  0.1910D-06

 ?WARNING: SMALL EIGENVALUE OF PAIR OVERLAP MATRIX:  0.1910D-06

 ?WARNING: SMALL EIGENVALUE OF PAIR OVERLAP MATRIX:  0.1910D-06

 ?WARNING: SMALL EIGENVALUE OF PAIR OVERLAP MATRIX:  0.1910D-06

 ?WARNING: SMALL EIGENVALUE OF PAIR OVERLAP MATRIX:  0.1910D-06

 ?WARNING: SMALL EIGENVALUE OF PAIR OVERLAP MATRIX:  0.1910D-06

 ?WARNING: SMALL EIGENVALUE OF PAIR OVERLAP MATRIX:  0.1910D-06

 ?WARNING: SMALL EIGENVALUE OF PAIR OVERLAP MATRIX:  0.1910D-06

 ?WARNING: SMALL EIGENVALUE OF PAIR OVERLAP MATRIX:  0.1910D-06

 ?WARNING: SMALL EIGENVALUE OF PAIR OVERLAP MATRIX:  0.1910D-06

 ?WARNING: SMALL EIGENVALUE OF PAIR OVERLAP MATRIX:  0.1910D-06

 ?WARNING: SMALL EIGENVALUE OF PAIR OVERLAP MATRIX:  0.1910D-06

 Number of blocks in overlap matrix:  1471   Smallest eigenvalue:  0.19D-06
 Number of N-2 electron functions:    3628
 Number of N-1 electron functions:  124768

 Number of internal configurations:                44086
 Number of singly external configurations:       9543892
 Number of doubly external configurations:      21241426
 Total number of contracted configurations:     30829404
 Total number of uncontracted configurations:  484809336

 Diagonal Coupling coefficients finished.               Storage:  46705908 words, CPU-Time:    204.36 seconds.
 Energy denominators for pairs finished in 1 passes.    Storage:   2706800 words, CPU-time:      3.60 seconds.

  ITER. STATE  ROOT     SQ.NORM     CORR.ENERGY   TOTAL ENERGY   ENERGY CHANGE       DEN1      VAR(S)    VAR(P)      TIME
    1     1     1     1.00000000     0.00000000  -239.21716908     0.00000000    -1.02901631  0.55D-01  0.11D+00   229.96
    1     2     2     1.00000000     0.00000000  -239.21716908     0.00000000    -1.02815576  0.55D-01  0.11D+00   229.96
    1     3     3     1.00000000     0.00000000  -239.21716908    -0.00000000    -1.02858640  0.56D-01  0.11D+00   229.96
    1     4     4     1.00000000     0.00000000  -239.21716908     0.00000000    -1.02789038  0.55D-01  0.11D+00   229.96
    1     5     5     1.00000000     0.00000000  -239.21716908     0.00000000    -1.02831813  0.56D-01  0.11D+00   229.96
    1     6     6     1.00000000     0.00000000  -239.19413259     0.00000000    -1.00962098  0.36D-01  0.11D+00   229.96
    1     7     7     1.00000000     0.00000000  -239.19413259    -0.00000000    -1.00933761  0.36D-01  0.11D+00   229.96
    1     8     8     1.00000000     0.00000000  -239.19413259    -0.00000000    -1.00932695  0.36D-01  0.11D+00   229.96
    1     9     9     1.00000000     0.00000000  -239.04043528     0.00000000    -0.98849701  0.47D-01  0.10D+00   229.96
    1    10    10     1.00000000     0.00000000  -239.02333648     0.00000000    -0.99404877  0.50D-01  0.10D+00   229.96
    1    11    11     1.00000000     0.00000000  -239.02333648     0.00000000    -0.99418798  0.51D-01  0.10D+00   229.96
    1    12    12     1.00000000     0.00000000  -239.02333647     0.00000000    -0.99406836  0.50D-01  0.10D+00   229.96
    1    13    13     1.00000000     0.00000000  -239.02333647     0.00000000    -0.99421965  0.50D-01  0.10D+00   229.96
    1    14    14     1.00000000     0.00000000  -239.02333647     0.00000000    -0.99424438  0.51D-01  0.10D+00   229.96
    1    15    15     1.00000000     0.00000000  -239.01579309     0.00000000    -0.99512774  0.53D-01  0.10D+00   229.96
    1    16    16     1.00000000     0.00000000  -239.01579308     0.00000000    -0.99516301  0.53D-01  0.10D+00   229.96
    1    17    17     1.00000000     0.00000000  -239.01579308     0.00000000    -0.99503894  0.52D-01  0.10D+00   229.96
    2     1     1     1.10632778    -0.82570050  -240.04286958    -0.82570050    -0.02627232  0.47D-02  0.16D-02  1410.13
    2     2     2     1.10622916    -0.82567444  -240.04284352    -0.82567444    -0.02628710  0.47D-02  0.16D-02  1410.13
    2     3     3     1.10637426    -0.82561411  -240.04278319    -0.82561411    -0.02636852  0.47D-02  0.16D-02  1410.13
    2     4     4     1.10657910    -0.82529143  -240.04246051    -0.82529143    -0.02668215  0.48D-02  0.16D-02  1410.13
    2     5     5     1.10689896    -0.82501334  -240.04218242    -0.82501334    -0.02697002  0.50D-02  0.16D-02  1410.13
    2     6     6     1.09872808    -0.82385915  -240.01799175    -0.82385915    -0.02286866  0.38D-02  0.15D-02  1410.13
    2     7     7     1.09859564    -0.82371986  -240.01785245    -0.82371986    -0.02299177  0.38D-02  0.16D-02  1410.13
    2     8     8     1.09854958    -0.82361114  -240.01774374    -0.82361114    -0.02304062  0.38D-02  0.16D-02  1410.13
    2     9     9     1.09998640    -0.80974728  -239.85018257    -0.80974728    -0.02065792  0.31D-02  0.13D-02  1410.13
    2    10    10     1.10179381    -0.81131026  -239.83464673    -0.81131026    -0.02175154  0.37D-02  0.13D-02  1410.13
    2    11    11     1.10182097    -0.81129846  -239.83463494    -0.81129846    -0.02175891  0.37D-02  0.13D-02  1410.13
    2    12    12     1.10190201    -0.81122425  -239.83456072    -0.81122425    -0.02183813  0.37D-02  0.13D-02  1410.13
    2    13    13     1.10215694    -0.81109111  -239.83442759    -0.81109111    -0.02197595  0.39D-02  0.13D-02  1410.13
    2    14    14     1.10230609    -0.81094404  -239.83428051    -0.81094404    -0.02212245  0.39D-02  0.13D-02  1410.13
    2    15    15     1.10362885    -0.81092499  -239.82671808    -0.81092499    -0.02252498  0.45D-02  0.13D-02  1410.13
    2    16    16     1.10368814    -0.81087570  -239.82666879    -0.81087570    -0.02257405  0.45D-02  0.13D-02  1410.13
    2    17    17     1.10370462    -0.81085190  -239.82664498    -0.81085190    -0.02258655  0.45D-02  0.13D-02  1410.13
    3     1     1     1.09309395    -0.85054555  -240.06771463    -0.02484505    -0.00065587  0.98D-04  0.70D-04  2594.80
    3     2     2     1.09309988    -0.85053936  -240.06770845    -0.02486493    -0.00065967  0.99D-04  0.71D-04  2594.80
    3     3     3     1.09306400    -0.85053421  -240.06770329    -0.02492010    -0.00066252  0.99D-04  0.72D-04  2594.80
    3     4     4     1.09303374    -0.85051048  -240.06767956    -0.02521904    -0.00067927  0.10D-03  0.75D-04  2594.80
    3     5     5     1.09303925    -0.85050409  -240.06767317    -0.02549075    -0.00068622  0.10D-03  0.76D-04  2594.80
    3     6     6     1.09010413    -0.84584550  -240.03997809    -0.02198634    -0.00053171  0.60D-04  0.69D-04  2594.80
    3     7     7     1.09001183    -0.84582998  -240.03996257    -0.02211012    -0.00054180  0.61D-04  0.71D-04  2594.80
    3     8     8     1.08993226    -0.84579634  -240.03992893    -0.02218519    -0.00055947  0.61D-04  0.75D-04  2594.80
    3     9     9     1.08846618    -0.82953167  -239.86996696    -0.01978439    -0.00035115  0.40D-04  0.36D-04  2594.80
    3    10    10     1.08931247    -0.83216897  -239.85550545    -0.02085871    -0.00041504  0.53D-04  0.46D-04  2594.80
    3    11    11     1.08931309    -0.83216727  -239.85550374    -0.02086880    -0.00041606  0.54D-04  0.46D-04  2594.80
    3    12    12     1.08931073    -0.83216119  -239.85549767    -0.02093694    -0.00041950  0.54D-04  0.47D-04  2594.80
    3    13    13     1.08933090    -0.83216067  -239.85549715    -0.02106956    -0.00042367  0.54D-04  0.47D-04  2594.80
    3    14    14     1.08931999    -0.83215072  -239.85548720    -0.02120669    -0.00042947  0.55D-04  0.48D-04  2594.80
    3    15    15     1.08965359    -0.83267132  -239.84846440    -0.02174633    -0.00045492  0.61D-04  0.53D-04  2594.80
    3    16    16     1.08964988    -0.83266841  -239.84846150    -0.02179271    -0.00045703  0.61D-04  0.54D-04  2594.80
    3    17    17     1.08964398    -0.83266133  -239.84845442    -0.02180943    -0.00046033  0.62D-04  0.54D-04  2594.80
    4     1     1     1.09290925    -0.85123802  -240.06840710    -0.00069247    -0.00003935  0.34D-05  0.61D-05  3784.20
    4     2     2     1.09290395    -0.85123672  -240.06840580    -0.00069736    -0.00004021  0.34D-05  0.63D-05  3784.20
    4     3     3     1.09289475    -0.85123605  -240.06840513    -0.00070184    -0.00004063  0.34D-05  0.64D-05  3784.20
    4     4     4     1.09286891    -0.85123253  -240.06840161    -0.00072205    -0.00004267  0.33D-05  0.69D-05  3784.20
    4     5     5     1.09286984    -0.85123231  -240.06840139    -0.00072822    -0.00004281  0.34D-05  0.69D-05  3784.20
    4     6     6     1.09084475    -0.84643160  -240.04056419    -0.00058610    -0.00003826  0.24D-05  0.66D-05  3784.20
    4     7     7     1.09081847    -0.84642917  -240.04056176    -0.00059919    -0.00003983  0.24D-05  0.69D-05  3784.20
    4     8     8     1.09077387    -0.84642225  -240.04055484    -0.00062592    -0.00004413  0.26D-05  0.77D-05  3784.20
    4     9     9     1.08831043    -0.82989867  -239.87033396    -0.00036700    -0.00001678  0.23D-05  0.24D-05  3784.20
    4    10    10     1.08915988    -0.83261336  -239.85594984    -0.00044439    -0.00002582  0.31D-05  0.44D-05  3784.20
    4    11    11     1.08915820    -0.83261335  -239.85594983    -0.00044608    -0.00002562  0.30D-05  0.44D-05  3784.20
    4    12    12     1.08915645    -0.83261303  -239.85594950    -0.00045183    -0.00002575  0.30D-05  0.44D-05  3784.20
    4    13    13     1.08915056    -0.83261133  -239.85594780    -0.00045065    -0.00002650  0.30D-05  0.46D-05  3784.20
    4    14    14     1.08914996    -0.83261087  -239.85594734    -0.00046014    -0.00002687  0.31D-05  0.47D-05  3784.20
    4    15    15     1.08944469    -0.83316758  -239.84896066    -0.00049626    -0.00003019  0.35D-05  0.53D-05  3784.20
    4    16    16     1.08944111    -0.83316715  -239.84896023    -0.00049873    -0.00003040  0.35D-05  0.53D-05  3784.20
    4    17    17     1.08943181    -0.83316511  -239.84895819    -0.00050378    -0.00003141  0.35D-05  0.56D-05  3784.20
    5     1     1     1.09314010    -0.85128481  -240.06845389    -0.00004679    -0.00000278  0.14D-06  0.49D-06  4974.34
    5     2     2     1.09313902    -0.85128466  -240.06845374    -0.00004794    -0.00000287  0.14D-06  0.51D-06  4974.34
    5     3     3     1.09313799    -0.85128458  -240.06845366    -0.00004853    -0.00000292  0.14D-06  0.52D-06  4974.34
    5     4     4     1.09313299    -0.85128412  -240.06845320    -0.00005158    -0.00000324  0.16D-06  0.57D-06  4974.34
    5     5     5     1.09313281    -0.85128404  -240.06845313    -0.00005174    -0.00000325  0.16D-06  0.57D-06  4974.34
    5     6     6     1.09133707    -0.84647885  -240.04061144    -0.00004725    -0.00000296  0.14D-06  0.49D-06  4974.34
    5     7     7     1.09133699    -0.84647862  -240.04061121    -0.00004945    -0.00000313  0.15D-06  0.51D-06  4974.34
    5     8     8     1.09133408    -0.84647786  -240.04061045    -0.00005560    -0.00000368  0.19D-06  0.59D-06  4974.34
    5     9     9     1.08837909    -0.82991879  -239.87035407    -0.00002011    -0.00000140  0.61D-07  0.29D-06  4974.34
    5    10    10     1.08931168    -0.83264622  -239.85598269    -0.00003285    -0.00000265  0.14D-06  0.51D-06  4974.34
    5    11    11     1.08931160    -0.83264613  -239.85598260    -0.00003278    -0.00000268  0.15D-06  0.52D-06  4974.34
    5    12    12     1.08931111    -0.83264606  -239.85598253    -0.00003303    -0.00000272  0.15D-06  0.52D-06  4974.34
    5    13    13     1.08930890    -0.83264565  -239.85598212    -0.00003432    -0.00000293  0.16D-06  0.56D-06  4974.34
    5    14    14     1.08930888    -0.83264558  -239.85598206    -0.00003472    -0.00000295  0.16D-06  0.56D-06  4974.34
    5    15    15     1.08961808    -0.83320623  -239.84899931    -0.00003865    -0.00000307  0.17D-06  0.58D-06  4974.34
    5    16    16     1.08961731    -0.83320614  -239.84899923    -0.00003900    -0.00000312  0.17D-06  0.59D-06  4974.34
    5    17    17     1.08961450    -0.83320578  -239.84899886    -0.00004067    -0.00000336  0.19D-06  0.63D-06  4974.34
    6     1     1     1.09317800    -0.85128826  -240.06845734    -0.00000346    -0.00000025  0.24D-07  0.36D-07  6162.34
    6     2     2     1.09317730    -0.85128825  -240.06845733    -0.00000358    -0.00000026  0.25D-07  0.37D-07  6162.34
    6     3     3     1.09317728    -0.85128824  -240.06845732    -0.00000366    -0.00000027  0.26D-07  0.38D-07  6162.34
    6     4     4     1.09317556    -0.85128819  -240.06845727    -0.00000407    -0.00000030  0.29D-07  0.41D-07  6162.34
    6     5     5     1.09317543    -0.85128813  -240.06845721    -0.00000408    -0.00000030  0.29D-07  0.42D-07  6162.34
    6     6     6     1.09138318    -0.84648255  -240.04061514    -0.00000370    -0.00000023  0.20D-07  0.32D-07  6162.34
    6     7     7     1.09138271    -0.84648253  -240.04061512    -0.00000391    -0.00000024  0.21D-07  0.33D-07  6162.34
    6     8     8     1.09138027    -0.84648245  -240.04061505    -0.00000460    -0.00000029  0.25D-07  0.40D-07  6162.34
    6     9     9     1.08839806    -0.82992073  -239.87035601    -0.00000194    -0.00000017  0.16D-07  0.25D-07  6162.34
    6    10    10     1.08934283    -0.83264980  -239.85598628    -0.00000358    -0.00000029  0.27D-07  0.43D-07  6162.34
    6    11    11     1.08934322    -0.83264978  -239.85598625    -0.00000365    -0.00000029  0.26D-07  0.43D-07  6162.34
    6    12    12     1.08934310    -0.83264977  -239.85598625    -0.00000371    -0.00000030  0.27D-07  0.44D-07  6162.34
    6    13    13     1.08934218    -0.83264968  -239.85598616    -0.00000403    -0.00000033  0.30D-07  0.49D-07  6162.34
    6    14    14     1.08934159    -0.83264964  -239.85598611    -0.00000406    -0.00000034  0.31D-07  0.50D-07  6162.34
    6    15    15     1.08965003    -0.83321029  -239.84900337    -0.00000406    -0.00000032  0.29D-07  0.51D-07  6162.34
    6    16    16     1.08964985    -0.83321028  -239.84900336    -0.00000414    -0.00000033  0.30D-07  0.52D-07  6162.34
    6    17    17     1.08964883    -0.83321027  -239.84900336    -0.00000450    -0.00000037  0.34D-07  0.58D-07  6162.34
    7     1     1     1.09319671    -0.85128855  -240.06845763    -0.00000029    -0.00000002  0.19D-08  0.35D-08  7351.80
    7     2     2     1.09319665    -0.85128855  -240.06845763    -0.00000030    -0.00000002  0.21D-08  0.38D-08  7351.80
    7     3     3     1.09319666    -0.85128855  -240.06845763    -0.00000031    -0.00000002  0.21D-08  0.38D-08  7351.80
    7     4     4     1.09319647    -0.85128853  -240.06845761    -0.00000034    -0.00000003  0.25D-08  0.43D-08  7351.80
    7     5     5     1.09319642    -0.85128847  -240.06845755    -0.00000034    -0.00000003  0.25D-08  0.43D-08  7351.80
    7     6     6     1.09140073    -0.84648281  -240.04061540    -0.00000026    -0.00000002  0.21D-08  0.32D-08  7351.80
    7     7     7     1.09140049    -0.84648281  -240.04061540    -0.00000028    -0.00000002  0.22D-08  0.34D-08  7351.80
    7     8     8     1.09139963    -0.84648279  -240.04061538    -0.00000033    -0.00000003  0.29D-08  0.43D-08  7351.80
    7     9     9     1.08840645    -0.82992093  -239.87035622    -0.00000020    -0.00000002  0.13D-08  0.29D-08  7351.80
    7    10    10     1.08935743    -0.83265014  -239.85598661    -0.00000034    -0.00000003  0.24D-08  0.52D-08  7351.80
    7    11    11     1.08935747    -0.83265012  -239.85598660    -0.00000035    -0.00000003  0.26D-08  0.54D-08  7351.80
    7    12    12     1.08935748    -0.83265012  -239.85598659    -0.00000035    -0.00000003  0.25D-08  0.53D-08  7351.80
    7    13    13     1.08935740    -0.83265007  -239.85598655    -0.00000039    -0.00000004  0.30D-08  0.62D-08  7351.80
    7    14    14     1.08935728    -0.83265004  -239.85598652    -0.00000040    -0.00000004  0.31D-08  0.64D-08  7351.80
    7    15    15     1.08966780    -0.83321072  -239.84900381    -0.00000044    -0.00000004  0.36D-08  0.78D-08  7351.80
    7    16    16     1.08966782    -0.83321068  -239.84900376    -0.00000040    -0.00000004  0.30D-08  0.66D-08  7351.80
    7    17    17     1.08966781    -0.83321068  -239.84900376    -0.00000040    -0.00000004  0.29D-08  0.65D-08  7351.80
    8     1     1     1.09319671    -0.85128855  -240.06845763    -0.00000000    -0.00000002  0.19D-08  0.35D-08  7648.22
    8     2     2     1.09319665    -0.85128855  -240.06845763     0.00000000    -0.00000002  0.21D-08  0.38D-08  7648.22
    8     3     3     1.09319666    -0.85128855  -240.06845763     0.00000000    -0.00000002  0.21D-08  0.38D-08  7648.22
    8     4     4     1.09319647    -0.85128853  -240.06845761     0.00000000    -0.00000003  0.25D-08  0.43D-08  7648.22
    8     5     5     1.09319642    -0.85128847  -240.06845755    -0.00000000    -0.00000003  0.25D-08  0.43D-08  7648.22
    8     6     6     1.09140073    -0.84648281  -240.04061540    -0.00000000    -0.00000002  0.21D-08  0.32D-08  7648.22
    8     7     7     1.09140049    -0.84648281  -240.04061540     0.00000000    -0.00000002  0.22D-08  0.34D-08  7648.22
    8     8     8     1.09139957    -0.84648279  -240.04061538    -0.00000000    -0.00000003  0.29D-08  0.43D-08  7648.22
    8     9     9     1.08840645    -0.82992093  -239.87035622     0.00000000    -0.00000002  0.13D-08  0.29D-08  7648.22
    8    10    10     1.08935743    -0.83265014  -239.85598661     0.00000000    -0.00000003  0.24D-08  0.52D-08  7648.22
    8    11    11     1.08935747    -0.83265012  -239.85598660    -0.00000000    -0.00000003  0.26D-08  0.54D-08  7648.22
    8    12    12     1.08935748    -0.83265012  -239.85598659     0.00000000    -0.00000003  0.25D-08  0.53D-08  7648.22
    8    13    13     1.08935740    -0.83265007  -239.85598655    -0.00000000    -0.00000004  0.30D-08  0.62D-08  7648.22
    8    14    14     1.08935728    -0.83265004  -239.85598652    -0.00000000    -0.00000004  0.31D-08  0.64D-08  7648.22
    8    15    15     1.08966856    -0.83321078  -239.84900387    -0.00000006    -0.00000000  0.23D-09  0.63D-09  7648.22
    8    16    16     1.08966782    -0.83321068  -239.84900376    -0.00000000    -0.00000004  0.30D-08  0.66D-08  7648.22
    8    17    17     1.08966781    -0.83321068  -239.84900376    -0.00000000    -0.00000004  0.29D-08  0.65D-08  7648.22


 =====================================
 Analysis of CPU times by interactions
 =====================================

       I      S      P

 I   0.6%
 S   0.6%   4.7%
 P   0.3%  36.2%  41.1%

 Initialization:   2.8%
 Other:           13.8%

 Total CPU:     7648.2 seconds
 =====================================



 Wavefunction saved on  5102.2

 Reference coefficients greater than 0.0500000
 =============================================
 2222222222//\000           0.4016010   0.0238690  -0.0862111   0.8614243  -0.0108959   0.0000000  -0.0000000  -0.0000000
                            0.0000001   0.0151245   0.0003790   0.0011202   0.0023627  -0.0271013  -0.0000000   0.0000000
                           -0.0000000
 2222222222/\/000           0.8537687   0.0263760  -0.1159069  -0.4103711  -0.0006546   0.0000000   0.0000000  -0.0000000
                            0.0000002   0.0271801  -0.0001091   0.0012186  -0.0016967   0.0150694   0.0000000   0.0000000
                           -0.0000000
 22222222220//00\          -0.0285578  -0.0010563   0.0043583  -0.0022878   0.0001827  -0.0000000   0.0000000  -0.0000000
                            0.5497361   0.7494924   0.0022894   0.0389307  -0.0069423  -0.0120551   0.0000000   0.0000001
                           -0.0000000
 2222222222/20000           0.0039357   0.0053784   0.0023606   0.0067903   0.6750052  -0.0112219   0.0044849   0.6677926
                           -0.0000000   0.0002163   0.0001003   0.0003745   0.0219249   0.0020490  -0.0376182  -0.0000668
                           -0.0004967
 2222222222/02000          -0.0039357  -0.0053784  -0.0023606  -0.0067903  -0.6750051  -0.0112219   0.0044850   0.6677926
                            0.0000000  -0.0002163  -0.0001003  -0.0003745  -0.0219250  -0.0020490  -0.0376183  -0.0000668
                           -0.0004967
 22222222222/0000           0.0968611  -0.3700242   0.5558756   0.0207306   0.0002310  -0.1162522   0.6576763  -0.0063706
                           -0.0000000  -0.0004320   0.0208239   0.0071497  -0.0002435   0.0003244  -0.0002056  -0.0319465
                            0.0198692
 22222222220/2000          -0.0968612   0.3700246  -0.5558762  -0.0207306  -0.0002310  -0.1162520   0.6576753  -0.0063706
                            0.0000000   0.0004320  -0.0208241  -0.0071498   0.0002435  -0.0003244  -0.0002056  -0.0319466
                            0.0198693
 222222222220/000           0.0350457   0.5640460   0.3691759   0.0049031  -0.0060391   0.6576113   0.1163402   0.0102695
                            0.0000000   0.0010591   0.0071681  -0.0207962   0.0003251  -0.0001400  -0.0004570   0.0198702
                            0.0319433
 222222222202/000          -0.0350457  -0.5640466  -0.3691763  -0.0049031   0.0060391   0.6576103   0.1163400   0.0102694
                            0.0000000  -0.0010591  -0.0071682   0.0207962  -0.0003251   0.0001400  -0.0004571   0.0198703
                            0.0319434
 2222222222//0\00           0.0121984   0.0007250  -0.0026186   0.0261654  -0.0003309  -0.0000000  -0.0000000   0.0000000
                            0.5497330  -0.3644845  -0.0091324  -0.0269965  -0.0569378   0.6531105   0.0000001  -0.0000000
                            0.0000002
 2222222222//00\0           0.0001464   0.0002001   0.0000878   0.0002526   0.0251108  -0.0007571   0.0003026   0.0450537
                            0.0000001  -0.0063836  -0.0029615  -0.0110538  -0.6471183  -0.0604765   0.6476126   0.0011499
                            0.0085506
 2222222222/0/\00          -0.0001464  -0.0002001  -0.0000878  -0.0002526  -0.0251107  -0.0007571   0.0003026   0.0450537
                           -0.0000001   0.0063836   0.0029612   0.0110541   0.6471186   0.0604763   0.6476123   0.0011500
                            0.0085507
[...]
                         0.000229656  -0.000205355   0.002592947   0.001516912  -0.003641794  -0.000944403

   36   15.2  0.5 -0.5   0.124813903   0.014958739  -0.145022108  -0.049166382   0.389529856   0.024783310
                         0.500704064  -0.093631723   0.479004112   0.030600608   0.451718045   0.207161124

   37   16.2  0.5 -0.5   0.451810691  -0.037274949   0.163361060   0.073258979  -0.430827683  -0.038165167
                        -0.064556444   0.260172037   0.020258000   0.409024672   0.475845124  -0.194357021

   38   17.2  0.5 -0.5  -0.228238190   0.089063290  -0.201373320  -0.085212644   0.370408160   0.025632547
                         0.134723186   0.449942766  -0.059726005   0.529834894  -0.190661159  -0.376316506


 Composition of spin-orbit eigenvectors
 ======================================

   Nr   State  S   Sz       1        2        3        4        5        6        7        8        9       10

    1    1.2  1.5  1.5  89.147%   3.900%   3.136%   0.086%   1.181%   0.146%   0.046%   0.095%   0.000%   0.000%
    2    1.2  1.5  0.5   3.651%  58.898%   6.158%  27.563%   0.114%   1.197%   0.143%   0.011%   0.000%   0.000%
    3    1.2  1.5 -0.5   0.822%  32.301%   3.470%  59.680%   0.026%   0.121%   0.998%   0.316%   0.000%   0.000%
    4    1.2  1.5 -1.5   2.648%   1.170%  83.510%   8.945%   0.145%   0.001%   0.276%   1.037%   0.000%   0.000%
    5    1.2  0.5  0.5   0.011%   0.012%   0.111%   0.004%   7.934%   4.732%   4.163%  17.643%   5.941%  33.147%
    6    2.2  0.5  0.5   0.010%   0.009%   0.081%   0.039%   5.361%   0.063%   7.180%  21.907%   1.938%  28.098%
    7    3.2  0.5  0.5   0.026%   0.013%   0.059%   0.041%   6.536%   0.002%  11.914%  16.002%   0.070%   6.177%
    8    4.2  0.5  0.5   0.003%   0.081%   0.006%   0.048%   0.628%  23.589%   6.993%   3.211%   2.829%   4.330%
    9    5.2  0.5  0.5   0.029%   0.044%   0.001%   0.063%   3.900%   5.709%  22.036%   2.837%   0.040%  16.055%
   10    6.2  0.5  0.5   0.223%   1.271%   0.146%   0.599%   0.798%   6.534%   0.785%   0.040%   0.000%   0.000%
   11    7.2  0.5  0.5   1.370%   0.495%   0.006%   0.368%   4.007%   1.522%   2.586%   0.025%   0.000%   0.000%
   12    8.2  0.5  0.5   1.612%   0.115%   0.142%   0.370%   5.730%   0.169%   0.570%   1.677%   0.000%   0.000%
   13    9.2  0.5  0.5   0.000%   0.000%   0.000%   0.000%   0.000%   0.000%   0.000%   0.000%   0.000%   0.000%
   14   10.2  0.5  0.5   0.000%   0.000%   0.000%   0.000%   0.000%   0.001%   0.000%   0.002%   0.000%   0.001%
   15   11.2  0.5  0.5   0.000%   0.000%   0.000%   0.000%   0.001%   0.000%   0.001%   0.001%   0.000%   0.000%
   16   12.2  0.5  0.5   0.000%   0.000%   0.000%   0.000%   0.000%   0.000%   0.000%   0.002%   0.000%   0.001%
   17   13.2  0.5  0.5   0.000%   0.000%   0.000%   0.000%   0.000%   0.000%   0.002%   0.000%   0.000%   0.001%
   18   14.2  0.5  0.5   0.000%   0.000%   0.000%   0.000%   0.000%   0.002%   0.001%   0.000%   0.000%   0.000%
   19   15.2  0.5  0.5   0.012%   0.001%   0.001%   0.003%   0.000%   0.000%   0.000%   0.000%   0.000%   0.000%
   20   16.2  0.5  0.5   0.010%   0.003%   0.001%   0.003%   0.000%   0.000%   0.000%   0.000%   0.000%   0.000%
   21   17.2  0.5  0.5   0.002%   0.010%   0.001%   0.004%   0.000%   0.000%   0.000%   0.000%   0.000%   0.000%
   22    1.2  0.5 -0.5   0.100%   0.004%   0.015%   0.020%  22.376%   2.571%   1.391%   8.238%  23.992%   0.900%
   23    2.2  0.5 -0.5   0.081%   0.035%   0.019%   0.005%  21.491%   8.425%   0.653%   4.013%  23.297%   1.646%
   24    3.2  0.5 -0.5   0.064%   0.030%   0.040%   0.005%  15.088%  14.665%   0.418%   4.444%  15.901%   0.208%
   25    4.2  0.5 -0.5   0.022%   0.044%   0.002%   0.071%   2.695%   4.788%  23.380%   3.754%   6.781%   7.581%
   26    5.2  0.5 -0.5   0.003%   0.075%   0.011%   0.051%   0.304%  21.780%   8.222%   4.323%  19.206%   1.853%
   27    6.2  0.5 -0.5   0.025%   0.729%   0.164%   1.319%   0.128%   0.641%   5.575%   1.761%   0.000%   0.000%
   28    7.2  0.5 -0.5   0.021%   0.540%   0.999%   0.677%   0.147%   1.816%   2.224%   3.921%   0.000%   0.000%
   29    8.2  0.5 -0.5   0.108%   0.208%   1.900%   0.022%   1.401%   1.523%   0.440%   4.737%   0.000%   0.000%
   30    9.2  0.5 -0.5   0.000%   0.000%   0.000%   0.000%   0.000%   0.000%   0.000%   0.000%   0.000%   0.000%
   31   10.2  0.5 -0.5   0.000%   0.000%   0.000%   0.000%   0.002%   0.000%   0.000%   0.001%   0.001%   0.000%
   32   11.2  0.5 -0.5   0.000%   0.000%   0.000%   0.000%   0.001%   0.002%   0.000%   0.001%   0.001%   0.000%
   33   12.2  0.5 -0.5   0.000%   0.000%   0.000%   0.000%   0.002%   0.000%   0.000%   0.000%   0.001%   0.000%
   34   13.2  0.5 -0.5   0.000%   0.000%   0.000%   0.000%   0.000%   0.002%   0.001%   0.000%   0.001%   0.000%
   35   14.2  0.5 -0.5   0.000%   0.000%   0.000%   0.000%   0.000%   0.000%   0.002%   0.000%   0.000%   0.000%
   36   15.2  0.5 -0.5   0.001%   0.002%   0.014%   0.000%   0.000%   0.000%   0.000%   0.000%   0.000%   0.000%
   37   16.2  0.5 -0.5   0.000%   0.004%   0.007%   0.005%   0.000%   0.000%   0.000%   0.000%   0.000%   0.000%
   38   17.2  0.5 -0.5   0.000%   0.005%   0.002%   0.010%   0.000%   0.000%   0.000%   0.000%   0.000%   0.000%

   Nr   State  S   Sz      11       12       13       14       15       16       17       18       19       20

    1    1.2  1.5  1.5   0.000%   0.000%   0.000%   0.000%   0.000%   0.000%   0.006%   0.035%   1.943%   0.256%
    2    1.2  1.5  0.5   0.000%   0.000%   0.000%   0.000%   0.000%   0.000%   0.079%   0.876%   0.088%   1.197%
    3    1.2  1.5 -0.5   0.000%   0.000%   0.000%   0.000%   0.000%   0.000%   0.981%   0.510%   0.161%   0.590%
    4    1.2  1.5 -1.5   0.000%   0.000%   0.000%   0.000%   0.000%   0.000%   1.179%   0.820%   0.048%   0.197%
    5    1.2  0.5  0.5   3.827%   0.997%  14.956%   1.204%   0.000%   0.000%   1.257%   3.999%   0.028%   0.028%
    6    2.2  0.5  0.5   2.569%  12.768%   5.695%   8.969%   0.000%   0.000%   2.417%   1.723%   0.133%   1.034%
    7    3.2  0.5  0.5  14.557%  35.359%   1.167%   2.770%   0.000%   0.000%   2.575%   0.871%   0.270%   1.585%
    8    4.2  0.5  0.5  36.990%  12.668%   2.259%   1.054%   0.000%   0.000%   1.325%   0.545%   0.317%   3.118%
    9    5.2  0.5  0.5   1.397%  16.291%  24.824%   1.455%   0.000%   0.000%   1.661%   0.683%   2.559%   0.407%
   10    6.2  0.5  0.5   0.000%   0.000%   0.000%   0.000%  21.161%  12.080%   2.313%  22.787%   2.181%  29.080%
   11    7.2  0.5  0.5   0.000%   0.000%   0.000%   0.000%  11.877%  21.429%   4.841%   1.107%  49.822%   0.541%
   12    8.2  0.5  0.5   0.000%   0.000%   0.000%   0.000%  12.205%  21.072%   7.486%   5.927%  25.421%  17.502%
   13    9.2  0.5  0.5   0.000%   0.000%   0.000%   0.000%   0.003%   0.002%   0.000%   0.000%   0.000%   0.000%
   14   10.2  0.5  0.5   0.000%   0.000%   0.000%   0.000%   0.000%   0.000%   0.000%   0.001%   0.000%   0.000%
   15   11.2  0.5  0.5   0.000%   0.001%   0.000%   0.000%   0.000%   0.000%   0.000%   0.000%   0.000%   0.000%
   16   12.2  0.5  0.5   0.000%   0.000%   0.000%   0.000%   0.000%   0.000%   0.000%   0.000%   0.000%   0.000%
   17   13.2  0.5  0.5   0.000%   0.001%   0.001%   0.000%   0.000%   0.000%   0.000%   0.000%   0.000%   0.000%
   18   14.2  0.5  0.5   0.001%   0.000%   0.000%   0.000%   0.000%   0.000%   0.000%   0.000%   0.000%   0.001%
   19   15.2  0.5  0.5   0.000%   0.000%   0.000%   0.000%   0.000%   0.001%   0.000%   0.000%   0.000%   0.000%
   20   16.2  0.5  0.5   0.000%   0.000%   0.000%   0.000%   0.001%   0.001%   0.000%   0.000%   0.000%   0.000%
   21   17.2  0.5  0.5   0.000%   0.000%   0.000%   0.000%   0.001%   0.001%   0.000%   0.000%   0.000%   0.000%
   22    1.2  0.5 -0.5  12.181%   7.434%   9.404%   6.024%   0.000%   0.000%   0.623%   0.170%   2.706%   1.843%
   23    2.2  0.5 -0.5   4.684%   5.972%   6.839%  17.494%   0.000%   0.000%   0.079%   1.007%   3.653%   0.601%
   24    3.2  0.5 -0.5   5.962%   5.056%   8.911%  23.865%   0.000%   0.000%   0.036%   3.286%   1.140%   0.874%
   25    4.2  0.5 -0.5   3.410%   2.251%  25.500%  14.389%   0.000%   0.000%   1.829%   0.697%   2.203%   0.598%
   26    5.2  0.5 -0.5  14.420%   1.200%   0.441%  22.771%   0.000%   0.000%   1.473%   0.322%   0.319%   3.221%
   27    6.2  0.5 -0.5   0.000%   0.000%   0.000%   0.000%  12.261%  21.147%  25.492%  11.363%   4.277%  15.115%
   28    7.2  0.5 -0.5   0.000%   0.000%   0.000%   0.000%  21.469%  11.913%  28.886%   3.439%   2.425%  21.520%
   29    8.2  0.5 -0.5   0.000%   0.000%   0.000%   0.000%  21.019%  12.352%  15.459%  39.832%   0.303%   0.693%
   30    9.2  0.5 -0.5   0.000%   0.000%   0.000%   0.000%   0.001%   0.003%   0.000%   0.000%   0.000%   0.000%
   31   10.2  0.5 -0.5   0.000%   0.000%   0.001%   0.000%   0.000%   0.000%   0.000%   0.000%   0.000%   0.000%
   32   11.2  0.5 -0.5   0.000%   0.000%   0.000%   0.001%   0.000%   0.000%   0.000%   0.001%   0.000%   0.000%
   33   12.2  0.5 -0.5   0.000%   0.000%   0.000%   0.001%   0.000%   0.000%   0.000%   0.000%   0.001%   0.000%
   34   13.2  0.5 -0.5   0.001%   0.000%   0.000%   0.001%   0.000%   0.000%   0.000%   0.000%   0.000%   0.001%
   35   14.2  0.5 -0.5   0.000%   0.000%   0.001%   0.001%   0.000%   0.000%   0.000%   0.000%   0.000%   0.000%
   36   15.2  0.5 -0.5   0.000%   0.000%   0.000%   0.000%   0.001%   0.000%   0.000%   0.000%   0.000%   0.000%
   37   16.2  0.5 -0.5   0.000%   0.000%   0.000%   0.000%   0.001%   0.001%   0.000%   0.000%   0.000%   0.000%
   38   17.2  0.5 -0.5   0.000%   0.000%   0.000%   0.000%   0.001%   0.001%   0.000%   0.000%   0.000%   0.000%

   Nr   State  S   Sz      21       22       23       24       25       26       27       28       29       30

    1    1.2  1.5  1.5   0.000%   0.000%   0.000%   0.000%   0.000%   0.000%   0.000%   0.000%   0.000%   0.000%
    2    1.2  1.5  0.5   0.000%   0.000%   0.000%   0.000%   0.000%   0.000%   0.000%   0.000%   0.000%   0.000%
    3    1.2  1.5 -0.5   0.000%   0.000%   0.000%   0.000%   0.000%   0.000%   0.000%   0.000%   0.000%   0.000%
    4    1.2  1.5 -1.5   0.000%   0.000%   0.000%   0.000%   0.000%   0.000%   0.000%   0.000%   0.000%   0.000%
    5    1.2  0.5  0.5   0.000%   0.000%   0.000%   0.000%   0.001%   0.002%   0.001%   0.001%   0.000%   0.000%
    6    2.2  0.5  0.5   0.000%   0.000%   0.001%   0.001%   0.002%   0.000%   0.000%   0.000%   0.000%   0.000%
    7    3.2  0.5  0.5   0.000%   0.000%   0.001%   0.001%   0.001%   0.000%   0.000%   0.000%   0.000%   0.000%
    8    4.2  0.5  0.5   0.000%   0.000%   0.000%   0.000%   0.002%   0.002%   0.001%   0.001%   0.000%   0.000%
    9    5.2  0.5  0.5   0.000%   0.000%   0.003%   0.001%   0.000%   0.000%   0.000%   0.000%   0.000%   0.002%
   10    6.2  0.5  0.5   0.000%   0.000%   0.000%   0.000%   0.000%   0.000%   0.000%   0.000%   0.000%   0.000%
   11    7.2  0.5  0.5   0.000%   0.000%   0.000%   0.000%   0.000%   0.000%   0.000%   0.000%   0.000%   0.000%
   12    8.2  0.5  0.5   0.000%   0.000%   0.000%   0.000%   0.000%   0.000%   0.000%   0.000%   0.000%   0.000%
   13    9.2  0.5  0.5   1.126%  80.969%   0.000%   0.000%   0.000%   0.000%   0.000%   0.000%   0.000%   0.000%
   14   10.2  0.5  0.5   0.000%   0.000%   0.384%   1.078%  16.581%  20.974%  45.194%  11.633%   2.928%   0.150%
   15   11.2  0.5  0.5   0.000%   0.000%  19.620%  10.697%   8.560%   0.643%   1.112%   0.754%   1.638%   0.703%
   16   12.2  0.5  0.5   0.000%   0.000%   4.160%   3.433%  28.122%   3.784%   8.644%   5.942%   2.072%   0.261%
   17   13.2  0.5  0.5   0.000%   0.000%  30.001%   6.837%   1.439%   0.963%   2.013%   0.451%   7.729%  44.585%
   18   14.2  0.5  0.5   0.000%   0.000%   4.385%   0.604%  17.221%  16.927%  12.343%  40.529%   0.921%   2.825%
   19   15.2  0.5  0.5   5.986%   0.102%   0.146%   0.918%   0.109%   0.000%   0.000%   0.000%   0.001%   0.001%
   20   16.2  0.5  0.5   4.274%   1.692%   0.299%   0.539%   0.030%   0.294%   0.000%   0.001%   0.001%   0.001%
   21   17.2  0.5  0.5   1.715%   4.249%   0.150%   0.214%   0.056%   0.740%   0.000%   0.001%   0.001%   0.001%
   22    1.2  0.5 -0.5   0.000%   0.000%   0.000%   0.003%   0.000%   0.000%   0.000%   0.000%   0.002%   0.000%
   23    2.2  0.5 -0.5   0.000%   0.000%   0.000%   0.003%   0.000%   0.001%   0.000%   0.000%   0.001%   0.000%
   24    3.2  0.5 -0.5   0.000%   0.000%   0.000%   0.001%   0.000%   0.002%   0.001%   0.000%   0.000%   0.000%
   25    4.2  0.5 -0.5   0.000%   0.000%   0.003%   0.000%   0.000%   0.000%   0.000%   0.000%   0.000%   0.002%
   26    5.2  0.5 -0.5   0.000%   0.000%   0.000%   0.000%   0.002%   0.002%   0.000%   0.001%   0.000%   0.000%
   27    6.2  0.5 -0.5   0.000%   0.000%   0.000%   0.000%   0.000%   0.000%   0.000%   0.000%   0.000%   0.000%
   28    7.2  0.5 -0.5   0.000%   0.000%   0.000%   0.000%   0.000%   0.000%   0.000%   0.000%   0.000%   0.000%
   29    8.2  0.5 -0.5   0.000%   0.000%   0.000%   0.000%   0.000%   0.000%   0.000%   0.000%   0.000%   0.000%
   30    9.2  0.5 -0.5  80.859%   1.127%   0.000%   0.000%   0.000%   0.000%   0.000%   0.000%   0.000%   0.000%
   31   10.2  0.5 -0.5   0.000%   0.000%   4.495%  31.057%   3.617%   0.023%   0.379%   2.267%  43.650%   3.077%
   32   11.2  0.5 -0.5   0.000%   0.000%   0.315%   4.500%   1.559%  33.129%  19.676%   1.464%   4.580%   0.687%
   33   12.2  0.5 -0.5   0.000%   0.000%   0.747%  32.859%   1.660%   4.008%   2.847%   3.084%  36.047%   1.015%
   34   13.2  0.5 -0.5   0.000%   0.000%   4.154%   0.700%  17.815%  16.629%   6.899%  32.297%   0.330%   1.495%
   35   14.2  0.5 -0.5   0.000%   0.000%  29.992%   6.468%   1.662%   1.165%   0.889%   1.571%   0.097%  45.194%
   36   15.2  0.5 -0.5   0.100%   5.866%   0.018%   0.038%   0.460%   0.655%   0.000%   0.000%   0.000%   0.002%
   37   16.2  0.5 -0.5   1.691%   4.278%   0.378%   0.028%   0.726%   0.034%   0.000%   0.001%   0.000%   0.000%
   38   17.2  0.5 -0.5   4.247%   1.715%   0.747%   0.018%   0.374%   0.023%   0.000%   0.000%   0.000%   0.000%

   Nr   State  S   Sz      31       32       33       34       35       36       37       38

    1    1.2  1.5  1.5   0.000%   0.000%   0.000%   0.000%   0.002%   0.006%   0.000%   0.015%
    2    1.2  1.5  0.5   0.000%   0.000%   0.000%   0.000%   0.021%   0.001%   0.001%   0.001%
    3    1.2  1.5 -0.5   0.000%   0.000%   0.000%   0.000%   0.000%   0.016%   0.000%   0.007%
    4    1.2  1.5 -1.5   0.000%   0.000%   0.000%   0.000%   0.001%   0.000%   0.022%   0.001%
    5    1.2  0.5  0.5   0.000%   0.000%   0.000%   0.000%   0.000%   0.000%   0.000%   0.000%
    6    2.2  0.5  0.5   0.001%   0.001%   0.000%   0.000%   0.000%   0.000%   0.000%   0.000%
    7    3.2  0.5  0.5   0.001%   0.001%   0.000%   0.000%   0.000%   0.000%   0.000%   0.000%
    8    4.2  0.5  0.5   0.000%   0.000%   0.000%   0.000%   0.000%   0.000%   0.000%   0.000%
    9    5.2  0.5  0.5   0.000%   0.000%   0.000%   0.000%   0.000%   0.000%   0.000%   0.000%
   10    6.2  0.5  0.5   0.000%   0.000%   0.002%   0.000%   0.000%   0.000%   0.000%   0.000%
   11    7.2  0.5  0.5   0.000%   0.000%   0.000%   0.002%   0.000%   0.000%   0.000%   0.000%
   12    8.2  0.5  0.5   0.000%   0.000%   0.000%   0.002%   0.000%   0.000%   0.000%   0.000%
   13    9.2  0.5  0.5   0.000%   0.000%  17.423%   0.475%   0.000%   0.000%   0.000%   0.000%
   14   10.2  0.5  0.5   0.338%   0.086%   0.000%   0.000%   0.252%   0.006%   0.359%   0.031%
   15   11.2  0.5  0.5  37.496%  18.042%   0.000%   0.001%   0.015%   0.146%   0.111%   0.457%
   16   12.2  0.5  0.5  16.981%  25.819%   0.001%   0.000%   0.012%   0.013%   0.652%   0.098%
   17   13.2  0.5  0.5   3.944%   1.292%   0.000%   0.000%   0.035%   0.695%   0.002%   0.007%
   18   14.2  0.5  0.5   1.600%   1.965%   0.001%   0.000%   0.386%   0.023%   0.259%   0.004%
   19   15.2  0.5  0.5   0.000%   0.001%   0.818%  25.392%   3.915%   0.101%   1.232%  61.261%
   20   16.2  0.5  0.5   0.000%   0.000%   6.659%  20.764%  26.475%  28.694%   1.545%   8.716%
   21   17.2  0.5  0.5   0.000%   0.000%  20.132%   6.988%  35.674%  23.041%   1.300%   5.721%
   22    1.2  0.5 -0.5   0.000%   0.000%   0.000%   0.000%   0.000%   0.000%   0.000%   0.000%
   23    2.2  0.5 -0.5   0.000%   0.000%   0.000%   0.000%   0.000%   0.000%   0.000%   0.000%
   24    3.2  0.5 -0.5   0.000%   0.001%   0.000%   0.000%   0.000%   0.000%   0.000%   0.000%
   25    4.2  0.5 -0.5   0.000%   0.000%   0.000%   0.000%   0.000%   0.000%   0.000%   0.000%
   26    5.2  0.5 -0.5   0.000%   0.000%   0.000%   0.000%   0.000%   0.000%   0.000%   0.000%
   27    6.2  0.5 -0.5   0.000%   0.000%   0.000%   0.002%   0.000%   0.000%   0.000%   0.000%
   28    7.2  0.5 -0.5   0.000%   0.000%   0.002%   0.000%   0.000%   0.000%   0.000%   0.000%
   29    8.2  0.5 -0.5   0.000%   0.000%   0.002%   0.000%   0.000%   0.000%   0.000%   0.000%
   30    9.2  0.5 -0.5   0.000%   0.000%   0.475%  17.527%   0.000%   0.000%   0.000%   0.006%
   31   10.2  0.5 -0.5   8.762%   1.983%   0.000%   0.000%   0.033%   0.004%   0.010%   0.635%
   32   11.2  0.5 -0.5   9.650%  23.686%   0.000%   0.000%   0.579%   0.013%   0.049%   0.105%
   33   12.2  0.5 -0.5   8.885%   8.122%   0.000%   0.000%   0.081%   0.190%   0.022%   0.427%
   34   13.2  0.5 -0.5   5.205%  13.814%   0.000%   0.000%   0.334%   0.028%   0.289%   0.004%
   35   14.2  0.5 -0.5   7.132%   5.183%   0.000%   0.000%   0.015%   0.619%   0.007%   0.001%
   36   15.2  0.5 -0.5   0.000%   0.000%  26.628%   0.899%  25.048%   0.335%  35.578%   4.353%
   37   16.2  0.5 -0.5   0.002%   0.002%  20.830%   6.908%   2.710%  17.267%  41.204%   3.923%
   38   17.2  0.5 -0.5   0.001%   0.001%   7.024%  21.038%   4.412%  28.799%  17.355%  14.227%


 Property matrices transformed in SO basis (not sym. adapted)
 ============================================================

 No matrix element <i|DMX|i> larger than 5E-7
 No matrix element <i|DMX|1> larger than 5E-7

 No matrix element <i|DMY|i> larger than 5E-7
 No matrix element <i|DMY|1> larger than 5E-7

 No matrix element <i|DMZ|i> larger than 5E-7
 No matrix element <i|DMZ|1> larger than 5E-7


 **********************************************************************************************************************************
 DATASETS  * FILE   NREC   LENGTH (MB)   RECORD NAMES
              1      21       52.36       500      610      700      900      950      970     1000      129      960     1100   
                                          VAR    BASINP    GEOM    SYMINP    ZMAT    AOBASIS   BASIS     P2S    ABASIS      S 
                                         1400     1410     1420     1200     1210     1080     1700     1600     1650     1380   
                                           T        V       ECP      H0       H01     AOSYM    OPER      SMH    MOLCAS    JKOP   
                                         1700(1)
                                         OPER   

              2       6     4120.38       700     1000      520     2140     5302     5102   
                                         GEOM     BASIS   MCVARS    MCSCF    MRCI     MRCI   

 PROGRAMS   *        TOTAL        CI        CI        CI     MULTI       INT
 CPU TIMES  *   1219792.271208041.96  11678.73     62.72      5.39      3.09
 REAL TIME  *   1227635.97 SEC
 DISK USED  *         4.08 GB (local),      130.58 GB (total)
 SF USED    *        40.25 GB
 GA USED    *         0.00 MB       (max)       0.00 MB       (current)
 **********************************************************************************************************************************

 CI/aug-cc-pWCVQZ-PP energy=   -239.921956415786

              CI              CI           MULTI
   -239.84900376   -240.11833858   -239.02333648
 **********************************************************************************************************************************
 Molpro calculation terminated with 1 warning(s)
