
 Working directory              : /wrk/irikura/molpro.D22lt1ZzH3/
 Global scratch directory       : /wrk/irikura/molpro.D22lt1ZzH3/
 Wavefunction directory         : /home/irikura/wfu/
 Main file repository           : /wrk/irikura/molpro.D22lt1ZzH3/

 id        : nistki

 Nodes            nprocs
 pn125343.nist.gov   16
 GA implementation: MPI file
 GA implementation (serial work in mppx): MPI file

 Using customized tuning parameters: mindgm=1; mindgv=20; mindgc=4; mindgr=1; noblas=0; minvec=7
 default implementation of scratch files=sf  


 Variables initialized (1025), CPU time= 0.00 sec
 ***,Co atom, default active space/core
                                                                                 ! 4F + 4F + 4P
 memory,1000,M;
 
 gprint,orbitals,civector
 
 symmetry,xyz
 geometry={Co}
 
 basis=cc-pwCVTZ-DK
 
 set,dkho=101
 
                                                                                 ! Co anion orbitals to favor s2 (?)
 {rhf,so-sci;wf,nelec=28,sym=1, spin=2}
 
                                                                                 ! state-averaged casscf
 {multi
                                                                                 ! 17 quartets
     wf,nelec=27,sym=1,spin=3; state,17;
     expec2,lxx,lyy,lzz;
  }
 table, energy, ll
 title, Energies and &lt;L**2&gt; values
 
 {ci;wf,sym=1,spin=3; state,17;save,5101.2}
 hlsdiag = energd4
                                                                                 !{ci;wf,sym=1,spin=2;state,7;save,5102.2}
                                                                                 !hlsdiag(13) = energd4
 
 table, hlsdiag
 
                                                                                 !compute and diagonalize SO matrix
                                                                                 !{ci;hlsmat,ls,5101.2,5102.2;print,vls=0,hls=0}
 {ci;hlsmat,ls,5101.2;print,vls=0,hls=0}
 
 Commands initialized (840), CPU time= 0.02 sec, 684 directives.
 Default parameters read. Elapsed time= 0.09 sec

 Checking input...
 Passed
1


                                         ***  PROGRAM SYSTEM MOLPRO  ***
                                       Copyright, TTI GmbH Stuttgart, 2015
                                    Version 2022.3 linked Wed Nov 30 06:40:34 2022


 **********************************************************************************************************************************
 LABEL *   Co atolt activcore                                                            
  64 bit mpp version                                                                     DATE: 30-Jan-24          TIME: 12:02:13  
 **********************************************************************************************************************************

 SHA1:             e31ec9a5ea85254ab76f59d122cbdd51c71cf98b
 **********************************************************************************************************************************

 Memory per process:      1000 MW
 Total memory per node:  16000 MW

 GA preallocation disabled
 GA check disabled

 Variable memory set to 1000.0 MW


 ZSYMEL=XYZ

 SETTING BASIS          =    CC-PWCVTZ-DK
 SETTING DKHO           =       101.00000000                                  


 Recomputing integrals since basis changed


 Using spherical harmonics

 Library entry CO     S cc-pwCVTZ-DK         selected for orbital group  1
 Library entry CO     P cc-pwCVTZ-DK         selected for orbital group  1
 Library entry CO     D cc-pwCVTZ-DK         selected for orbital group  1
 Library entry CO     F cc-pwCVTZ-DK         selected for orbital group  1
 Library entry CO     G cc-pwCVTZ-DK         selected for orbital group  1


 PROGRAM * SEWARD (Integral evaluation for generally contracted gaussian basis sets)     Author: Roland Lindh, 1990

 Geometry written to block  1 of record 700

 Orientation using atomic masses  
 Molecule type: Atom
 User-specified symmetry elements: XYZ
 Symmetry elements: XYZ
 Rotational constants:       0.0000000      0.0000000      0.0000000 GHz  (calculated with average atomic masses)

 Point group  Ci  



 ATOMIC COORDINATES

 NR  ATOM    CHARGE       X              Y              Z

   1  CO     27.00    0.000000000    0.000000000    0.000000000

 NUCLEAR CHARGE:                   27
 NUMBER OF PRIMITIVE AOS:         196
 NUMBER OF SYMMETRY AOS:          165
 NUMBER OF CONTRACTIONS:          102   (   57Ag  +   45Au  )
 NUMBER OF INNER CORE ORBITALS:     5   (    2Ag  +    3Au  )
 NUMBER OF OUTER CORE ORBITALS:     4   (    1Ag  +    3Au  )
 NUMBER OF VALENCE ORBITALS:        6   (    6Ag  +    0Au  )


 NUCLEAR REPULSION ENERGY    0.00000000

 One-electron integrals computed with SEWARD

 eXact-2-Component (X2C) method activated

 Computing Douglas-Kroll / X2C integrals

 AO integral compression algorithm  1   Integral accuracy      1.0D-11

     17.564 MB (compressed) written to integral file ( 16.0%)

     Node minimum: 0.524 MB, node maximum: 1.835 MB


 NUMBER OF SORTED TWO-ELECTRON INTEGRALS:     436352.     BUFFER LENGTH:  32768
 NUMBER OF SEGMENTS:   1  SEGMENT LENGTH:     436352      RECORD LENGTH: 524288

 Memory used in sort:       0.99 MW

 SORT1 READ    12883698. AND WROTE       84089. INTEGRALS IN      1 RECORDS. CPU TIME:     0.06 SEC, REAL TIME:     0.07 SEC
 SORT2 READ     1353984. AND WROTE     7035726. INTEGRALS IN     80 RECORDS. CPU TIME:     0.01 SEC, REAL TIME:     0.02 SEC

 Node minimum:      435684.  Node maximum:      442156. integrals

 OPERATOR DM      FOR CENTER  0  COORDINATES:    0.000000    0.000000    0.000000

 EXTRA SYMMETRY OF AOS IN SYMMETRY 1:   1 1 1 1 1 1 1 1 1 2   3 4 5 6 2 3 4 5 6 2   3 4 5 6 2 3 4 5 6 2   3 4 5 6 2 3 4 5 6 7
                                        8 9101112131415 7 8   9101112131415
 EXTRA SYMMETRY OF AOS IN SYMMETRY 2:   1 2 3 1 2 3 1 2 3 1   2 3 1 2 3 1 2 3 1 2   3 1 2 3 4 5 6 7 8 9  10 4 5 6 7 8 910 4 5
                                        6 7 8 910

 Eigenvalues of metric

         1 0.366E-03 0.267E-02 0.154E-01 0.154E-01 0.154E-01 0.154E-01 0.154E-01 0.248E-01
         2 0.242E-03 0.242E-03 0.242E-03 0.177E-02 0.177E-02 0.177E-02 0.125E+00 0.125E+00


 **********************************************************************************************************************************
 DATASETS  * FILE   NREC   LENGTH (MB)   RECORD NAMES
              1      22       29.06       500      610      700      900      950      970     1000      129      960     1700   
                                          VAR    BASINP    GEOM    SYMINP    ZMAT    AOBASIS   BASIS     P2S    ABASIS    OPER   
                                         1101     1401     1411     1412     1650     1100     1400     1410     1200     1210   
                                          SR      EKINR    POTR     PVPR    MOLCAS      S      EKIN      POT      H0       H01  
                                         1080     1600   
                                         AOSYM     SMH  

 PROGRAMS   *        TOTAL       INT
 CPU TIMES  *         1.07      0.88
 REAL TIME  *         1.69 SEC
 DISK USED  *        29.34 MB (local),      542.57 MB (total)
 GA USED    *         0.00 MB       (max)       0.00 MB       (current)
 **********************************************************************************************************************************


 Program * Restricted Hartree-Fock

 Orbital guess generated from atomic densities. Full valence occupancy:    9   6

 Initial alpha occupancy:   9   6
 Initial beta  occupancy:   7   6
 
 SO-SCI SOLVER WITH NELEC=28 SYM=1 MS2=2 THRE=1.0D-08 THRG=3.2D-06
 
 Authors: D.A. Kreplin, H.-J. Werner (2022)
 
 Number of closed-shell orbitals:                13   (    7    6)
 Number of singly occupied active orbitals:       2   (    2    0)
 Number of virtual orbitals:                     87   (   48   39)
 
 ITER.  MIC  NCI          ENERGY    ENERGY CHANGE          GRAD      ORB GRAD        CI RES  NQN        STEP      TIME
    1    1    0   -1390.91468015   -1390.91468015    2.40142143    2.40142143    0.00000000    0    0.56E+00      0.04
    2    1    0   -1391.18766591      -0.27298577    2.43347885    2.43347885    0.00000000    0    0.39E+00      0.07
    3    1    0   -1391.23683850      -0.04917259    2.29875182    2.29875182    0.00000000    0    0.45E+00      0.11
    4    1    0   -1391.15476448       0.08207402    2.43337111    2.43337111    0.00000000    0    0.40E+00      0.15
    5    2    0   -1391.30895029      -0.15418581    2.15334045    2.15334045    0.00000000    1    0.36E+00      0.24
    6    2    0   -1391.47494473      -0.16599444    1.39520997    1.39520997    0.00000000    1    0.37E+00      0.29
    7    1    0   -1391.60567031      -0.13072558    0.68557517    0.68557517    0.00000000    2    0.49E+00      0.33
    8    1    0   -1391.71561792      -0.10994760    0.37032358    0.37032358    0.00000000    3    0.30E+00      0.37
    9    1    0   -1391.76382099      -0.04820307    0.45647199    0.45647199    0.00000000    4    0.12E+00      0.40
   10    1    0   -1391.77747997      -0.01365899    0.38753651    0.38753651    0.00000000    5    0.62E-01      0.44
   11    1    0   -1391.78177897      -0.00429900    0.35124222    0.35124222    0.00000000    6    0.32E-01      0.47
   12    2    0   -1391.78553316      -0.00375419    0.29252556    0.29252556    0.00000000    7    0.49E-01      0.51
   13    2    0   -1391.79185795      -0.00632479    0.18270304    0.18270304    0.00000000    8    0.47E-01      0.55
   14    2    0   -1391.79640155      -0.00454361    0.07936710    0.07936710    0.00000000    9    0.44E-01      0.58
   15    3    0   -1391.79841577      -0.00201421    0.02118661    0.02118661    0.00000000   10    0.60E-01      0.63
   16    2    0   -1391.79877066      -0.00035489    0.01603019    0.01603019    0.00000000   10    0.10E+00      0.66
   17    2    0   -1391.79879309      -0.00002244    0.02152468    0.02152468    0.00000000   10    0.57E-01      0.70
   18    3    0   -1391.79882258      -0.00002949    0.00172491    0.00172491    0.00000000   10    0.59E-02      0.75
   19    2    0   -1391.79882334      -0.00000076    0.00106755    0.00106755    0.00000000   10    0.62E-02      0.80
   20    3    0   -1391.79882337      -0.00000003    0.00121314    0.00121314    0.00000000   10    0.36E-02      0.85
   21    2    0   -1391.79882347      -0.00000010    0.00017916    0.00017916    0.00000000   10    0.13E-03      0.88
   22    2    0   -1391.79882347      -0.00000001    0.00009208    0.00009208    0.00000000   10    0.12E-03      0.92
   23    2    0   -1391.79882347      -0.00000000    0.00001330    0.00001330    0.00000000   10    0.29E-04      0.96
   24    2    0   -1391.79882347      -0.00000000    0.00000716    0.00000716    0.00000000   10    0.54E-04      0.99
   25    2    0   -1391.79882347      -0.00000000    0.00001282    0.00001282    0.00000000   10    0.40E-04      1.03

 CONVERGENCE REACHED!  Final gradient:     0.00000196 ( 0.20E-05)
                       Final energy:   -1391.79882347
 

 Final alpha occupancy:   9   6
 Final beta  occupancy:   7   6

 !RHF STATE 1.1 Energy              -1391.798823474099
  RHF One-electron energy           -1938.323825243300
  RHF Two-electron energy             546.525001769201
  RHF Kinetic energy                 1454.671992211329
  RHF Nuclear energy                    0.000000000000
  RHF Virial quotient                  -0.956778456536

 !RHF STATE 1.1 Dipole moment           0.00000000     0.00000000     0.00000000
 Dipole moment /Debye                   0.00000000     0.00000000     0.00000000

 ELECTRON ORBITALS
 =================

  Orbital  Occupation    Energy    Cen Mu Typ  Coefficients
    1.1     2.00000  -285.35294     1  1  s    0.97812
    2.1     2.00000   -35.02558     1  2  s    0.99666
    3.1     2.00000    -4.19029     1  3  s    0.99060
    4.1     2.00000    -0.18856     1  1  d2+  0.99144
    5.1     2.00000    -0.18856     1  1  d1+  0.86780    1  1  d1- -0.48215
    6.1     2.00000    -0.18856     1  1  d1+  0.48225    1  1  d1-  0.86649
    7.1     2.00000    -0.00831     1  7  s    1.23323
    8.1     1.00000    -0.26742     1  1  d2-  0.99601
    9.1     1.00000    -0.26742     1  1  d0  -0.99612
    1.2     2.00000   -29.79843     1  1  py   0.30867    1  1  pz   0.95073
    2.2     2.00000   -29.79843     1  1  px   0.99771
    3.2     2.00000   -29.79843     1  1  py   0.94991    1  1  pz  -0.30653
    4.2     2.00000    -2.61047     1  2  pz   0.99557
    5.2     2.00000    -2.61047     1  2  px   0.99061
    6.2     2.00000    -2.61047     1  2  py   0.99033


 HOMO      9.1    -0.267420 =      -7.2769eV
 LUMO      7.2     0.209764 =       5.7080eV
 LUMO-HOMO         0.477184 =      12.9848eV

 Orbitals saved in record  2100.2


 **********************************************************************************************************************************
 DATASETS  * FILE   NREC   LENGTH (MB)   RECORD NAMES
              1      23       29.33       500      610      700      900      950      970     1000      129      960     1700   
                                          VAR    BASINP    GEOM    SYMINP    ZMAT    AOBASIS   BASIS     P2S    ABASIS    OPER   
                                         1101     1401     1411     1412     1650     1100     1400     1410     1200     1210   
                                          SR      EKINR    POTR     PVPR    MOLCAS      S      EKIN      POT      H0       H01  
                                         1080     1600     1380   
                                         AOSYM     SMH     JKOP   

              2       4        0.50       700     1000      520     2100   
                                         GEOM     BASIS   MCVARS     RHF  

 PROGRAMS   *        TOTAL   RHF-SCF       INT
 CPU TIMES  *         2.03      0.96      0.88
 REAL TIME  *         2.75 SEC
 DISK USED  *        29.88 MB (local),      551.17 MB (total)
 SF USED    *         1.28 MB
 GA USED    *         0.00 MB       (max)       0.00 MB       (current)
 **********************************************************************************************************************************

 PROGRAM * MULTI (Direct Multiconfiguration SCF)       Authors: P.J. Knowles, H.-J. Werner (1984)
                                                                D.A. Kreplin, P.J. Knowles, H.-J. Werner (2019)


 Number of closed-shell orbitals:   9 (    3    6)
 Number of active  orbitals:        6 (    6    0)
 Number of external orbitals:      87 (   48   39)

 State symmetry 1

 Number of active electrons:   9    Spin symmetry=Quartet   Space symmetry=1
 Number of states:            17
 Number of CSFs:              20   (20 determinants, 20 intermediate states)

 Molecular orbitals read from record     2100.2  Type=RHF/CANONICAL (state 1.1)
 *** IN SYMMETRY 1 ORBITAL  2 SYMMETRY CONTAMINATION OF 0.209D-03 HAS BEEN REMOVED
 *** IN SYMMETRY 1 ORBITAL  3 SYMMETRY CONTAMINATION OF 0.141D-02 HAS BEEN REMOVED
 *** IN SYMMETRY 1 ORBITAL  4 SYMMETRY CONTAMINATION OF 0.747D-01 HAS BEEN REMOVED
 *** IN SYMMETRY 1 ORBITAL  5 SYMMETRY CONTAMINATION OF 0.371D+00 HAS BEEN REMOVED
 *** IN SYMMETRY 1 ORBITAL  6 SYMMETRY CONTAMINATION OF 0.384D+00 HAS BEEN REMOVED
 *** IN SYMMETRY 1 ORBITAL  7 SYMMETRY CONTAMINATION OF 0.150D-03 HAS BEEN REMOVED
 *** IN SYMMETRY 1 ORBITAL  8 SYMMETRY CONTAMINATION OF 0.542D-01 HAS BEEN REMOVED
 *** IN SYMMETRY 1 ORBITAL  9 SYMMETRY CONTAMINATION OF 0.463D-01 HAS BEEN REMOVED

 EXTRA SYMMETRY OF MOS IN SYMMETRY 1:   1 1 1 5 4 6 1 3 2 1   2 3 5 4 6 1 3 2 5 4   6 1 3 2 5 4 6 7 911  13 810121415 1 2 3 4
                                        6 5 7 91113 8101214  15 2 3 4 6 5 1
 *** IN SYMMETRY 2 ORBITAL  1 SYMMETRY CONTAMINATION OF 0.263D+00 HAS BEEN REMOVED
 *** IN SYMMETRY 2 ORBITAL  2 SYMMETRY CONTAMINATION OF 0.884D-01 HAS BEEN REMOVED
 *** IN SYMMETRY 2 ORBITAL  3 SYMMETRY CONTAMINATION OF 0.280D+00 HAS BEEN REMOVED
 *** IN SYMMETRY 2 ORBITAL  4 SYMMETRY CONTAMINATION OF 0.139D+00 HAS BEEN REMOVED
 *** IN SYMMETRY 2 ORBITAL  5 SYMMETRY CONTAMINATION OF 0.175D+00 HAS BEEN REMOVED
 *** IN SYMMETRY 2 ORBITAL  6 SYMMETRY CONTAMINATION OF 0.181D+00 HAS BEEN REMOVED
 EXTRA SYMMETRY OF MOS IN SYMMETRY 2:   3 1 2 3 1 2 3 1 2 3   1 2 1 2 3 6 9 7 4 5   810 1 2 3 9 7 6 4 5   810 3 1 2 6 7 9 8 5
                                        410 3 1 2

 Wavefunction dump at record             2140.2

 Convergence thresholds  0.10E-04 (gradient)  0.10E-05 (energy)

 Weight factors for state symmetry  1:    0.05882   0.05882   0.05882   0.05882   0.05882   0.05882   0.05882   0.05882
                                          0.05882   0.05882   0.05882   0.05882   0.05882   0.05882   0.05882   0.05882
                                          0.05882
 
 Number of orbital rotations:  684  ( 18 closed/active, 378 closed/virtual, 0 active/active, 288 active/virtual )
 Total number of variables:    1024
 
 Second-order MCSCF: L-BFGS accelerated
 
 ITER  MIC  NCI  NEG     ENERGY(VAR)    ENERGY(PROJ) ENERGY CHANGE       GRAD(0)  GRAD(ORB)   GRAD(CI)      STEP      TIME
   1    6    5    0  -1391.72496044   -1391.80741460   -0.08245416    0.40624967 0.00190286 0.00000000  0.38E+00      0.23
   2    5    4    0  -1391.80048068   -1391.80122177   -0.00074109    0.04572566 0.00000147 0.00000000  0.24E-01      0.52
   3    4    4    0  -1391.80122627   -1391.80122634   -0.00000007    0.00039659 0.00000013 0.00000000  0.29E-03      0.75
   4   20   20    0  -1391.80122634   -1391.80122634    0.00000000    0.00004054 0.00000009 0.00000000  0.34E-07      1.07

 CONVERGENCE REACHED!  Final gradient:    0.00000013 ( 0.13E-06)
                       Final energy:  -1391.80122634
 
 Results for state 1.1
 =====================
 !MCSCF STATE 1.1 Energy                     -1391.851202888351
 Nuclear energy                                  0.00000000
 Kinetic energy                               1451.86897594
 One electron energy                         -1922.86696690
 Two electron energy                           531.01576401
 Virial ratio                                    1.95866172
 
 !MCSCF STATE 1.1 Dipole moment                  0.00000000     0.00000000     0.00000000
 Dipole moment /Debye                            0.00000000     0.00000000     0.00000000
 
 Results for state 2.1
 =====================
 !MCSCF STATE 2.1 Energy                     -1391.851202888080
 Nuclear energy                                  0.00000000
 Kinetic energy                               1451.86897592
 One electron energy                         -1922.86696686
 Two electron energy                           531.01576397
 Virial ratio                                    1.95866172
 
 !MCSCF STATE 2.1 Dipole moment                  0.00000000     0.00000000     0.00000000
 Dipole moment /Debye                            0.00000000     0.00000000     0.00000000
 
 Results for state 3.1
 =====================
 !MCSCF STATE 3.1 Energy                     -1391.851202887652
 Nuclear energy                                  0.00000000
 Kinetic energy                               1451.86897585
 One electron energy                         -1922.86696675
 Two electron energy                           531.01576386
 Virial ratio                                    1.95866172
 
 !MCSCF STATE 3.1 Dipole moment                  0.00000000     0.00000000     0.00000000
 Dipole moment /Debye                            0.00000000     0.00000000     0.00000000
 
 Results for state 4.1
 =====================
 !MCSCF STATE 4.1 Energy                     -1391.851202887230
 Nuclear energy                                  0.00000000
 Kinetic energy                               1451.86897584
 One electron energy                         -1922.86696672
 Two electron energy                           531.01576384
 Virial ratio                                    1.95866172
 
 !MCSCF STATE 4.1 Dipole moment                  0.00000000     0.00000000     0.00000000
 Dipole moment /Debye                            0.00000000     0.00000000     0.00000000
 
 Results for state 5.1
 =====================
 !MCSCF STATE 5.1 Energy                     -1391.851202887228
 Nuclear energy                                  0.00000000
 Kinetic energy                               1451.86897581
 One electron energy                         -1922.86696670
 Two electron energy                           531.01576381
 Virial ratio                                    1.95866172
 
 !MCSCF STATE 5.1 Dipole moment                  0.00000000     0.00000000     0.00000000
 Dipole moment /Debye                            0.00000000     0.00000000     0.00000000
 
 Results for state 6.1
 =====================
 !MCSCF STATE 6.1 Energy                     -1391.851202886979
 Nuclear energy                                  0.00000000
 Kinetic energy                               1451.86897578
 One electron energy                         -1922.86696663
 Two electron energy                           531.01576374
 Virial ratio                                    1.95866172
 
 !MCSCF STATE 6.1 Dipole moment                  0.00000000     0.00000000     0.00000000
 Dipole moment /Debye                            0.00000000     0.00000000     0.00000000
 
 Results for state 7.1
 =====================
 !MCSCF STATE 7.1 Energy                     -1391.851202886089
 Nuclear energy                                  0.00000000
 Kinetic energy                               1451.86897571
 One electron energy                         -1922.86696651
 Two electron energy                           531.01576362
 Virial ratio                                    1.95866172
 
 !MCSCF STATE 7.1 Dipole moment                  0.00000000     0.00000000     0.00000000
 Dipole moment /Debye                            0.00000000     0.00000000     0.00000000
 
 Results for state 8.1
 =====================
 !MCSCF STATE 8.1 Energy                     -1391.771057670937
 Nuclear energy                                  0.00000000
 Kinetic energy                               1451.86897586
 One electron energy                         -1922.86696675
 Two electron energy                           531.09590907
 Virial ratio                                    1.95860651
 
 !MCSCF STATE 8.1 Dipole moment                  0.00000000     0.00000000     0.00000000
 Dipole moment /Debye                            0.00000000     0.00000000     0.00000000
 
 Results for state 9.1
 =====================
 !MCSCF STATE 9.1 Energy                     -1391.771057670862
 Nuclear energy                                  0.00000000
 Kinetic energy                               1451.86897575
 One electron energy                         -1922.86696660
 Two electron energy                           531.09590893
 Virial ratio                                    1.95860651
 
 !MCSCF STATE 9.1 Dipole moment                  0.00000000     0.00000000     0.00000000
 Dipole moment /Debye                            0.00000000     0.00000000     0.00000000
 
 Results for state 10.1
 ======================
 !MCSCF STATE 10.1 Energy                    -1391.771057670560
 Nuclear energy                                  0.00000000
 Kinetic energy                               1451.86897590
 One electron energy                         -1922.86696683
 Two electron energy                           531.09590916
 Virial ratio                                    1.95860651
 
 !MCSCF STATE 10.1 Dipole moment                 0.00000000     0.00000000     0.00000000
 Dipole moment /Debye                            0.00000000     0.00000000     0.00000000
 
 Results for state 11.1
 ======================
 !MCSCF STATE 11.1 Energy                    -1391.764179225776
 Nuclear energy                                  0.00000000
 Kinetic energy                               1458.66655744
 One electron energy                         -1939.20841877
 Two electron energy                           547.44423954
 Virial ratio                                    1.95413456
 
 !MCSCF STATE 11.1 Dipole moment                 0.00000000     0.00000000     0.00000000
 Dipole moment /Debye                            0.00000000     0.00000000     0.00000000
 
 Results for state 12.1
 ======================
 !MCSCF STATE 12.1 Energy                    -1391.764179225553
 Nuclear energy                                  0.00000000
 Kinetic energy                               1458.66655745
 One electron energy                         -1939.20841880
 Two electron energy                           547.44423957
 Virial ratio                                    1.95413456
 
 !MCSCF STATE 12.1 Dipole moment                 0.00000000     0.00000000     0.00000000
 Dipole moment /Debye                            0.00000000     0.00000000     0.00000000
 
 Results for state 13.1
 ======================
 !MCSCF STATE 13.1 Energy                    -1391.764179223870
 Nuclear energy                                  0.00000000
 Kinetic energy                               1458.66655753
 One electron energy                         -1939.20841891
 Two electron energy                           547.44423968
 Virial ratio                                    1.95413456
 
 !MCSCF STATE 13.1 Dipole moment                 0.00000000     0.00000000     0.00000000
 Dipole moment /Debye                            0.00000000     0.00000000     0.00000000
 
 Results for state 14.1
 ======================
 !MCSCF STATE 14.1 Energy                    -1391.764179222789
 Nuclear energy                                  0.00000000
 Kinetic energy                               1458.66655756
 One electron energy                         -1939.20841896
 Two electron energy                           547.44423974
 Virial ratio                                    1.95413456
 
 !MCSCF STATE 14.1 Dipole moment                 0.00000000     0.00000000     0.00000000
 Dipole moment /Debye                            0.00000000     0.00000000     0.00000000
 
 Results for state 15.1
 ======================
 !MCSCF STATE 15.1 Energy                    -1391.764179222713
 Nuclear energy                                  0.00000000
 Kinetic energy                               1458.66655754
 One electron energy                         -1939.20841894
 Two electron energy                           547.44423972
 Virial ratio                                    1.95413456
 
 !MCSCF STATE 15.1 Dipole moment                 0.00000000     0.00000000     0.00000000
 Dipole moment /Debye                            0.00000000     0.00000000     0.00000000
 
 Results for state 16.1
 ======================
 !MCSCF STATE 16.1 Energy                    -1391.764179221212
 Nuclear energy                                  0.00000000
 Kinetic energy                               1458.66655759
 One electron energy                         -1939.20841903
 Two electron energy                           547.44423981
 Virial ratio                                    1.95413456
 
 !MCSCF STATE 16.1 Dipole moment                 0.00000000     0.00000000     0.00000000
 Dipole moment /Debye                            0.00000000     0.00000000     0.00000000
 
 Results for state 17.1
 ======================
 !MCSCF STATE 17.1 Energy                    -1391.764179219479
 Nuclear energy                                  0.00000000
 Kinetic energy                               1458.66655767
 One electron energy                         -1939.20841916
 Two electron energy                           547.44423994
 Virial ratio                                    1.95413456
 
 !MCSCF STATE 17.1 Dipole moment                 0.00000000     0.00000000     0.00000000
 Dipole moment /Debye                            0.00000000     0.00000000     0.00000000
 
 State-averaged charge density matrix saved on record 2140.2 (density set 1)
 
 No non-zero expectation values
 
 Expectation values for two-electron operators:
 
 !MCSCF expec                      <1.1|LXLX|1.1>     3.996199262257
 !MCSCF expec                      <2.1|LXLX|2.1>     5.502301553681
 !MCSCF expec                      <3.1|LXLX|3.1>     1.307282285599
 !MCSCF expec                      <4.1|LXLX|4.1>     8.689886748079
 !MCSCF expec                      <5.1|LXLX|5.1>     4.002925772237
 !MCSCF expec                      <6.1|LXLX|6.1>     0.003802823323
 !MCSCF expec                      <7.1|LXLX|7.1>     4.497675743155
 !MCSCF expec                      <8.1|LXLX|8.1>     0.999999943349
 !MCSCF expec                      <9.1|LXLX|9.1>     0.999999783235
 !MCSCF expec                    <10.1|LXLX|10.1>     0.000000260070
 !MCSCF expec                    <11.1|LXLX|11.1>     3.996437600399
 !MCSCF expec                    <12.1|LXLX|12.1>     6.282390111043
 !MCSCF expec                    <13.1|LXLX|13.1>     6.624898111391
 !MCSCF expec                    <14.1|LXLX|14.1>     3.999999110697
 !MCSCF expec                    <15.1|LXLX|15.1>     3.375089748697
 !MCSCF expec                    <16.1|LXLX|16.1>     0.003562499535
 !MCSCF expec                    <17.1|LXLX|17.1>     3.717608829317
 
 !MCSCF expec                      <1.1|LYLY|1.1>     4.240557337484
 !MCSCF expec                      <2.1|LYLY|2.1>     0.016049832443
 !MCSCF expec                      <3.1|LYLY|3.1>     7.486800149219
 !MCSCF expec                      <4.1|LYLY|4.1>     2.514065183852
 !MCSCF expec                      <5.1|LYLY|5.1>     3.999104051677
 !MCSCF expec                      <6.1|LYLY|6.1>     5.759433641630
 !MCSCF expec                      <7.1|LYLY|7.1>     3.983951727833
 !MCSCF expec                      <8.1|LYLY|8.1>     0.999999999895
 !MCSCF expec                      <9.1|LYLY|9.1>     0.000000216805
 !MCSCF expec                    <10.1|LYLY|10.1>     0.999999783880
 !MCSCF expec                    <11.1|LYLY|11.1>     3.770719207898
 !MCSCF expec                    <12.1|LYLY|12.1>     0.005426353046
 !MCSCF expec                    <13.1|LYLY|13.1>     1.808699774739
 !MCSCF expec                    <14.1|LYLY|14.1>     4.000008053990
 !MCSCF expec                    <15.1|LYLY|15.1>     8.191301125788
 !MCSCF expec                    <16.1|LYLY|16.1>     6.229280236878
 !MCSCF expec                    <17.1|LYLY|17.1>     3.994573688737
 
 !MCSCF expec                      <1.1|LZLZ|1.1>     3.763243400259
 !MCSCF expec                      <2.1|LZLZ|2.1>     6.481648613876
 !MCSCF expec                      <3.1|LZLZ|3.1>     3.205917565182
 !MCSCF expec                      <4.1|LZLZ|4.1>     0.796048068069
 !MCSCF expec                      <5.1|LZLZ|5.1>     3.997970176086
 !MCSCF expec                      <6.1|LZLZ|6.1>     6.236763535047
 !MCSCF expec                      <7.1|LZLZ|7.1>     3.518372529012
 !MCSCF expec                      <8.1|LZLZ|8.1>     0.000000056755
 !MCSCF expec                      <9.1|LZLZ|9.1>     0.999999999960
 !MCSCF expec                    <10.1|LZLZ|10.1>     0.999999956050
 !MCSCF expec                    <11.1|LZLZ|11.1>     4.232843191703
 !MCSCF expec                    <12.1|LZLZ|12.1>     5.712183535911
 !MCSCF expec                    <13.1|LZLZ|13.1>     3.566402113869
 !MCSCF expec                    <14.1|LZLZ|14.1>     3.999992835314
 !MCSCF expec                    <15.1|LZLZ|15.1>     0.433609125516
 !MCSCF expec                    <16.1|LZLZ|16.1>     5.767157263588
 !MCSCF expec                    <17.1|LZLZ|17.1>     4.287817481946
 
 !MCSCF expec                      <1.1|L**2|1.1>    12.000000000000
 !MCSCF expec                      <2.1|L**2|2.1>    12.000000000000
 !MCSCF expec                      <3.1|L**2|3.1>    12.000000000000
 !MCSCF expec                      <4.1|L**2|4.1>    12.000000000000
 !MCSCF expec                      <5.1|L**2|5.1>    12.000000000000
 !MCSCF expec                      <6.1|L**2|6.1>    12.000000000000
 !MCSCF expec                      <7.1|L**2|7.1>    12.000000000000
 !MCSCF expec                      <8.1|L**2|8.1>     2.000000000000
 !MCSCF expec                      <9.1|L**2|9.1>     2.000000000000
 !MCSCF expec                    <10.1|L**2|10.1>     2.000000000000
 !MCSCF expec                    <11.1|L**2|11.1>    12.000000000000
 !MCSCF expec                    <12.1|L**2|12.1>    12.000000000000
 !MCSCF expec                    <13.1|L**2|13.1>    12.000000000000
 !MCSCF expec                    <14.1|L**2|14.1>    12.000000000000
 !MCSCF expec                    <15.1|L**2|15.1>    12.000000000000
 !MCSCF expec                    <16.1|L**2|16.1>    12.000000000000
 !MCSCF expec                    <17.1|L**2|17.1>    12.000000000000
 
 EXTRA SYMMETRY OF MOS IN SYMMETRY 1:   1 1 1 1 4 6 3 5 2 1   4 6 3 5 2 1 4 6 3 5   2 1 4 3 6 5 21013 9   712151411 8 1 4 3 5
                                        6 21013 9 712111415   8 5 2 3 4 6 1
 EXTRA SYMMETRY OF MOS IN SYMMETRY 2:   1 3 2 1 3 2 1 2 3 1   2 3 1 2 3 810 4 7 9   5 6 1 2 3 810 4 9 7   5 6 1 2 3 7 9 4 610
                                        8 5 1 3 2
 
  NATURAL ORBITALS (STATE AVERAGED)
  =================================

  Orbital  Occupation    Energy    Cen Mu Typ  Coefficients
    1.1     2.00000  -285.68441     1  1  s    0.97813
    2.1     2.00000   -35.37003     1  2  s    0.99658
    3.1     2.00000    -4.52563     1  3  s    0.98750
    4.1     1.58824    -0.19432     1  4  s    1.01969
    5.1     1.48235    -0.30891     1  1  d1+  1.00155
    6.1     1.48235    -0.30891     1  1  d1-  1.00155
    7.1     1.48235    -0.30891     1  1  d2-  1.00155
    8.1     1.48235    -0.30890     1  1  d2+  1.00155
    9.1     1.48235    -0.30890     1  1  d0  -1.00155
    1.2     2.00000   -30.14054     1  1  px   0.99984
    2.2     2.00000   -30.14054     1  1  pz   0.99984
    3.2     2.00000   -30.14054     1  1  py   0.99984
    4.2     2.00000    -2.93712     1  2  px   0.99990
    5.2     2.00000    -2.93712     1  2  pz   0.99990
    6.2     2.00000    -2.93712     1  2  py   0.99990
 
 Natural orbital dump (state averaged) at molpro section 2140.2 (Orbital set 2)
 
 Transform the CI vectors
 
 CI Coefficients of symmetry 1
 =============================

 State:              1               2               3               4               5               6               7
 a222aa        -0.00000000      0.00000000      0.00000000     -0.00000000      0.00000000     -0.00000000     -0.00000000
 2aaa22         0.00009533     -0.00006983     -0.00023105      0.02463401      0.99969649      0.00008161     -0.00016647
 a22a2a         0.00000000     -0.00000000      0.00000000     -0.00000000      0.00000000      0.00000000     -0.00000000
 2aa2a2         0.00003413      0.00005026      0.89525376      0.44542630     -0.01076902     -0.00037109      0.00003432
 2aa22a        -0.00005403      0.00005030     -0.19925893      0.40024701     -0.00990871     -0.00012860      0.00004858
 aa2a22        -0.00000000      0.00000000      0.00000000     -0.00000000      0.00000000     -0.00000000     -0.00000000
 22a2aa        -0.02757083     -0.00010128      0.00018481      0.00037355     -0.00007950      0.89400204      0.00011799
 a2aa22         0.00000000      0.00000000      0.00000000     -0.00000000      0.00000000      0.00000000     -0.00000000
 2a22aa         0.00009620      0.89263095      0.00000556     -0.00011440      0.00007459      0.00009667      0.05665640
 aa22a2        -0.00000000     -0.00000000      0.00000000      0.00000000     -0.00000000     -0.00000000      0.00000000
 a2a2a2         0.00000000      0.00000000     -0.00000000     -0.00000000      0.00000000     -0.00000000     -0.00000000
 2a2a2a         0.85872114     -0.00012159     -0.00002137      0.00018304     -0.00010683      0.25019581      0.00003135
 22aa2a        -0.00002826     -0.27801507      0.00001355     -0.00005850      0.00012360     -0.00014453      0.85012210
 aaa222         0.00000000     -0.00000000      0.00000000     -0.00000000      0.00000000     -0.00000000     -0.00000000
 222aaa        -0.00010806      0.00010060     -0.39851785      0.80049403     -0.01981741     -0.00025719      0.00009717
 22aaa2         0.00003922      0.35484864      0.00001104     -0.00009982      0.00011442     -0.00002764      0.52352881
 2a2aa2        -0.51170091      0.00001173      0.00011904      0.00010999      0.00001578      0.37170170      0.00005002
 a2a22a        -0.00000000      0.00000000     -0.00000000     -0.00000000      0.00000000     -0.00000000      0.00000000
 aa222a         0.00000000     -0.00000000      0.00000000      0.00000000     -0.00000000     -0.00000000      0.00000000
 a22aa2         0.00000000     -0.00000000     -0.00000000     -0.00000000      0.00000000      0.00000000     -0.00000000
 
 Energy:    -1391.85120289  -1391.85120289  -1391.85120289  -1391.85120289  -1391.85120289  -1391.85120289  -1391.85120289

 State:              8               9              10              11              12              13              14
 a222aa         0.00000000     -0.00000000      0.00000000      0.00004027      0.00001107     -0.00003267      0.99999901
 2aaa22        -0.00000000      0.00000000      0.00000000     -0.00000000     -0.00000000      0.00000000     -0.00000000
 a22a2a        -0.00000002      0.00000000     -0.00000000     -0.00000179      0.00003028      0.94424601     -0.00043201
 2aa2a2         0.00000000      0.00000000      0.00000000      0.00000000      0.00000000      0.00000000      0.00000000
 2aa22a         0.89442716     -0.00000906      0.00021289     -0.00000000      0.00000000      0.00000001     -0.00000000
 aa2a22         0.00000000     -0.00000000     -0.00000000      0.02669262     -0.00003341     -0.00005852     -0.00001245
 22a2aa         0.00010644     -0.00020822     -0.44721354     -0.00000000      0.00000000      0.00000000      0.00000000
 a2aa22        -0.00000000      0.00000001     -0.00000000      0.00016056      0.89382031     -0.00003492     -0.00000793
 2a22aa        -0.00000458     -0.44721354      0.00020821      0.00000000      0.00000000     -0.00000000     -0.00000000
 aa22a2        -0.00000000      0.00000001     -0.00000000     -0.00003152     -0.19155789     -0.00001118     -0.00005102
 a2a2a2         0.00000000     -0.00000000     -0.00000001      0.87231281     -0.00016313     -0.00002158     -0.00003769
 2a2a2a        -0.00010644      0.00020822      0.44721353      0.00000000     -0.00000000     -0.00000000     -0.00000000
 22aa2a        -0.00000458     -0.44721355      0.00020821      0.00000000      0.00000000     -0.00000000     -0.00000000
 aaa222        -0.00000001      0.00000000     -0.00000000     -0.00003170     -0.00003060     -0.29448188     -0.00119694
 222aaa        -0.44721358      0.00000453     -0.00010645      0.00000000     -0.00000000     -0.00000001      0.00000000
 22aaa2         0.00000793      0.77459659     -0.00036064     -0.00000000     -0.00000001      0.00000000      0.00000000
 2a2aa2        -0.00018436      0.00036064      0.77459656      0.00000001     -0.00000000     -0.00000000     -0.00000000
 a2a22a         0.00000000     -0.00000000     -0.00000000      0.48821904     -0.00007489      0.00002133     -0.00001457
 aa222a         0.00000000     -0.00000001      0.00000000     -0.00007450     -0.40545134      0.00002662      0.00003404
 a22aa2        -0.00000000      0.00000000     -0.00000000     -0.00001585     -0.00001530     -0.14724095     -0.00059847
 
 Energy:    -1391.77105767  -1391.77105767  -1391.77105767  -1391.76417923  -1391.76417923  -1391.76417922  -1391.76417922

 State:             15              16              17
 a222aa         0.00140585      0.00001273      0.00006079
 2aaa22         0.00000000     -0.00000000     -0.00000000
 a22a2a         0.32924047      0.00006623      0.00000868
 2aa2a2        -0.00000000      0.00000000     -0.00000000
 2aa22a         0.00000002      0.00000000      0.00000000
 aa2a22        -0.00001187      0.89402878      0.00006794
 22a2aa        -0.00000000     -0.00000000      0.00000000
 a2aa22         0.00001879      0.00003111     -0.03294325
 2a22aa         0.00000000     -0.00000000      0.00000001
 aa22a2         0.00002661     -0.00007261      0.87367360
 a2a2a2         0.00002683      0.19766219      0.00001213
 2a2a2a         0.00000000      0.00000000     -0.00000000
 22aa2a         0.00000000      0.00000000      0.00000001
 aaa222         0.84455846     -0.00000713     -0.00003628
 222aaa        -0.00000001     -0.00000000     -0.00000000
 22aaa2        -0.00000000     -0.00000000     -0.00000001
 2a2aa2         0.00000000      0.00000000     -0.00000000
 a2a22a         0.00002235     -0.40204749     -0.00003222
 aa222a        -0.00002621      0.00002396     -0.48539590
 a22aa2         0.42227923     -0.00000357     -0.00001814
 
 Energy:    -1391.76417922  -1391.76417922  -1391.76417922
 


 **********************************************************************************************************************************
 DATASETS  * FILE   NREC   LENGTH (MB)   RECORD NAMES
              1      24       36.44       500      610      700      900      950      970     1000      129      960     1700   
                                          VAR    BASINP    GEOM    SYMINP    ZMAT    AOBASIS   BASIS     P2S    ABASIS    OPER   
                                         1101     1401     1411     1412     1650     1100     1400     1410     1200     1210   
                                          SR      EKINR    POTR     PVPR    MOLCAS      S      EKIN      POT      H0       H01  
                                         1080     1600     1380     1700(1)
                                         AOSYM     SMH     JKOP     OPER   

              2       5        0.80       700     1000      520     2100     2140   
                                         GEOM     BASIS   MCVARS     RHF     MCSCF   

 PROGRAMS   *        TOTAL     MULTI   RHF-SCF       INT
 CPU TIMES  *         2.99      0.96      0.96      0.88
 REAL TIME  *         4.04 SEC
 DISK USED  *        37.30 MB (local),      669.96 MB (total)
 SF USED    *        19.27 MB
 GA USED    *         0.00 MB       (max)       0.00 MB       (current)
 **********************************************************************************************************************************

 Energies and &lt;L**2&gt; values

          ENERGY     LL
    -1391.851203   12.0
    -1391.851203   12.0
    -1391.851203   12.0
    -1391.851203   12.0
    -1391.851203   12.0
    -1391.851203   12.0
    -1391.851203   12.0
    -1391.771058    2.0
    -1391.771058    2.0
    -1391.771058    2.0
    -1391.764179   12.0
    -1391.764179   12.0
    -1391.764179   12.0
    -1391.764179   12.0
    -1391.764179   12.0
    -1391.764179   12.0
    -1391.764179   12.0
                                                  


 PROGRAM * CI (Multireference internally contracted CI)     Authors: H.-J. Werner, P.J. Knowles, 1987


 Convergence thresholds:  THRVAR = 1.00D-08  THRDEN = 1.00D-06

 Number of optimized states: 17  Roots:   1   2   3   4   5   6   7   8   9  10  11  12  13  14  15  16  17
 Number of reference states: 17  Roots:   1   2   3   4   5   6   7   8   9  10  11  12  13  14  15  16  17

 Reference symmetry:                   1   Quartet 
 Number of electrons:                 27
 Maximum number of shells:             3
 Maximum number of spin couplings:    14

 Reference space:       20 conf       20 CSFs
 N elec internal:       20 conf       20 CSFs
 N-1 el internal:       75 conf      120 CSFs
 N-2 el internal:      126 conf      384 CSFs

 Number of electrons in valence space:                      9
 Maximum number of open shell orbitals in reference space:  3
 Maximum number of open shell orbitals in internal spaces:  7


 Number of core orbitals:           9 (   3   6 )
 Number of active  orbitals:        6 (   6   0 )
 Number of external orbitals:      87 (  48  39 )

 Molecular orbitals read from record     2140.2  Type=MCSCF/NATURAL (state averaged)

 Valence orbitals related to previous ones by unitary transformation. Operators transformed.


 Number of p-space configurations:  20

 Reference wavefunction optimized for reference space (refopt=1)

 State     Reference Energy 
     1     -1391.85120289
     2     -1391.85120289
     3     -1391.85120289
     4     -1391.85120289
     5     -1391.85120289
     6     -1391.85120289
     7     -1391.85120289
     8     -1391.77105767
     9     -1391.77105767
    10     -1391.77105767
    11     -1391.76417923
    12     -1391.76417923
    13     -1391.76417922
    14     -1391.76417922
    15     -1391.76417922
    16     -1391.76417922
    17     -1391.76417922

 Number of blocks in overlap matrix:    14   Smallest eigenvalue:  0.15D+00
 Number of N-2 electron functions:     339
 Number of N-1 electron functions:     120

 Number of internal configurations:                   20
 Number of singly external configurations:          5760
 Number of doubly external configurations:        640899
 Total number of contracted configurations:       646679
 Total number of uncontracted configurations:     730784

 Diagonal Coupling coefficients finished.               Storage:  256762 words, CPU-Time:      0.01 seconds.
 Energy denominators for pairs finished in 1 passes.    Storage:  307895 words, CPU-time:      0.01 seconds.

  ITER. STATE  ROOT     SQ.NORM     CORR.ENERGY   TOTAL ENERGY   ENERGY CHANGE       DEN1      VAR(S)    VAR(P)      TIME
    1     1     1     1.00000000     0.00000000 -1391.85120289     0.00000000    -0.32920237  0.30D-01  0.73D-01     0.20
    1     2     2     1.00000000     0.00000000 -1391.85120289    -0.00000000    -0.32913012  0.30D-01  0.72D-01     0.20
    1     3     3     1.00000000     0.00000000 -1391.85120289    -0.00000000    -0.33045597  0.31D-01  0.75D-01     0.20
    1     4     4     1.00000000     0.00000000 -1391.85120289     0.00000000    -0.32891840  0.30D-01  0.72D-01     0.20
    1     5     5     1.00000000     0.00000000 -1391.85120289     0.00000000    -0.33013705  0.31D-01  0.74D-01     0.20
    1     6     6     1.00000000     0.00000000 -1391.85120289    -0.00000000    -0.32900898  0.30D-01  0.72D-01     0.20
    1     7     7     1.00000000     0.00000000 -1391.85120289     0.00000000    -0.32910506  0.30D-01  0.72D-01     0.20
    1     8     8     1.00000000     0.00000000 -1391.77105767     0.00000000    -0.34468901  0.33D-01  0.78D-01     0.20
    1     9     9     1.00000000     0.00000000 -1391.77105767     0.00000000    -0.34564614  0.34D-01  0.79D-01     0.20
    1    10    10     1.00000000     0.00000000 -1391.77105767    -0.00000000    -0.34564259  0.34D-01  0.79D-01     0.20
    1    11    11     1.00000000     0.00000000 -1391.76417923     0.00000000    -0.45331953  0.11D+00  0.75D-01     0.20
    1    12    12     1.00000000     0.00000000 -1391.76417923     0.00000000    -0.45308711  0.11D+00  0.75D-01     0.20
    1    13    13     1.00000000     0.00000000 -1391.76417922     0.00000000    -0.45413856  0.11D+00  0.75D-01     0.20
    1    14    14     1.00000000     0.00000000 -1391.76417922     0.00000000    -0.45288242  0.11D+00  0.75D-01     0.20
    1    15    15     1.00000000     0.00000000 -1391.76417922     0.00000000    -0.45330340  0.11D+00  0.75D-01     0.20
    1    16    16     1.00000000     0.00000000 -1391.76417922     0.00000000    -0.45299676  0.11D+00  0.75D-01     0.20
    1    17    17     1.00000000     0.00000000 -1391.76417922     0.00000000    -0.45316860  0.11D+00  0.75D-01     0.20
    2     1     1     1.06571334    -0.26372399 -1392.11492688    -0.26372399    -0.01147086  0.34D-02  0.14D-02     9.96
    2     2     2     1.06626225    -0.26368409 -1392.11488698    -0.26368409    -0.01156469  0.35D-02  0.14D-02     9.96
    2     3     3     1.06551792    -0.26367422 -1392.11487711    -0.26367422    -0.01152166  0.34D-02  0.14D-02     9.96
    2     4     4     1.06546679    -0.26354377 -1392.11474666    -0.26354377    -0.01172333  0.35D-02  0.15D-02     9.96
    2     5     5     1.06542809    -0.26351068 -1392.11471357    -0.26351068    -0.01175799  0.35D-02  0.15D-02     9.96
    2     6     6     1.06654470    -0.26348987 -1392.11469276    -0.26348987    -0.01188896  0.36D-02  0.14D-02     9.96
    2     7     7     1.06599855    -0.26345440 -1392.11465729    -0.26345440    -0.01187345  0.36D-02  0.15D-02     9.96
    2     8     8     1.09174249    -0.31024174 -1392.08129941    -0.31024174    -0.01659066  0.54D-02  0.20D-02     9.96
    2     9     9     1.09186992    -0.31021049 -1392.08126816    -0.31021049    -0.01663473  0.55D-02  0.20D-02     9.96
    2    10    10     1.09155763    -0.31019628 -1392.08125395    -0.31019628    -0.01661898  0.54D-02  0.20D-02     9.96
    2    11    11     1.09184939    -0.31680180 -1392.08098102    -0.31680180    -0.01698319  0.57D-02  0.20D-02     9.96
    2    12    12     1.09205111    -0.31677934 -1392.08095856    -0.31677934    -0.01702577  0.57D-02  0.20D-02     9.96
    2    13    13     1.09010351    -0.31649117 -1392.08067040    -0.31649117    -0.01723647  0.60D-02  0.19D-02     9.96
    2    14    14     1.09164998    -0.31635089 -1392.08053011    -0.31635089    -0.01753150  0.62D-02  0.20D-02     9.96
    2    15    15     1.07135416    -0.28276506 -1392.04694429    -0.28276506    -0.01249670  0.43D-02  0.14D-02     9.96
    2    16    16     1.07214675    -0.28258136 -1392.04676058    -0.28258136    -0.01283158  0.44D-02  0.14D-02     9.96
    2    17    17     1.07229607    -0.28257852 -1392.04675774    -0.28257852    -0.01282538  0.44D-02  0.14D-02     9.96
    3     1     1     1.06545800    -0.27323582 -1392.12443870    -0.00951183    -0.00054153  0.16D-03  0.14D-03    19.50
    3     2     2     1.06523591    -0.27322796 -1392.12443085    -0.00954387    -0.00054618  0.16D-03  0.14D-03    19.50
    3     3     3     1.06490188    -0.27321370 -1392.12441659    -0.00953948    -0.00055329  0.16D-03  0.14D-03    19.50
    3     4     4     1.06489000    -0.27320970 -1392.12441259    -0.00966593    -0.00055452  0.16D-03  0.14D-03    19.50
    3     5     5     1.06466033    -0.27319905 -1392.12440193    -0.00968837    -0.00056246  0.16D-03  0.15D-03    19.50
    3     6     6     1.06463420    -0.27319355 -1392.12439644    -0.00970368    -0.00056528  0.16D-03  0.15D-03    19.50
    3     7     7     1.06456274    -0.27319268 -1392.12439557    -0.00973828    -0.00056510  0.16D-03  0.15D-03    19.50
    3     8     8     1.08398925    -0.32387402 -1392.09493169    -0.01363228    -0.00046379  0.12D-03  0.13D-03    19.50
    3     9     9     1.08393709    -0.32387347 -1392.09493114    -0.01366298    -0.00046401  0.12D-03  0.13D-03    19.50
    3    10    10     1.08383454    -0.32385954 -1392.09491721    -0.01366325    -0.00047148  0.12D-03  0.13D-03    19.50
    3    11    11     1.08379605    -0.33072819 -1392.09490742    -0.01392640    -0.00048118  0.13D-03  0.13D-03    19.50
    3    12    12     1.08374012    -0.33072224 -1392.09490146    -0.01394290    -0.00048400  0.13D-03  0.13D-03    19.50
    3    13    13     1.08326541    -0.33066424 -1392.09484347    -0.01417307    -0.00052537  0.16D-03  0.14D-03    19.50
    3    14    14     1.08266298    -0.33062202 -1392.09480124    -0.01427113    -0.00054991  0.20D-03  0.14D-03    19.50
    3    15    15     1.07113802    -0.29306660 -1392.05724582    -0.01030153    -0.00073905  0.22D-03  0.17D-03    19.50
    3    16    16     1.07120569    -0.29306403 -1392.05724325    -0.01048267    -0.00074112  0.22D-03  0.17D-03    19.50
    3    17    17     1.07083192    -0.29305334 -1392.05723256    -0.01047482    -0.00074504  0.22D-03  0.17D-03    19.50
    4     1     1     1.07110853    -0.27399974 -1392.12520263    -0.00076393    -0.00005077  0.13D-04  0.79D-05    29.15
    4     2     2     1.07110907    -0.27399974 -1392.12520263    -0.00077177    -0.00005082  0.13D-04  0.79D-05    29.15
    4     3     3     1.07111355    -0.27399951 -1392.12520240    -0.00078580    -0.00005091  0.13D-04  0.79D-05    29.15
    4     4     4     1.07111800    -0.27399949 -1392.12520238    -0.00078979    -0.00005098  0.13D-04  0.79D-05    29.15
    4     5     5     1.07111121    -0.27399937 -1392.12520226    -0.00080032    -0.00005099  0.14D-04  0.79D-05    29.15
    4     6     6     1.07108376    -0.27399910 -1392.12520199    -0.00080555    -0.00005125  0.13D-04  0.83D-05    29.15
    4     7     7     1.07106099    -0.27399808 -1392.12520097    -0.00080540    -0.00005202  0.13D-04  0.88D-05    29.15
    4     8     8     1.08551682    -0.32442608 -1392.09548375    -0.00055206    -0.00004290  0.68D-05  0.12D-04    29.15
    4     9     9     1.08551760    -0.32442606 -1392.09548373    -0.00055258    -0.00004284  0.68D-05  0.12D-04    29.15
    4    10    10     1.08547830    -0.32442388 -1392.09548155    -0.00056435    -0.00004444  0.67D-05  0.13D-04    29.15
    4    11    11     1.08546303    -0.33130217 -1392.09548140    -0.00057398    -0.00004485  0.68D-05  0.13D-04    29.15
    4    12    12     1.08544765    -0.33130126 -1392.09548049    -0.00057903    -0.00004552  0.68D-05  0.13D-04    29.15
    4    13    13     1.08532350    -0.33129516 -1392.09547438    -0.00063092    -0.00005090  0.69D-05  0.15D-04    29.15
    4    14    14     1.08526352    -0.33129140 -1392.09547063    -0.00066938    -0.00005464  0.69D-05  0.16D-04    29.15
    4    15    15     1.07791550    -0.29410480 -1392.05828403    -0.00103821    -0.00007825  0.26D-04  0.12D-04    29.15
    4    16    16     1.07786885    -0.29410372 -1392.05828294    -0.00103969    -0.00007913  0.26D-04  0.12D-04    29.15
    4    17    17     1.07785942    -0.29410365 -1392.05828287    -0.00105031    -0.00007921  0.26D-04  0.12D-04    29.15
    5     1     1     1.07204811    -0.27405730 -1392.12526019    -0.00005756    -0.00000428  0.58D-06  0.10D-05    38.78
    5     2     2     1.07204886    -0.27405727 -1392.12526016    -0.00005754    -0.00000429  0.58D-06  0.10D-05    38.78
    5     3     3     1.07204902    -0.27405727 -1392.12526016    -0.00005777    -0.00000430  0.58D-06  0.10D-05    38.78
    5     4     4     1.07205319    -0.27405725 -1392.12526014    -0.00005776    -0.00000433  0.59D-06  0.10D-05    38.78
    5     5     5     1.07205124    -0.27405725 -1392.12526014    -0.00005788    -0.00000431  0.57D-06  0.10D-05    38.78
    5     6     6     1.07204855    -0.27405724 -1392.12526012    -0.00005813    -0.00000432  0.58D-06  0.10D-05    38.78
    5     7     7     1.07205983    -0.27405719 -1392.12526008    -0.00005911    -0.00000436  0.59D-06  0.11D-05    38.78
    5     8     8     1.08663949    -0.32447629 -1392.09553397    -0.00005022    -0.00000268  0.50D-06  0.75D-06    38.78
    5     9     9     1.08663705    -0.32447629 -1392.09553396    -0.00005023    -0.00000268  0.49D-06  0.76D-06    38.78
    5    10    10     1.08663151    -0.32447615 -1392.09553382    -0.00005227    -0.00000279  0.48D-06  0.81D-06    38.78
    5    11    11     1.08662899    -0.33135450 -1392.09553373    -0.00005233    -0.00000287  0.50D-06  0.84D-06    38.78
    5    12    12     1.08663244    -0.33135449 -1392.09553372    -0.00005323    -0.00000286  0.52D-06  0.82D-06    38.78
    5    13    13     1.08661509    -0.33135414 -1392.09553336    -0.00005898    -0.00000319  0.49D-06  0.98D-06    38.78
    5    14    14     1.08662559    -0.33135397 -1392.09553319    -0.00006256    -0.00000335  0.48D-06  0.11D-05    38.78
    5    15    15     1.07941387    -0.29419533 -1392.05837455    -0.00009052    -0.00000734  0.97D-06  0.17D-05    38.78
    5    16    16     1.07941509    -0.29419529 -1392.05837451    -0.00009157    -0.00000737  0.96D-06  0.17D-05    38.78
    5    17    17     1.07941910    -0.29419529 -1392.05837451    -0.00009164    -0.00000735  0.93D-06  0.17D-05    38.78
    6     1     1     1.07199696    -0.27406223 -1392.12526512    -0.00000493    -0.00000053  0.16D-06  0.72D-07    48.41
    6     2     2     1.07199599    -0.27406223 -1392.12526512    -0.00000496    -0.00000053  0.16D-06  0.72D-07    48.41
    6     3     3     1.07199340    -0.27406223 -1392.12526512    -0.00000496    -0.00000053  0.16D-06  0.71D-07    48.41
    6     4     4     1.07199872    -0.27406223 -1392.12526511    -0.00000498    -0.00000054  0.16D-06  0.74D-07    48.41
    6     5     5     1.07199618    -0.27406223 -1392.12526511    -0.00000498    -0.00000054  0.16D-06  0.73D-07    48.41
    6     6     6     1.07200395    -0.27406222 -1392.12526511    -0.00000498    -0.00000054  0.16D-06  0.78D-07    48.41
    6     7     7     1.07200478    -0.27406222 -1392.12526510    -0.00000502    -0.00000055  0.16D-06  0.80D-07    48.41
    6     8     8     1.08683597    -0.32447915 -1392.09553682    -0.00000286    -0.00000025  0.30D-07  0.85D-07    48.41
    6     9     9     1.08683512    -0.32447915 -1392.09553682    -0.00000286    -0.00000025  0.32D-07  0.85D-07    48.41
    6    10    10     1.08683420    -0.32447914 -1392.09553681    -0.00000298    -0.00000027  0.30D-07  0.92D-07    48.41
    6    11    11     1.08683363    -0.33135757 -1392.09553679    -0.00000307    -0.00000028  0.31D-07  0.95D-07    48.41
    6    12    12     1.08683444    -0.33135756 -1392.09553679    -0.00000307    -0.00000028  0.33D-07  0.94D-07    48.41
    6    13    13     1.08682945    -0.33135752 -1392.09553675    -0.00000338    -0.00000031  0.35D-07  0.11D-06    48.41
    6    14    14     1.08683177    -0.33135750 -1392.09553672    -0.00000353    -0.00000033  0.34D-07  0.12D-06    48.41
    6    15    15     1.07935357    -0.29420362 -1392.05838284    -0.00000829    -0.00000096  0.32D-06  0.12D-06    48.41
    6    16    16     1.07935761    -0.29420361 -1392.05838283    -0.00000832    -0.00000097  0.32D-06  0.13D-06    48.41
    6    17    17     1.07935777    -0.29420361 -1392.05838283    -0.00000832    -0.00000097  0.32D-06  0.13D-06    48.41
    7     1     1     1.07200849    -0.27406278 -1392.12526567    -0.00000055    -0.00000005  0.21D-07  0.63D-08    58.05
    7     2     2     1.07200870    -0.27406278 -1392.12526567    -0.00000055    -0.00000005  0.21D-07  0.64D-08    58.05
    7     3     3     1.07200870    -0.27406278 -1392.12526567    -0.00000055    -0.00000005  0.21D-07  0.64D-08    58.05
    7     4     4     1.07200910    -0.27406278 -1392.12526567    -0.00000055    -0.00000005  0.21D-07  0.65D-08    58.05
    7     5     5     1.07200932    -0.27406278 -1392.12526567    -0.00000055    -0.00000005  0.21D-07  0.65D-08    58.05
    7     6     6     1.07200990    -0.27406278 -1392.12526567    -0.00000056    -0.00000005  0.22D-07  0.65D-08    58.05
    7     7     7     1.07200943    -0.27406278 -1392.12526567    -0.00000056    -0.00000005  0.22D-07  0.69D-08    58.05
    7     8     8     1.08687785    -0.32447943 -1392.09553710    -0.00000028    -0.00000003  0.69D-08  0.88D-08    58.05
    7     9     9     1.08687776    -0.32447943 -1392.09553710    -0.00000028    -0.00000003  0.70D-08  0.86D-08    58.05
    7    10    10     1.08687787    -0.32447943 -1392.09553710    -0.00000029    -0.00000003  0.75D-08  0.95D-08    58.05
    7    11    11     1.08687773    -0.33135787 -1392.09553710    -0.00000030    -0.00000003  0.77D-08  0.99D-08    58.05
    7    12    12     1.08687732    -0.33135787 -1392.09553710    -0.00000031    -0.00000003  0.76D-08  0.96D-08    58.05
    7    13    13     1.08687781    -0.33135787 -1392.09553709    -0.00000034    -0.00000004  0.96D-08  0.12D-07    58.05
    7    14    14     1.08687783    -0.33135787 -1392.09553709    -0.00000037    -0.00000004  0.11D-07  0.13D-07    58.05
    7    15    15     1.07936984    -0.29420459 -1392.05838381    -0.00000097    -0.00000011  0.53D-07  0.11D-07    58.05
    7    16    16     1.07937039    -0.29420459 -1392.05838381    -0.00000098    -0.00000011  0.54D-07  0.11D-07    58.05
    7    17    17     1.07937025    -0.29420459 -1392.05838381    -0.00000098    -0.00000011  0.54D-07  0.11D-07    58.05
    8     1     1     1.07201148    -0.27406284 -1392.12526573    -0.00000006    -0.00000001  0.12D-08  0.16D-08    67.64
    8     2     2     1.07201150    -0.27406284 -1392.12526573    -0.00000006    -0.00000001  0.12D-08  0.16D-08    67.64
    8     3     3     1.07201140    -0.27406284 -1392.12526573    -0.00000006    -0.00000001  0.12D-08  0.16D-08    67.64
    8     4     4     1.07201154    -0.27406284 -1392.12526573    -0.00000006    -0.00000001  0.13D-08  0.16D-08    67.64
    8     5     5     1.07201147    -0.27406284 -1392.12526573    -0.00000006    -0.00000001  0.12D-08  0.16D-08    67.64
    8     6     6     1.07201094    -0.27406284 -1392.12526572    -0.00000006    -0.00000001  0.14D-08  0.17D-08    67.64
    8     7     7     1.07201095    -0.27406284 -1392.12526572    -0.00000006    -0.00000001  0.14D-08  0.17D-08    67.64
    8     8     8     1.08687937    -0.32447946 -1392.09553713    -0.00000003    -0.00000000  0.64D-09  0.11D-08    67.64
    8     9     9     1.08687931    -0.32447946 -1392.09553713    -0.00000003    -0.00000000  0.68D-09  0.11D-08    67.64
    8    10    10     1.08687985    -0.32447946 -1392.09553713    -0.00000003    -0.00000000  0.58D-09  0.98D-09    67.64
    8    11    11     1.08687985    -0.33135790 -1392.09553713    -0.00000003    -0.00000000  0.61D-09  0.98D-09    67.64
    8    12    12     1.08687938    -0.33135790 -1392.09553713    -0.00000003    -0.00000000  0.68D-09  0.11D-08    67.64
    8    13    13     1.08687838    -0.33135790 -1392.09553713    -0.00000004    -0.00000000  0.79D-09  0.13D-08    67.64
    8    14    14     1.08687772    -0.33135791 -1392.09553713    -0.00000004    -0.00000000  0.90D-09  0.14D-08    67.64
    8    15    15     1.07938612    -0.29420471 -1392.05838393    -0.00000012    -0.00000002  0.26D-08  0.39D-08    67.64
    8    16    16     1.07938554    -0.29420471 -1392.05838393    -0.00000012    -0.00000002  0.28D-08  0.39D-08    67.64
    8    17    17     1.07938561    -0.29420471 -1392.05838393    -0.00000012    -0.00000002  0.28D-08  0.39D-08    67.64


 =====================================
 Analysis of CPU times by interactions
 =====================================

       I      S      P

 I   0.0%
 S   0.0%   0.0%
 P   0.1%   5.8%  30.9%

 Initialization:   0.2%
 Other:           62.8%

 Total CPU:       67.6 seconds
 =====================================



 Wavefunction saved on  5101.2

 Reference coefficients greater than 0.0500000
 =============================================
 2///22           0.0000000   0.0000000   0.0000000   0.0000000   0.0000000   0.0000000   0.9658152   0.0000000   0.0000000
                  0.0000000   0.0000000   0.0000000   0.0000000   0.0054830   0.0000000   0.0000000   0.0000000
 2//2/2           0.0000000   0.0129499   0.0000000   0.0000000   0.0000000   0.9657284   0.0000000   0.0000000   0.0000000
                 -0.0010309   0.0000000   0.0000000  -0.0053853   0.0000000  -0.0000002   0.0000000   0.0000000
 /222//           0.0000000   0.0000000   0.0000000   0.0000000   0.0000000   0.0000000  -0.0052219   0.0000000   0.0000000
                  0.0000000   0.0000000   0.0000000   0.0000000   0.9591854   0.0000000   0.0000000   0.0000000
 /22/2/           0.0000000   0.0000700   0.0000000   0.0000000   0.0000000   0.0052215   0.0000000   0.0000000   0.0000000
                  0.1803298   0.0000000   0.0000000   0.9420813   0.0000000   0.0000001   0.0000000   0.0000000
 2/22//           0.8638421   0.0000000   0.0000000   0.0000000   0.0039674   0.0000000   0.0000000   0.0000000   0.0048766
                  0.0000000  -0.0005200   0.0000000   0.0000000   0.0000000   0.0000000  -0.4304513   0.0000000
 222///           0.0000000   0.8637736   0.0000000   0.0000000   0.0000000  -0.0115829   0.0000000   0.0000000   0.0000000
                  0.0048167   0.0000000   0.0000000  -0.0009220   0.0000000  -0.4304511   0.0000000   0.0000000
 2//22/           0.0000000   0.4318866   0.0000000   0.0000000   0.0000000  -0.0057916   0.0000000   0.0000000   0.0000000
                  0.0024086   0.0000000   0.0000000  -0.0004610   0.0000000   0.8609021   0.0000000   0.0000000
 /2/2/2           0.0000000   0.0000000   0.0037855   0.0027357   0.0000000   0.0000000   0.0000000   0.8550376   0.0000000
                  0.0000000   0.0000000   0.0702553   0.0000000   0.0000000   0.0000000   0.0000000  -0.0015511
 /2//22          -0.0046702   0.0000000   0.0000000   0.0000000  -0.0000213   0.0000000   0.0000000   0.0000000   0.8530757
                  0.0000000  -0.0909791   0.0000000   0.0000000   0.0000000   0.0000000  -0.0015511   0.0000000
 //22/2           0.0011888   0.0000000   0.0000000   0.0000000  -0.0045168   0.0000000   0.0000000   0.0000000  -0.1251982
                  0.0000000   0.8487285   0.0000000   0.0000000   0.0000000   0.0000000  -0.0015511   0.0000000
 //2/22           0.0000000   0.0000000  -0.0017022   0.0043492   0.0000000   0.0000000   0.0000000   0.1457492   0.0000000
                  0.0000000   0.0000000   0.8454390   0.0000000   0.0000000   0.0000000   0.0000000   0.0015510
 ///222           0.0000000  -0.0046707   0.0000000   0.0000000   0.0000000   0.0000628   0.0000000   0.0000000   0.0000000
                  0.8426242   0.0000000   0.0000000  -0.1612926   0.0000000  -0.0015495   0.0000000   0.0000000
 22//2/          -0.2198018   0.0000000   0.0000000   0.0000000   0.8354196   0.0000000   0.0000000   0.0000000  -0.0007155
                  0.0000000   0.0048517   0.0000000   0.0000000   0.0000000   0.0000000  -0.4304510   0.0000000
 22/2//           0.0000000   0.0000000  -0.3148442   0.8044327   0.0000000   0.0000000   0.0000000  -0.0008330   0.0000000
                  0.0000000   0.0000000  -0.0048329   0.0000000   0.0000000   0.0000000   0.0000000  -0.4304512
 22///2           0.3718367   0.0000000   0.0000000   0.0000000   0.4846203   0.0000000   0.0000000   0.0000000   0.0024023
                  0.0000000   0.0025009   0.0000000   0.0000000   0.0000000   0.0000000   0.7455633   0.0000000
 2/2//2           0.0000000   0.0000000  -0.5860230   0.1723263   0.0000000   0.0000000   0.0000000   0.0023409   0.0000000
                  0.0000000   0.0000000  -0.0025583   0.0000000   0.0000000   0.0000000   0.0000000   0.7455632
 2/2/2/           0.0000000   0.0000000   0.7001777   0.5059547   0.0000000   0.0000000   0.0000000  -0.0048878   0.0000000
                  0.0000000   0.0000000  -0.0004016   0.0000000   0.0000000   0.0000000   0.0000000   0.4304512
 /2/22/           0.0000000   0.0000000   0.0031688  -0.0009319   0.0000000   0.0000000   0.0000000   0.4095158   0.0000000
                  0.0000000   0.0000000  -0.4475850   0.0000000   0.0000000   0.0000000   0.0000000   0.0026866
 //222/           0.0020110   0.0000000   0.0000000   0.0000000   0.0026204   0.0000000   0.0000000   0.0000000  -0.4202648
                  0.0000000  -0.4375129   0.0000000   0.0000000   0.0000000   0.0000000  -0.0026869   0.0000000
 /22//2           0.0000000  -0.0023340   0.0000000   0.0000000   0.0000000   0.0000308   0.0000000   0.0000000   0.0000000
                  0.4213081   0.0000000   0.0000000  -0.0806449   0.0000000   0.0030995   0.0000000   0.0000000

 Coefficients of singly external configurations greater than 0.0500000
 =====================================================================

 /22//\  13.1    -0.0000000   0.0000000   0.0000000  -0.0000000   0.0000000   0.0000000  -0.0005312   0.0000000   0.0000000
                 -0.0000000  -0.0000000   0.0000000  -0.0000000   0.0705059   0.0000000   0.0000000   0.0000000
 //22/\  11.1    -0.0000000   0.0000000   0.0000000  -0.0000000   0.0000000   0.0000000  -0.0005313   0.0000000   0.0000000
                 -0.0000000  -0.0000000   0.0000000  -0.0000000   0.0705057   0.0000000   0.0000000   0.0000000
 /2/2/\  12.1    -0.0000000   0.0000000   0.0000000  -0.0000000   0.0000000   0.0000000  -0.0005312   0.0000000   0.0000000
                 -0.0000000  -0.0000000   0.0000000  -0.0000000   0.0705041   0.0000000   0.0000000   0.0000000
 //2/2\  11.1     0.0000000   0.0021007   0.0000000  -0.0000000   0.0000000   0.0005032   0.0000000   0.0000000  -0.0000000
                  0.0090927   0.0000000  -0.0000000   0.0700471  -0.0000000  -0.0074157  -0.0000000  -0.0000000
 /22//\  14.1    -0.0000000  -0.0000071  -0.0000000   0.0000000  -0.0000000  -0.0005311  -0.0000000  -0.0000000   0.0000000
                 -0.0132577  -0.0000000   0.0000000  -0.0692497   0.0000000   0.0000001   0.0000000   0.0000000
 /2//2\  12.1     0.0000000  -0.0020861   0.0000000  -0.0000000   0.0000000   0.0005592   0.0000000   0.0000000  -0.0000000
                  0.0174192   0.0000000  -0.0000000   0.0684511  -0.0000000   0.0074152  -0.0000000  -0.0000000
 ///2\2  11.1    -0.0000000   0.0000000   0.0023448   0.0016942   0.0000000   0.0000000  -0.0000000   0.0677309  -0.0000000
                  0.0000000  -0.0000000   0.0055687   0.0000000  -0.0000000   0.0000000   0.0000000  -0.0060682
 ///\22  11.1    -0.0028927   0.0000000  -0.0000000   0.0000000  -0.0000135  -0.0000000   0.0000000  -0.0000000   0.0675749
                 -0.0000000  -0.0072086   0.0000000  -0.0000000   0.0000000   0.0000000  -0.0060682  -0.0000000
 ///2\2  12.1    -0.0007362   0.0000000   0.0000000  -0.0000000   0.0027975   0.0000000   0.0000000   0.0000000   0.0099194
                 -0.0000000  -0.0672320   0.0000000  -0.0000000  -0.0000000  -0.0000000   0.0060685  -0.0000000
 ///\22  12.1     0.0000000   0.0000000   0.0010542  -0.0026937  -0.0000000   0.0000000   0.0000000  -0.0115462  -0.0000000
                 -0.0000000   0.0000000  -0.0669695   0.0000000  -0.0000000  -0.0000000   0.0000000  -0.0060682
 ///2\2  14.1     0.0000000  -0.0028926  -0.0000000  -0.0000000  -0.0000000   0.0000393   0.0000000   0.0000000   0.0000000
                  0.0667495  -0.0000000   0.0000000  -0.0127767  -0.0000000  -0.0060679   0.0000000  -0.0000000
 ///\22  13.1     0.0000000  -0.0028926  -0.0000000  -0.0000000  -0.0000000   0.0000390   0.0000000   0.0000000   0.0000000
                  0.0667489  -0.0000000   0.0000000  -0.0127780  -0.0000000  -0.0060677   0.0000000  -0.0000000
 /2/2/\  15.1     0.0000000  -0.0000000   0.0004960  -0.0025291  -0.0000000  -0.0000000   0.0000000  -0.0636821  -0.0000000
                 -0.0000000   0.0000000  -0.0099901  -0.0000000   0.0000000  -0.0000000  -0.0000000   0.0017854
 /2//2\  15.1     0.0010901  -0.0000000   0.0000000  -0.0000000  -0.0023353   0.0000000  -0.0000000   0.0000000  -0.0634190
                  0.0000000   0.0115314  -0.0000000   0.0000000  -0.0000000  -0.0000000   0.0017858   0.0000000
 //22/\  15.1    -0.0025382  -0.0000000   0.0000000  -0.0000000   0.0004483   0.0000000  -0.0000000   0.0000000   0.0140719
                 -0.0000000  -0.0629061   0.0000000  -0.0000000  -0.0000000   0.0000000   0.0017860  -0.0000000
 //2/2\  15.1     0.0000000   0.0000000  -0.0017864  -0.0018583  -0.0000000   0.0000000  -0.0000000  -0.0155929  -0.0000000
                 -0.0000000   0.0000000  -0.0625457   0.0000000  -0.0000000  -0.0000000  -0.0000000  -0.0017860
 /2//\2  13.1    -0.0000000  -0.0000000   0.0006932   0.0033888  -0.0000000  -0.0000000   0.0000000  -0.0571429  -0.0000000
                 -0.0000000   0.0000000   0.0000602  -0.0000000   0.0000000  -0.0000000  -0.0000000  -0.0067771
 /2//\2  14.1     0.0025573   0.0000000  -0.0000000   0.0000000  -0.0023289  -0.0000000  -0.0000000  -0.0000000   0.0571264
                 -0.0000000  -0.0013270   0.0000000  -0.0000000   0.0000000   0.0000000   0.0067763  -0.0000000
 //2/\2  13.1     0.0029115  -0.0000000   0.0000000  -0.0000000  -0.0018675   0.0000000  -0.0000000   0.0000000   0.0036221
                 -0.0000000  -0.0570252  -0.0000000  -0.0000000  -0.0000000   0.0000000  -0.0067766  -0.0000000
 //2/\2  14.1    -0.0000000  -0.0000000  -0.0012513  -0.0032247   0.0000000  -0.0000000  -0.0000000   0.0050039   0.0000000
                  0.0000000   0.0000000   0.0569205  -0.0000000   0.0000000   0.0000000   0.0000000  -0.0067765
 ///22\  15.1    -0.0000000  -0.0043591   0.0000000   0.0000000  -0.0000000   0.0000586  -0.0000000  -0.0000000   0.0000000
                 -0.0523226  -0.0000000   0.0000000   0.0100160   0.0000000  -0.0110574   0.0000000   0.0000000

 Coefficients of fixed reference functions:
 ==========================================

 State      Coefficients
 1           0.000000    0.964146    0.000000    0.000000    0.000000    0.000000    0.056749    0.000000   -0.000000    0.000000
             0.000000   -0.005217    0.000000    0.000000    0.000000    0.000000    0.000216
 2           0.000000    0.000000   -0.418657    0.870359    0.000000    0.000000    0.000000   -0.000000    0.000000    0.000000
             0.000000    0.000000    0.001785    0.000000   -0.004907    0.000000    0.000000
 3           0.909810    0.000000    0.000000    0.000000    0.000000   -0.324105    0.000000    0.000000    0.000000    0.000000
             0.004804    0.000000    0.000000    0.000000    0.000000   -0.002048    0.000000
 4           0.324105    0.000000    0.000000    0.000000    0.000000    0.909810    0.000000    0.000000    0.000000   -0.000000
             0.002048    0.000000    0.000000    0.000000    0.000000    0.004804    0.000000
 5           0.000000   -0.056749    0.000000    0.000000    0.000000    0.000000    0.964146    0.000000   -0.000000    0.000000
             0.000000   -0.000216    0.000000    0.000000    0.000000    0.000000   -0.005217
 6           0.000000    0.000000    0.870359    0.418657    0.000000    0.000000    0.000000   -0.000000    0.000000    0.000000
             0.000000    0.000000    0.004907    0.000000    0.001785    0.000000    0.000000
 7           0.000000    0.000000    0.000000    0.000000    0.965815    0.000000    0.000000    0.000000    0.000000    0.000000
             0.000000    0.000000    0.000000   -0.005222    0.000000    0.000000    0.000000
 8          -0.005372    0.000000    0.000000    0.000000    0.000000   -0.001098    0.000000    0.000000    0.000000   -0.000000
             0.949684    0.000000    0.000000    0.000000    0.000000    0.134668    0.000000
 9           0.000000    0.005404    0.000000    0.000000    0.000000    0.000000    0.000926    0.000000   -0.000000    0.000000
             0.000000    0.956876    0.000000    0.000000    0.000000    0.000000    0.066512
 10          0.000000    0.000000   -0.003322    0.004362    0.000000    0.000000    0.000000    0.000000    0.000000    0.000000
             0.000000    0.000000   -0.139894    0.000000    0.948928    0.000000    0.000000
 11          0.000000   -0.000926    0.000000    0.000000    0.000000    0.000000    0.005404    0.000000   -0.000000    0.000000
             0.000000   -0.066512    0.000000    0.000000    0.000000    0.000000    0.956876
 12          0.001098    0.000000    0.000000    0.000000    0.000000   -0.005372    0.000000    0.000000    0.000000    0.000000
            -0.134668    0.000000    0.000000    0.000000    0.000000    0.949684    0.000000
 13          0.000000    0.000000   -0.004362   -0.003322    0.000000    0.000000    0.000000    0.000000    0.000000    0.000000
             0.000000    0.000000    0.948929    0.000000    0.139894    0.000000    0.000000
 14          0.000000    0.000000    0.000000    0.000000    0.005483    0.000000    0.000000    0.000000    0.000000    0.000000
             0.000000    0.000000    0.000000    0.959185    0.000000    0.000000    0.000000
 15          0.000000    0.000000   -0.000000   -0.000000    0.000000    0.000000    0.000000    0.962518    0.000000    0.000000
             0.000000    0.000000    0.000000    0.000000    0.000000    0.000000    0.000000
 16          0.000000   -0.000000    0.000000    0.000000    0.000000    0.000000    0.000000    0.000000    0.962518    0.000000
             0.000000    0.000000    0.000000    0.000000    0.000000    0.000000    0.000000
 17          0.000000    0.000000    0.000000    0.000000    0.000000   -0.000000    0.000000    0.000000    0.000000    0.962518
             0.000000    0.000000    0.000000    0.000000    0.000000   -0.000000    0.000000

 Coefficients of rotated reference functions:
 ============================================

 State      Coefficients
 1           0.965829   -0.000000    0.000000   -0.000000    0.000000    0.000000    0.000000   -0.000000    0.000148   -0.000000
            -0.000016   -0.000000   -0.000000    0.000000    0.000000   -0.000000    0.000000
 2          -0.000000    0.965829    0.000000   -0.000000   -0.000000   -0.000000   -0.000000   -0.000000    0.000000    0.000146
            -0.000000   -0.000000   -0.000030    0.000000   -0.000000   -0.000000    0.000000
 3           0.000000    0.000000    0.965829    0.000000   -0.000000   -0.000000    0.000000   -0.000128    0.000000    0.000000
             0.000000    0.000077   -0.000000    0.000000    0.000000    0.000000    0.000000
 4          -0.000000   -0.000000    0.000000    0.965829    0.000000    0.000000    0.000000   -0.000077   -0.000000    0.000000
            -0.000000   -0.000128   -0.000000    0.000000    0.000000    0.000000   -0.000000
 5           0.000000   -0.000000   -0.000000    0.000000    0.965829    0.000000   -0.000000   -0.000000    0.000017   -0.000000
             0.000148   -0.000000   -0.000000   -0.000000    0.000000    0.000000    0.000000
 6           0.000000   -0.000000   -0.000000    0.000000    0.000000    0.965829    0.000000   -0.000000   -0.000000   -0.000030
            -0.000000   -0.000000   -0.000146    0.000000   -0.000000   -0.000000    0.000000
 7           0.000000   -0.000000    0.000000    0.000000   -0.000000    0.000000    0.965829    0.000000    0.000000    0.000000
             0.000000    0.000000   -0.000000    0.000149   -0.000000   -0.000000   -0.000000
 8          -0.000000   -0.000000   -0.000128   -0.000077   -0.000000   -0.000000    0.000000    0.959200   -0.000000    0.000000
            -0.000000   -0.000000   -0.000000    0.000000    0.000000   -0.000000   -0.000000
 9           0.000148    0.000000    0.000000   -0.000000    0.000017   -0.000000    0.000000   -0.000000    0.959200    0.000000
            -0.000000   -0.000000   -0.000000    0.000000    0.000000    0.000000    0.000000
 10         -0.000000    0.000146    0.000000    0.000000   -0.000000   -0.000030    0.000000    0.000000    0.000000    0.959200
             0.000000    0.000000   -0.000000   -0.000000    0.000000   -0.000000    0.000000
 11         -0.000016   -0.000000    0.000000   -0.000000    0.000148   -0.000000    0.000000   -0.000000   -0.000000    0.000000
             0.959200   -0.000000    0.000000   -0.000000    0.000000    0.000000    0.000000
 12         -0.000000   -0.000000    0.000077   -0.000128   -0.000000   -0.000000    0.000000   -0.000000   -0.000000    0.000000
            -0.000000    0.959200   -0.000000    0.000000    0.000000   -0.000000   -0.000000
 13         -0.000000   -0.000030   -0.000000   -0.000000   -0.000000   -0.000146   -0.000000   -0.000000   -0.000000   -0.000000
             0.000000   -0.000000    0.959201   -0.000000    0.000000   -0.000000   -0.000000
 14          0.000000    0.000000    0.000000    0.000000   -0.000000    0.000000    0.000149    0.000000    0.000000   -0.000000
            -0.000000    0.000000   -0.000000    0.959201   -0.000000   -0.000000    0.000000
 15          0.000000   -0.000000    0.000000    0.000000    0.000000   -0.000000   -0.000000    0.000000    0.000000    0.000000
             0.000000    0.000000    0.000000   -0.000000    0.962518   -0.000000   -0.000000
[...]
   39    5.1  1.5 -0.5   0.000%   0.000%   0.000%   0.000%   0.000%   0.000%   0.000%   0.000%   0.000%   0.000%
   40    6.1  1.5 -0.5   0.000%   0.000%   0.000%   0.000%   0.000%   0.000%   0.000%   0.000%   0.000%   0.000%
   41    7.1  1.5 -0.5   0.000%   0.000%   0.000%   0.000%   0.000%   0.000%   0.000%   0.000%   0.000%   0.000%
   42    8.1  1.5 -0.5   0.087%   0.010%   0.008%   1.289%   0.003%  14.011%   7.395%   0.000%  11.224%   0.006%
   43    9.1  1.5 -0.5   7.642%   0.911%   0.055%   8.718%   0.003%  13.180%   8.484%   0.000%  13.009%   0.007%
   44   10.1  1.5 -0.5   0.059%   0.496%   0.845%   0.005%   1.031%   0.000%   0.000%   0.084%   0.005%   8.363%
   45   11.1  1.5 -0.5  22.075%   2.633%   0.000%   0.063%   0.001%   4.127%   7.420%   0.000%   6.273%   0.004%
   46   12.1  1.5 -0.5   5.137%   0.613%   0.014%   2.218%   0.006%  23.498%  10.812%   0.000%   7.629%   0.004%
   47   13.1  1.5 -0.5   0.881%   7.391%  10.854%   0.068%   0.559%   0.000%   0.000%   4.532%   0.006%   9.981%
   48   14.1  1.5 -0.5   0.363%   3.048%  19.104%   0.120%   4.644%   0.001%   0.000%   2.849%   0.007%  11.800%
   49   15.1  1.5 -0.5   0.000%   0.000%   0.000%   0.000%   0.000%   0.000%   0.000%   0.000%   0.000%   0.000%
   50   16.1  1.5 -0.5   0.000%   0.000%   0.000%   0.000%   0.000%   0.000%   0.000%   0.000%   0.000%   0.000%
   51   17.1  1.5 -0.5   0.000%   0.000%   0.000%   0.000%   0.000%   0.000%   0.000%   0.000%   0.000%   0.000%
   52    1.1  1.5 -1.5   0.000%   0.000%   0.000%   0.000%   0.000%   0.000%   0.000%   0.000%   0.000%   0.000%
   53    2.1  1.5 -1.5   0.000%   0.000%   0.000%   0.000%   0.000%   0.000%   0.000%   0.000%   0.000%   0.000%
   54    3.1  1.5 -1.5   0.000%   0.000%   0.000%   0.000%   0.000%   0.000%   0.000%   0.000%   0.000%   0.000%
   55    4.1  1.5 -1.5   0.000%   0.000%   0.000%   0.000%   0.000%   0.000%   0.000%   0.000%   0.000%   0.000%
   56    5.1  1.5 -1.5   0.000%   0.000%   0.000%   0.000%   0.000%   0.000%   0.000%   0.000%   0.000%   0.000%
   57    6.1  1.5 -1.5   0.000%   0.000%   0.000%   0.000%   0.000%   0.000%   0.000%   0.000%   0.000%   0.000%
   58    7.1  1.5 -1.5   0.000%   0.000%   0.000%   0.000%   0.000%   0.000%   0.000%   0.000%   0.000%   0.000%
   59    8.1  1.5 -1.5   1.838%  15.412%   3.765%   0.024%   1.082%   0.000%   0.000%   6.193%   0.005%   9.504%
   60    9.1  1.5 -1.5   0.232%   1.948%  12.832%   0.081%   0.213%   0.000%   0.000%   5.197%   0.000%   0.220%
   61   10.1  1.5 -1.5   0.009%   0.001%   0.176%  27.946%   0.001%   3.120%  25.514%   0.000%   0.037%   0.000%
   62   11.1  1.5 -1.5   0.354%   2.966%   1.440%   0.009%   0.322%   0.000%   0.000%  11.085%   0.000%   0.027%
   63   12.1  1.5 -1.5   1.922%  16.112%   0.226%   0.001%   4.895%   0.001%   0.000%   9.812%   0.005%   9.223%
   64   13.1  1.5 -1.5   7.011%   0.836%   0.022%   3.441%   0.002%   8.906%   0.035%   0.000%   6.348%   0.004%
   65   14.1  1.5 -1.5   0.011%   0.001%   0.042%   6.634%   0.005%  20.386%   0.586%   0.000%   6.305%   0.004%
   66   15.1  1.5 -1.5   0.000%   0.000%   0.000%   0.000%   0.000%   0.000%   0.000%   0.000%   0.000%   0.000%
   67   16.1  1.5 -1.5   0.000%   0.000%   0.000%   0.000%   0.000%   0.000%   0.000%   0.000%   0.000%   0.000%
   68   17.1  1.5 -1.5   0.000%   0.000%   0.000%   0.000%   0.000%   0.000%   0.000%   0.000%   0.000%   0.000%

   Nr   State  S   Sz      51       52       53       54       55       56       57       58       59       60

    1    1.1  1.5  1.5   0.000%   0.000%   0.000%   0.000%   0.000%   0.000%   0.000%   0.000%   0.000%   0.000%
    2    2.1  1.5  1.5   0.000%   0.000%   0.000%   0.000%   0.000%   0.000%   0.000%   0.000%   0.000%   0.000%
    3    3.1  1.5  1.5   0.000%   0.000%   0.000%   0.000%   0.000%   0.000%   0.000%   0.000%   0.000%   0.000%
    4    4.1  1.5  1.5   0.000%   0.000%   0.000%   0.000%   0.000%   0.000%   0.000%   0.000%   0.000%   0.000%
    5    5.1  1.5  1.5   0.000%   0.000%   0.000%   0.000%   0.000%   0.000%   0.000%   0.000%   0.000%   0.000%
    6    6.1  1.5  1.5   0.000%   0.000%   0.000%   0.000%   0.000%   0.000%   0.000%   0.000%   0.000%   0.000%
    7    7.1  1.5  1.5   0.000%   0.000%   0.000%   0.000%   0.000%   0.000%   0.000%   0.000%   0.000%   0.000%
    8    8.1  1.5  1.5   4.275%   0.000%   0.000%   1.746%   0.000%  16.408%   0.000%   0.000%   0.000%   0.000%
    9    9.1  1.5  1.5  14.769%   0.000%   0.000%   1.517%   0.000%  16.083%   0.000%   0.000%   0.000%   0.000%
   10   10.1  1.5  1.5   0.000%   0.007%   2.612%   0.000%   0.650%   0.000%   0.000%   0.000%   0.000%   0.000%
   11   11.1  1.5  1.5   9.419%   0.000%   0.000%  13.764%   0.000%   2.916%   0.000%   0.000%   0.000%   0.000%
   12   12.1  1.5  1.5   1.700%   0.000%   0.000%  13.536%   0.000%   2.592%   0.000%   0.000%   0.000%   0.000%
   13   13.1  1.5  1.5   0.000%  15.191%   6.892%   0.000%   6.994%   0.000%   0.000%   0.000%   0.000%   0.000%
   14   14.1  1.5  1.5   0.000%  14.533%   8.308%   0.000%   5.983%   0.000%   0.000%   0.000%   0.000%   0.000%
   15   15.1  1.5  1.5   0.000%   0.000%   0.000%   0.000%   0.000%   0.000%   0.433%   0.000%  39.547%   0.024%
   16   16.1  1.5  1.5   0.000%   0.000%   0.000%   0.000%   0.000%   0.000%   0.001%   4.156%   0.000%   0.041%
   17   17.1  1.5  1.5   0.000%   0.000%   0.000%   0.000%   0.000%   0.000%   0.001%   5.795%   0.000%   0.068%
   18    1.1  1.5  0.5   0.000%   0.000%   0.000%   0.000%   0.000%   0.000%   0.000%   0.000%   0.000%   0.000%
   19    2.1  1.5  0.5   0.000%   0.000%   0.000%   0.000%   0.000%   0.000%   0.000%   0.000%   0.000%   0.000%
   20    3.1  1.5  0.5   0.000%   0.000%   0.000%   0.000%   0.000%   0.000%   0.000%   0.000%   0.000%   0.000%
   21    4.1  1.5  0.5   0.000%   0.000%   0.000%   0.000%   0.000%   0.000%   0.000%   0.000%   0.000%   0.000%
   22    5.1  1.5  0.5   0.000%   0.000%   0.000%   0.000%   0.000%   0.000%   0.000%   0.000%   0.000%   0.000%
   23    6.1  1.5  0.5   0.000%   0.000%   0.000%   0.000%   0.000%   0.000%   0.000%   0.000%   0.000%   0.000%
   24    7.1  1.5  0.5   0.000%   0.000%   0.000%   0.000%   0.000%   0.000%   0.000%   0.000%   0.000%   0.000%
   25    8.1  1.5  0.5   0.000%   4.252%  10.082%   0.000%   0.334%   0.000%   0.000%   0.000%   0.000%   0.000%
   26    9.1  1.5  0.5   0.000%   1.170%   1.244%   0.000%   9.725%   0.000%   0.000%   0.000%   0.000%   0.000%
   27   10.1  1.5  0.5   8.847%   0.000%   0.000%  18.120%   0.000%   7.185%   0.000%   0.000%   0.000%   0.000%
   28   11.1  1.5  0.5   0.000%   8.628%   1.348%   0.000%  10.539%   0.000%   0.000%   0.000%   0.000%   0.000%
   29   12.1  1.5  0.5   0.000%   3.673%  12.042%   0.000%   0.399%   0.000%   0.000%   0.000%   0.000%   0.000%
   30   13.1  1.5  0.5   6.760%   0.000%   0.000%   2.806%   0.000%  11.885%   0.000%   0.000%   0.000%   0.000%
   31   14.1  1.5  0.5   6.776%   0.000%   0.000%   5.982%   0.000%   8.306%   0.000%   0.000%   0.000%   0.000%
   32   15.1  1.5  0.5   0.000%   0.000%   0.000%   0.000%   0.000%   0.000%   0.010%  59.303%   0.000%   0.648%
   33   16.1  1.5  0.5   0.000%   0.000%   0.000%   0.000%   0.000%   0.000%  10.762%   0.002%  34.200%   0.021%
   34   17.1  1.5  0.5   0.000%   0.000%   0.000%   0.000%   0.000%   0.000%  19.535%   0.003%  25.435%   0.016%
   35    1.1  1.5 -0.5   0.000%   0.000%   0.000%   0.000%   0.000%   0.000%   0.000%   0.000%   0.000%   0.000%
   36    2.1  1.5 -0.5   0.000%   0.000%   0.000%   0.000%   0.000%   0.000%   0.000%   0.000%   0.000%   0.000%
   37    3.1  1.5 -0.5   0.000%   0.000%   0.000%   0.000%   0.000%   0.000%   0.000%   0.000%   0.000%   0.000%
   38    4.1  1.5 -0.5   0.000%   0.000%   0.000%   0.000%   0.000%   0.000%   0.000%   0.000%   0.000%   0.000%
   39    5.1  1.5 -0.5   0.000%   0.000%   0.000%   0.000%   0.000%   0.000%   0.000%   0.000%   0.000%   0.000%
   40    6.1  1.5 -0.5   0.000%   0.000%   0.000%   0.000%   0.000%   0.000%   0.000%   0.000%   0.000%   0.000%
   41    7.1  1.5 -0.5   0.000%   0.000%   0.000%   0.000%   0.000%   0.000%   0.000%   0.000%   0.000%   0.000%
   42    8.1  1.5 -0.5   4.252%   0.000%   0.000%  10.082%   0.000%   0.334%   0.000%   0.000%   0.000%   0.000%
   43    9.1  1.5 -0.5   1.170%   0.000%   0.000%   1.244%   0.000%   9.725%   0.000%   0.000%   0.000%   0.000%
   44   10.1  1.5 -0.5   0.000%   8.847%  18.120%   0.000%   7.185%   0.000%   0.000%   0.000%   0.000%   0.000%
   45   11.1  1.5 -0.5   8.628%   0.000%   0.000%   1.348%   0.000%  10.539%   0.000%   0.000%   0.000%   0.000%
   46   12.1  1.5 -0.5   3.673%   0.000%   0.000%  12.042%   0.000%   0.399%   0.000%   0.000%   0.000%   0.000%
   47   13.1  1.5 -0.5   0.000%   6.760%   2.806%   0.000%  11.885%   0.000%   0.000%   0.000%   0.000%   0.000%
   48   14.1  1.5 -0.5   0.000%   6.776%   5.982%   0.000%   8.306%   0.000%   0.000%   0.000%   0.000%   0.000%
   49   15.1  1.5 -0.5   0.000%   0.000%   0.000%   0.000%   0.000%   0.000%  59.303%   0.010%   0.648%   0.000%
   50   16.1  1.5 -0.5   0.000%   0.000%   0.000%   0.000%   0.000%   0.000%   0.002%  10.762%   0.021%  34.200%
   51   17.1  1.5 -0.5   0.000%   0.000%   0.000%   0.000%   0.000%   0.000%   0.003%  19.535%   0.016%  25.435%
   52    1.1  1.5 -1.5   0.000%   0.000%   0.000%   0.000%   0.000%   0.000%   0.000%   0.000%   0.000%   0.000%
   53    2.1  1.5 -1.5   0.000%   0.000%   0.000%   0.000%   0.000%   0.000%   0.000%   0.000%   0.000%   0.000%
   54    3.1  1.5 -1.5   0.000%   0.000%   0.000%   0.000%   0.000%   0.000%   0.000%   0.000%   0.000%   0.000%
   55    4.1  1.5 -1.5   0.000%   0.000%   0.000%   0.000%   0.000%   0.000%   0.000%   0.000%   0.000%   0.000%
   56    5.1  1.5 -1.5   0.000%   0.000%   0.000%   0.000%   0.000%   0.000%   0.000%   0.000%   0.000%   0.000%
   57    6.1  1.5 -1.5   0.000%   0.000%   0.000%   0.000%   0.000%   0.000%   0.000%   0.000%   0.000%   0.000%
   58    7.1  1.5 -1.5   0.000%   0.000%   0.000%   0.000%   0.000%   0.000%   0.000%   0.000%   0.000%   0.000%
   59    8.1  1.5 -1.5   0.000%   4.275%   1.746%   0.000%  16.408%   0.000%   0.000%   0.000%   0.000%   0.000%
   60    9.1  1.5 -1.5   0.000%  14.769%   1.517%   0.000%  16.083%   0.000%   0.000%   0.000%   0.000%   0.000%
   61   10.1  1.5 -1.5   0.007%   0.000%   0.000%   2.612%   0.000%   0.650%   0.000%   0.000%   0.000%   0.000%
   62   11.1  1.5 -1.5   0.000%   9.419%  13.764%   0.000%   2.916%   0.000%   0.000%   0.000%   0.000%   0.000%
   63   12.1  1.5 -1.5   0.000%   1.700%  13.536%   0.000%   2.592%   0.000%   0.000%   0.000%   0.000%   0.000%
   64   13.1  1.5 -1.5  15.191%   0.000%   0.000%   6.892%   0.000%   6.994%   0.000%   0.000%   0.000%   0.000%
   65   14.1  1.5 -1.5  14.533%   0.000%   0.000%   8.308%   0.000%   5.983%   0.000%   0.000%   0.000%   0.000%
   66   15.1  1.5 -1.5   0.000%   0.000%   0.000%   0.000%   0.000%   0.000%   0.000%   0.433%   0.024%  39.547%
   67   16.1  1.5 -1.5   0.000%   0.000%   0.000%   0.000%   0.000%   0.000%   4.156%   0.001%   0.041%   0.000%
   68   17.1  1.5 -1.5   0.000%   0.000%   0.000%   0.000%   0.000%   0.000%   5.795%   0.001%   0.068%   0.000%

   Nr   State  S   Sz      61       62       63       64       65       66       67       68

    1    1.1  1.5  1.5   0.000%   0.000%   0.000%   0.000%   0.000%   0.000%   0.000%   0.000%
    2    2.1  1.5  1.5   0.000%   0.000%   0.000%   0.000%   0.000%   0.000%   0.000%   0.000%
    3    3.1  1.5  1.5   0.000%   0.000%   0.000%   0.000%   0.000%   0.000%   0.000%   0.000%
    4    4.1  1.5  1.5   0.000%   0.000%   0.000%   0.000%   0.000%   0.000%   0.000%   0.000%
    5    5.1  1.5  1.5   0.000%   0.000%   0.000%   0.000%   0.000%   0.000%   0.000%   0.000%
    6    6.1  1.5  1.5   0.000%   0.000%   0.000%   0.000%   0.000%   0.000%   0.000%   0.000%
    7    7.1  1.5  1.5   0.000%   0.000%   0.000%   0.000%   0.000%   0.000%   0.000%   0.000%
    8    8.1  1.5  1.5   0.000%   0.000%   0.000%   0.000%   0.000%   0.000%   0.000%   0.000%
    9    9.1  1.5  1.5   0.000%   0.000%   0.000%   0.000%   0.000%   0.000%   0.000%   0.000%
   10   10.1  1.5  1.5   0.000%   0.000%   0.000%   0.000%   0.000%   0.000%   0.000%   0.000%
   11   11.1  1.5  1.5   0.000%   0.000%   0.000%   0.000%   0.000%   0.000%   0.000%   0.000%
   12   12.1  1.5  1.5   0.000%   0.000%   0.000%   0.000%   0.000%   0.000%   0.000%   0.000%
   13   13.1  1.5  1.5   0.000%   0.000%   0.000%   0.000%   0.000%   0.000%   0.000%   0.000%
   14   14.1  1.5  1.5   0.000%   0.000%   0.000%   0.000%   0.000%   0.000%   0.000%   0.000%
   15   15.1  1.5  1.5   0.000%   0.000%   0.000%  59.496%   0.500%   0.000%   0.000%   0.000%
   16   16.1  1.5  1.5   0.000%  50.801%   0.167%   0.000%   0.000%  19.833%   0.000%  25.001%
   17   17.1  1.5  1.5   0.000%  49.136%   0.167%   0.000%   0.000%  19.832%   0.000%  25.001%
   18    1.1  1.5  0.5   0.000%   0.000%   0.000%   0.000%   0.000%   0.000%   0.000%   0.000%
   19    2.1  1.5  0.5   0.000%   0.000%   0.000%   0.000%   0.000%   0.000%   0.000%   0.000%
   20    3.1  1.5  0.5   0.000%   0.000%   0.000%   0.000%   0.000%   0.000%   0.000%   0.000%
   21    4.1  1.5  0.5   0.000%   0.000%   0.000%   0.000%   0.000%   0.000%   0.000%   0.000%
   22    5.1  1.5  0.5   0.000%   0.000%   0.000%   0.000%   0.000%   0.000%   0.000%   0.000%
   23    6.1  1.5  0.5   0.000%   0.000%   0.000%   0.000%   0.000%   0.000%   0.000%   0.000%
   24    7.1  1.5  0.5   0.000%   0.000%   0.000%   0.000%   0.000%   0.000%   0.000%   0.000%
   25    8.1  1.5  0.5   0.000%   0.000%   0.000%   0.000%   0.000%   0.000%   0.000%   0.000%
   26    9.1  1.5  0.5   0.000%   0.000%   0.000%   0.000%   0.000%   0.000%   0.000%   0.000%
   27   10.1  1.5  0.5   0.000%   0.000%   0.000%   0.000%   0.000%   0.000%   0.000%   0.000%
   28   11.1  1.5  0.5   0.000%   0.000%   0.000%   0.000%   0.000%   0.000%   0.000%   0.000%
   29   12.1  1.5  0.5   0.000%   0.000%   0.000%   0.000%   0.000%   0.000%   0.000%   0.000%
   30   13.1  1.5  0.5   0.000%   0.000%   0.000%   0.000%   0.000%   0.000%   0.000%   0.000%
   31   14.1  1.5  0.5   0.000%   0.000%   0.000%   0.000%   0.000%   0.000%   0.000%   0.000%
   32   15.1  1.5  0.5   0.000%   0.042%   0.056%   0.000%   0.000%   6.611%   0.000%  33.331%
   33   16.1  1.5  0.5   0.012%   0.000%   0.000%  15.858%  30.812%   0.000%   8.334%   0.000%
   34   17.1  1.5  0.5   0.009%   0.000%   0.000%  24.258%  22.412%   0.000%   8.333%   0.000%
   35    1.1  1.5 -0.5   0.000%   0.000%   0.000%   0.000%   0.000%   0.000%   0.000%   0.000%
   36    2.1  1.5 -0.5   0.000%   0.000%   0.000%   0.000%   0.000%   0.000%   0.000%   0.000%
   37    3.1  1.5 -0.5   0.000%   0.000%   0.000%   0.000%   0.000%   0.000%   0.000%   0.000%
   38    4.1  1.5 -0.5   0.000%   0.000%   0.000%   0.000%   0.000%   0.000%   0.000%   0.000%
   39    5.1  1.5 -0.5   0.000%   0.000%   0.000%   0.000%   0.000%   0.000%   0.000%   0.000%
   40    6.1  1.5 -0.5   0.000%   0.000%   0.000%   0.000%   0.000%   0.000%   0.000%   0.000%
   41    7.1  1.5 -0.5   0.000%   0.000%   0.000%   0.000%   0.000%   0.000%   0.000%   0.000%
   42    8.1  1.5 -0.5   0.000%   0.000%   0.000%   0.000%   0.000%   0.000%   0.000%   0.000%
   43    9.1  1.5 -0.5   0.000%   0.000%   0.000%   0.000%   0.000%   0.000%   0.000%   0.000%
   44   10.1  1.5 -0.5   0.000%   0.000%   0.000%   0.000%   0.000%   0.000%   0.000%   0.000%
   45   11.1  1.5 -0.5   0.000%   0.000%   0.000%   0.000%   0.000%   0.000%   0.000%   0.000%
   46   12.1  1.5 -0.5   0.000%   0.000%   0.000%   0.000%   0.000%   0.000%   0.000%   0.000%
   47   13.1  1.5 -0.5   0.000%   0.000%   0.000%   0.000%   0.000%   0.000%   0.000%   0.000%
   48   14.1  1.5 -0.5   0.000%   0.000%   0.000%   0.000%   0.000%   0.000%   0.000%   0.000%
   49   15.1  1.5 -0.5   0.042%   0.000%   0.000%   0.056%   6.611%   0.000%  33.331%   0.000%
   50   16.1  1.5 -0.5   0.000%   0.012%  15.858%   0.000%   0.000%  30.812%   0.000%   8.334%
   51   17.1  1.5 -0.5   0.000%   0.009%  24.258%   0.000%   0.000%  22.412%   0.000%   8.333%
   52    1.1  1.5 -1.5   0.000%   0.000%   0.000%   0.000%   0.000%   0.000%   0.000%   0.000%
   53    2.1  1.5 -1.5   0.000%   0.000%   0.000%   0.000%   0.000%   0.000%   0.000%   0.000%
   54    3.1  1.5 -1.5   0.000%   0.000%   0.000%   0.000%   0.000%   0.000%   0.000%   0.000%
   55    4.1  1.5 -1.5   0.000%   0.000%   0.000%   0.000%   0.000%   0.000%   0.000%   0.000%
   56    5.1  1.5 -1.5   0.000%   0.000%   0.000%   0.000%   0.000%   0.000%   0.000%   0.000%
   57    6.1  1.5 -1.5   0.000%   0.000%   0.000%   0.000%   0.000%   0.000%   0.000%   0.000%
   58    7.1  1.5 -1.5   0.000%   0.000%   0.000%   0.000%   0.000%   0.000%   0.000%   0.000%
   59    8.1  1.5 -1.5   0.000%   0.000%   0.000%   0.000%   0.000%   0.000%   0.000%   0.000%
   60    9.1  1.5 -1.5   0.000%   0.000%   0.000%   0.000%   0.000%   0.000%   0.000%   0.000%
   61   10.1  1.5 -1.5   0.000%   0.000%   0.000%   0.000%   0.000%   0.000%   0.000%   0.000%
   62   11.1  1.5 -1.5   0.000%   0.000%   0.000%   0.000%   0.000%   0.000%   0.000%   0.000%
   63   12.1  1.5 -1.5   0.000%   0.000%   0.000%   0.000%   0.000%   0.000%   0.000%   0.000%
   64   13.1  1.5 -1.5   0.000%   0.000%   0.000%   0.000%   0.000%   0.000%   0.000%   0.000%
   65   14.1  1.5 -1.5   0.000%   0.000%   0.000%   0.000%   0.000%   0.000%   0.000%   0.000%
   66   15.1  1.5 -1.5   0.000%   0.000%  59.496%   0.000%   0.000%   0.500%   0.000%   0.000%
   67   16.1  1.5 -1.5  50.801%   0.000%   0.000%   0.167%  19.833%   0.000%  25.001%   0.000%
   68   17.1  1.5 -1.5  49.136%   0.000%   0.000%   0.167%  19.832%   0.000%  25.001%   0.000%


 Property matrices transformed in SO basis (not sym. adapted)
 ============================================================

 No matrix element <i|DMX|i> larger than 5E-7
 No matrix element <i|DMX|1> larger than 5E-7

 No matrix element <i|DMY|i> larger than 5E-7
 No matrix element <i|DMY|1> larger than 5E-7

 No matrix element <i|DMZ|i> larger than 5E-7
 No matrix element <i|DMZ|1> larger than 5E-7


 **********************************************************************************************************************************
 DATASETS  * FILE   NREC   LENGTH (MB)   RECORD NAMES
              1      24       36.51       500      610      700      900      950      970     1000      129      960     1700   
                                          VAR    BASINP    GEOM    SYMINP    ZMAT    AOBASIS   BASIS     P2S    ABASIS    OPER   
                                         1101     1401     1411     1412     1650     1100     1400     1410     1200     1210   
                                          SR      EKINR    POTR     PVPR    MOLCAS      S      EKIN      POT      H0       H01  
                                         1080     1600     1380     1700(1)
                                         AOSYM     SMH     JKOP     OPER   

              2       6       88.19       700     1000      520     2100     2140     5101   
                                         GEOM     BASIS   MCVARS     RHF     MCSCF    MRCI   

 PROGRAMS   *        TOTAL        CI        CI     MULTI   RHF-SCF       INT
 CPU TIMES  *       387.77    312.86     71.91      0.96      0.96      0.88
 REAL TIME  *       426.82 SEC
 DISK USED  *       124.76 MB (local),        2.27 GB (total)
 SF USED    *       839.23 MB
 GA USED    *         0.00 MB       (max)       0.00 MB       (current)
 **********************************************************************************************************************************

 CI/cc-pWCVTZ-DK energy=  -1392.079329666761

              CI           MULTI         RHF-SCF
  -1392.05838393  -1391.77105767  -1391.79882347
 **********************************************************************************************************************************
 Molpro calculation terminated
