
 Working directory              : /wrk/irikura/molpro.mA93EOVpua/
 Global scratch directory       : /wrk/irikura/molpro.mA93EOVpua/
 Wavefunction directory         : /home/irikura/wfu/
 Main file repository           : /wrk/irikura/molpro.mA93EOVpua/

 id        : nistki

 Nodes            nprocs
 pn125343.nist.gov   10
 GA implementation: MPI file
 GA implementation (serial work in mppx): MPI file

 Using customized tuning parameters: mindgm=1; mindgv=20; mindgc=4; mindgr=1; noblas=0; minvec=7
 default implementation of scratch files=sf  


 Variables initialized (1025), CPU time= 0.01 sec
 ***,Co atom, larger active space, smaller core
                                                                                 ! 4F + 4F + 4P + [missing 2F] + 2G + 2P + 2D
 memory,6000,M;
 
 gprint,orbitals,civector
 
 symmetry,xyz
 geometry={Co}
 
 basis=cc-pwCVTZ-DK
 
 set,dkho=101
 
                                                                                 ! Co anion orbitals to favor s2 (?)
 {rhf,so-sci;wf,nelec=28,sym=1, spin=2}
 
                                                                                 ! state-averaged casscf
 {multi
     closed,2,3
     dynw,20
                                                                                 ! quartets
     wf,nelec=27,sym=1,spin=3; state,17;
                                                                                 ! doublets
     wf,nelec=27,sym=1,spin=1; state,17;
     expec2,lxx,lyy,lzz;
  }
 table, energy, ll
 title, Energies and &lt;L**2&gt; values
 
 {ci;wf,sym=1,spin=3; state,17;save,5101.2}
 hlsdiag = energd4
 {ci;option,nstati=18;wf,sym=1,spin=1;state,17;save,5102.2}
 hlsdiag(18) = energd4
 
 table, hlsdiag
 
                                                                                 !compute and diagonalize SO matrix
 lsint                                                                           ! workaround for post-2021 versions of Molpro
 {ci;hlsmat,ls,5101.2,5102.2;print,vls=0,hls=0}
 
 Commands initialized (840), CPU time= 0.01 sec, 684 directives.
 Default parameters read. Elapsed time= 0.09 sec

 Checking input...
 Passed
1


                                         ***  PROGRAM SYSTEM MOLPRO  ***
                                       Copyright, TTI GmbH Stuttgart, 2015
                                    Version 2022.3 linked Wed Nov 30 06:40:34 2022


 **********************************************************************************************************************************
 LABEL *   Co ator activesmaller                                                         
  64 bit mpp version                                                                     DATE: 02-Feb-24          TIME: 00:07:06  
 **********************************************************************************************************************************

 SHA1:             e31ec9a5ea85254ab76f59d122cbdd51c71cf98b
 **********************************************************************************************************************************

 Memory per process:      6000 MW
 Total memory per node:  60000 MW

 GA preallocation disabled
 GA check disabled

 Variable memory set to 6000.0 MW


 ZSYMEL=XYZ

 SETTING BASIS          =    CC-PWCVTZ-DK
 SETTING DKHO           =       101.00000000                                  


 Recomputing integrals since basis changed


 Using spherical harmonics

 Library entry CO     S cc-pwCVTZ-DK         selected for orbital group  1
 Library entry CO     P cc-pwCVTZ-DK         selected for orbital group  1
 Library entry CO     D cc-pwCVTZ-DK         selected for orbital group  1
 Library entry CO     F cc-pwCVTZ-DK         selected for orbital group  1
 Library entry CO     G cc-pwCVTZ-DK         selected for orbital group  1


 PROGRAM * SEWARD (Integral evaluation for generally contracted gaussian basis sets)     Author: Roland Lindh, 1990

 Geometry written to block  1 of record 700

 Orientation using atomic masses  
 Molecule type: Atom
 User-specified symmetry elements: XYZ
 Symmetry elements: XYZ
 Rotational constants:       0.0000000      0.0000000      0.0000000 GHz  (calculated with average atomic masses)

 Point group  Ci  



 ATOMIC COORDINATES

 NR  ATOM    CHARGE       X              Y              Z

   1  CO     27.00    0.000000000    0.000000000    0.000000000

 NUCLEAR CHARGE:                   27
 NUMBER OF PRIMITIVE AOS:         196
 NUMBER OF SYMMETRY AOS:          165
 NUMBER OF CONTRACTIONS:          102   (   57Ag  +   45Au  )
 NUMBER OF INNER CORE ORBITALS:     5   (    2Ag  +    3Au  )
 NUMBER OF OUTER CORE ORBITALS:     4   (    1Ag  +    3Au  )
 NUMBER OF VALENCE ORBITALS:        6   (    6Ag  +    0Au  )


 NUCLEAR REPULSION ENERGY    0.00000000

 One-electron integrals computed with SEWARD

 eXact-2-Component (X2C) method activated

 Computing Douglas-Kroll / X2C integrals

 AO integral compression algorithm  1   Integral accuracy      1.0D-11

     16.515 MB (compressed) written to integral file ( 15.5%)

     Node minimum: 0.786 MB, node maximum: 2.621 MB


 NUMBER OF SORTED TWO-ELECTRON INTEGRALS:     701287.     BUFFER LENGTH:  32768
 NUMBER OF SEGMENTS:   1  SEGMENT LENGTH:     701287      RECORD LENGTH: 524288

 Memory used in sort:       1.26 MW

 SORT1 READ    12883698. AND WROTE      138706. INTEGRALS IN      1 RECORDS. CPU TIME:     0.07 SEC, REAL TIME:     0.07 SEC
 SORT2 READ     1353984. AND WROTE     7035726. INTEGRALS IN     80 RECORDS. CPU TIME:     0.02 SEC, REAL TIME:     0.02 SEC

 Node minimum:      700215.  Node maximum:      707056. integrals

 OPERATOR DM      FOR CENTER  0  COORDINATES:    0.000000    0.000000    0.000000

 EXTRA SYMMETRY OF AOS IN SYMMETRY 1:   1 1 1 1 1 1 1 1 1 2   3 4 5 6 2 3 4 5 6 2   3 4 5 6 2 3 4 5 6 2   3 4 5 6 2 3 4 5 6 7
                                        8 9101112131415 7 8   9101112131415
 EXTRA SYMMETRY OF AOS IN SYMMETRY 2:   1 2 3 1 2 3 1 2 3 1   2 3 1 2 3 1 2 3 1 2   3 1 2 3 4 5 6 7 8 9  10 4 5 6 7 8 910 4 5
                                        6 7 8 910

 Eigenvalues of metric

         1 0.366E-03 0.267E-02 0.154E-01 0.154E-01 0.154E-01 0.154E-01 0.154E-01 0.248E-01
         2 0.242E-03 0.242E-03 0.242E-03 0.177E-02 0.177E-02 0.177E-02 0.125E+00 0.125E+00


 **********************************************************************************************************************************
 DATASETS  * FILE   NREC   LENGTH (MB)   RECORD NAMES
              1      22       29.06       500      610      700      900      950      970     1000      129      960     1700   
                                          VAR    BASINP    GEOM    SYMINP    ZMAT    AOBASIS   BASIS     P2S    ABASIS    OPER   
                                         1101     1401     1411     1412     1650     1100     1400     1410     1200     1210   
                                          SR      EKINR    POTR     PVPR    MOLCAS      S      EKIN      POT      H0       H01  
                                         1080     1600   
                                         AOSYM     SMH  

 PROGRAMS   *        TOTAL       INT
 CPU TIMES  *         1.30      1.12
 REAL TIME  *         3.50 SEC
 DISK USED  *        29.34 MB (local),      341.78 MB (total)
 GA USED    *         0.00 MB       (max)       0.00 MB       (current)
 **********************************************************************************************************************************


 Program * Restricted Hartree-Fock

 Orbital guess generated from atomic densities. Full valence occupancy:    9   6

 Initial alpha occupancy:   9   6
 Initial beta  occupancy:   7   6
 
 SO-SCI SOLVER WITH NELEC=28 SYM=1 MS2=2 THRE=1.0D-08 THRG=3.2D-06
 
 Authors: D.A. Kreplin, H.-J. Werner (2022)
 
 Number of closed-shell orbitals:                13   (    7    6)
 Number of singly occupied active orbitals:       2   (    2    0)
 Number of virtual orbitals:                     87   (   48   39)
 
 ITER.  MIC  NCI          ENERGY    ENERGY CHANGE          GRAD      ORB GRAD        CI RES  NQN        STEP      TIME
    1    1    0   -1390.91468015   -1390.91468015    2.40142143    2.40142143    0.00000000    0    0.56E+00      0.04
    2    1    0   -1391.18766759      -0.27298744    2.43347276    2.43347276    0.00000000    0    0.39E+00      0.08
    3    1    0   -1391.23683981      -0.04917222    2.29874619    2.29874619    0.00000000    0    0.45E+00      0.11
    4    1    0   -1391.15476520       0.08207461    2.43336852    2.43336852    0.00000000    0    0.40E+00      0.14
    5    2    0   -1391.30895066      -0.15418546    2.15333944    2.15333944    0.00000000    1    0.36E+00      0.23
    6    2    0   -1391.47493965      -0.16598899    1.39525168    1.39525168    0.00000000    1    0.37E+00      0.28
    7    1    0   -1391.60567052      -0.13073087    0.68559345    0.68559345    0.00000000    2    0.49E+00      0.31
    8    1    0   -1391.71562150      -0.10995098    0.37029481    0.37029481    0.00000000    3    0.30E+00      0.35
    9    1    0   -1391.76382519      -0.04820369    0.45643152    0.45643152    0.00000000    4    0.12E+00      0.38
   10    1    0   -1391.77748411      -0.01365892    0.38749629    0.38749629    0.00000000    5    0.62E-01      0.41
   11    1    0   -1391.78178317      -0.00429907    0.35120440    0.35120440    0.00000000    6    0.32E-01      0.44
   12    1    0   -1391.78553803      -0.00375486    0.29247040    0.29247040    0.00000000    7    0.49E-01      0.48
   13    1    0   -1391.79186133      -0.00632330    0.18265953    0.18265953    0.00000000    8    0.47E-01      0.51
   14    2    0   -1391.79640466      -0.00454333    0.07927922    0.07927922    0.00000000    9    0.42E-01      0.55
   15    2    0   -1391.79842037      -0.00201570    0.02079511    0.02079511    0.00000000   10    0.44E-01      0.59
   16    2    0   -1391.79878149      -0.00036112    0.01236799    0.01236799    0.00000000   10    0.78E-01      0.62
   17    2    0   -1391.79880307      -0.00002158    0.01766427    0.01766427    0.00000000   10    0.53E-01      0.66
   18    2    0   -1391.79882232      -0.00001926    0.00170448    0.00170448    0.00000000   10    0.27E-02      0.70
   19    2    0   -1391.79882340      -0.00000108    0.00043629    0.00043629    0.00000000   10    0.17E-02      0.74
   20    2    0   -1391.79882346      -0.00000005    0.00035201    0.00035201    0.00000000   10    0.19E-02      0.78
   21    2    0   -1391.79882346      -0.00000001    0.00037527    0.00037527    0.00000000   10    0.11E-02      0.82
   22    2    0   -1391.79882347      -0.00000001    0.00004807    0.00004807    0.00000000   10    0.56E-04      0.86
   23    3    0   -1391.79882347      -0.00000000    0.00002009    0.00002009    0.00000000   10    0.51E-04      0.90
   24    2    0   -1391.79882347      -0.00000000    0.00000841    0.00000841    0.00000000   10    0.53E-04      0.94
   25    2    0   -1391.79882347       0.00000000    0.00001125    0.00001125    0.00000000   10    0.30E-04      0.98

 CONVERGENCE REACHED!  Final gradient:     0.00000093 ( 0.93E-06)
                       Final energy:   -1391.79882347
 

 Final alpha occupancy:   9   6
 Final beta  occupancy:   7   6

 !RHF STATE 1.1 Energy              -1391.798823474100
  RHF One-electron energy           -1938.323822248577
  RHF Two-electron energy             546.524998774477
  RHF Kinetic energy                 1454.671988147102
  RHF Nuclear energy                    0.000000000000
  RHF Virial quotient                  -0.956778459209

 !RHF STATE 1.1 Dipole moment           0.00000000     0.00000000     0.00000000
 Dipole moment /Debye                   0.00000000     0.00000000     0.00000000

 ELECTRON ORBITALS
 =================

  Orbital  Occupation    Energy    Cen Mu Typ  Coefficients
    1.1     2.00000  -285.35294     1  1  s    0.97812
    2.1     2.00000   -35.02558     1  2  s    0.99666
    3.1     2.00000    -4.19029     1  3  s    0.99060
    4.1     2.00000    -0.18856     1  1  d1+ -0.58631    1  1  d1-  0.79477
    5.1     2.00000    -0.18856     1  1  d1+  0.80077    1  1  d1-  0.58569
    6.1     2.00000    -0.18856     1  1  d2+  0.98675
    7.1     2.00000    -0.00831     1  7  s    1.23323
    8.1     1.00000    -0.26742     1  1  d2-  0.98285
    9.1     1.00000    -0.26742     1  1  d0  -0.98298
    1.2     2.00000   -29.79843     1  1  px   0.94437    1  1  py   0.32006
    2.2     2.00000   -29.79843     1  1  px  -0.32790    1  1  py   0.93422
    3.2     2.00000   -29.79843     1  1  pz   0.98718
    4.2     2.00000    -2.61047     1  2  py  -0.26702    1  2  pz   0.96138
    5.2     2.00000    -2.61047     1  2  px   0.99651
    6.2     2.00000    -2.61047     1  2  py   0.96469    1  2  pz   0.26355


 HOMO      9.1    -0.267420 =      -7.2769eV
 LUMO      7.2     0.209764 =       5.7080eV
 LUMO-HOMO         0.477185 =      12.9849eV

 Orbitals saved in record  2100.2


 **********************************************************************************************************************************
 DATASETS  * FILE   NREC   LENGTH (MB)   RECORD NAMES
              1      23       29.33       500      610      700      900      950      970     1000      129      960     1700   
                                          VAR    BASINP    GEOM    SYMINP    ZMAT    AOBASIS   BASIS     P2S    ABASIS    OPER   
                                         1101     1401     1411     1412     1650     1100     1400     1410     1200     1210   
                                          SR      EKINR    POTR     PVPR    MOLCAS      S      EKIN      POT      H0       H01  
                                         1080     1600     1380   
                                         AOSYM     SMH     JKOP   

              2       4        0.50       700     1000      520     2100   
                                         GEOM     BASIS   MCVARS     RHF  

 PROGRAMS   *        TOTAL   RHF-SCF       INT
 CPU TIMES  *         2.22      0.90      1.12
 REAL TIME  *         4.51 SEC
 DISK USED  *        29.88 MB (local),      347.15 MB (total)
 SF USED    *         1.28 MB
 GA USED    *         0.00 MB       (max)       0.00 MB       (current)
 **********************************************************************************************************************************

 PROGRAM * MULTI (Direct Multiconfiguration SCF)       Authors: P.J. Knowles, H.-J. Werner (1984)
                                                                D.A. Kreplin, P.J. Knowles, H.-J. Werner (2019)

 Dynamical weighting enabled. DYNFAC=    20.000

 Number of closed-shell orbitals:   5 (    2    3)
 Number of active  orbitals:       10 (    7    3)
 Number of external orbitals:      87 (   48   39)

 State symmetry 1

 Number of active electrons:  17    Spin symmetry=Quartet   Space symmetry=1
 Number of states:            17
 Number of CSFs:              56   (56 determinants, 120 intermediate states)

 State symmetry 2

 Number of active electrons:  17    Spin symmetry=Doublet   Space symmetry=1
 Number of states:            17
 Number of CSFs:             175   (231 determinants, 450 intermediate states)

 Molecular orbitals read from record     2100.2  Type=RHF/CANONICAL (state 1.1)
 *** IN SYMMETRY 1 ORBITAL  2 SYMMETRY CONTAMINATION OF 0.209D-03 HAS BEEN REMOVED
 *** IN SYMMETRY 1 ORBITAL  3 SYMMETRY CONTAMINATION OF 0.141D-02 HAS BEEN REMOVED
 *** IN SYMMETRY 1 ORBITAL  4 SYMMETRY CONTAMINATION OF 0.471D+00 HAS BEEN REMOVED
 *** IN SYMMETRY 1 ORBITAL  5 SYMMETRY CONTAMINATION OF 0.442D+00 HAS BEEN REMOVED
 *** IN SYMMETRY 1 ORBITAL  6 SYMMETRY CONTAMINATION OF 0.135D+00 HAS BEEN REMOVED
 *** IN SYMMETRY 1 ORBITAL  7 SYMMETRY CONTAMINATION OF 0.150D-03 HAS BEEN REMOVED
 *** IN SYMMETRY 1 ORBITAL  8 SYMMETRY CONTAMINATION OF 0.164D+00 HAS BEEN REMOVED
 *** IN SYMMETRY 1 ORBITAL  9 SYMMETRY CONTAMINATION OF 0.161D+00 HAS BEEN REMOVED

 EXTRA SYMMETRY OF MOS IN SYMMETRY 1:   1 1 1 6 4 5 1 3 2 1   2 3 4 6 5 1 2 3 4 6   5 1 3 2 4 6 5 7 911  1310 8121415 1 3 2 5
                                        4 6 713 91110 81415  12 3 2 5 4 6 1
 *** IN SYMMETRY 2 ORBITAL  1 SYMMETRY CONTAMINATION OF 0.296D+00 HAS BEEN REMOVED
 *** IN SYMMETRY 2 ORBITAL  2 SYMMETRY CONTAMINATION OF 0.334D+00 HAS BEEN REMOVED
 *** IN SYMMETRY 2 ORBITAL  3 SYMMETRY CONTAMINATION OF 0.157D+00 HAS BEEN REMOVED
 *** IN SYMMETRY 2 ORBITAL  4 SYMMETRY CONTAMINATION OF 0.274D+00 HAS BEEN REMOVED
 *** IN SYMMETRY 2 ORBITAL  5 SYMMETRY CONTAMINATION OF 0.118D+00 HAS BEEN REMOVED
 *** IN SYMMETRY 2 ORBITAL  6 SYMMETRY CONTAMINATION OF 0.253D+00 HAS BEEN REMOVED
 EXTRA SYMMETRY OF MOS IN SYMMETRY 2:   1 2 3 3 1 2 3 1 2 3   1 2 3 1 2 6 9 7 4 5   810 1 2 3 9 7 6 8 5   410 1 2 3 9 7 6 8 5
                                        410 1 2 3

 Wavefunction dump at record             2140.2

 Convergence thresholds  0.10E-04 (gradient)  0.10E-05 (energy)

 Weight factors for state symmetry  1:    0.02941   0.02941   0.02941   0.02941   0.02941   0.02941   0.02941   0.02941
                                          0.02941   0.02941   0.02941   0.02941   0.02941   0.02941   0.02941   0.02941
                                          0.02941
 Weight factors for state symmetry  2:    0.02941   0.02941   0.02941   0.02941   0.02941   0.02941   0.02941   0.02941
                                          0.02941   0.02941   0.02941   0.02941   0.02941   0.02941   0.02941   0.02941
                                          0.02941
 
 Number of orbital rotations:  689  ( 23 closed/active, 213 closed/virtual, 0 active/active, 453 active/virtual )
 Total number of variables:    5568
 
 Second-order MCSCF: L-BFGS accelerated
 
 ITER  MIC  NCI  NEG     ENERGY(VAR)    ENERGY(PROJ) ENERGY CHANGE       GRAD(0)  GRAD(ORB)   GRAD(CI)      STEP      TIME
 New weights before normalization:   1.1=1.000000 2.1=0.999239 3.1=0.999239 4.1=0.999239 5.1=0.996771 6.1=0.996771 7.1=0.996771 8.1=0.210084 9.1=0.210084 10.1=0.210084 11.1=0.044446 12.1=0.028266 13.1=0.028266 14.1=0.028266 15.1=0.019601 16.1=0.019601 17.1=0.019601 
                                     1.1=0.935150 2.1=0.912001 3.1=0.912001 4.1=0.912001 5.1=0.887154 6.1=0.887154 7.1=0.887154 8.1=0.325050 9.1=0.325050 10.1=0.322308 11.1=0.322308 12.1=0.322308 13.1=0.128064 14.1=0.128064 15.1=0.128064 16.1=0.060349 17.1=0.060349 
   1   16   22    0  -1391.77325774   -1392.02142531   -0.24816757    0.07926113 0.00002249 0.00000000  0.64E+00      1.02
 New weights before normalization:   1.1=1.000000 2.1=0.999970 3.1=0.999820 4.1=0.997827 5.1=0.996199 6.1=0.993469 7.1=0.983137 8.1=0.116924 9.1=0.108678 10.1=0.106269 11.1=0.000000 12.1=0.000000 13.1=0.000000 14.1=0.000000 15.1=0.000000 16.1=0.000000 17.1=0.000000 
                                     1.1=0.114552 2.1=0.114090 3.1=0.105374 4.1=0.104200 5.1=0.100894 6.1=0.100653 7.1=0.100160 8.1=0.099490 9.1=0.098985 10.1=0.068249 11.1=0.057250 12.1=0.056923 13.1=0.039534 14.1=0.035909 15.1=0.035703 16.1=0.029758 17.1=0.029231 
   2    9   16    0  -1391.70848180   -1391.85929961   -0.15081781    1.73292044 0.00000236 0.00000000  0.14E+00      1.87
 New weights before normalization:   1.1=1.000000 2.1=1.000000 3.1=1.000000 4.1=0.999999 5.1=0.999999 6.1=0.999998 7.1=0.999994 8.1=0.172511 9.1=0.172344 10.1=0.172144 11.1=0.000521 12.1=0.000516 13.1=0.000515 14.1=0.000515 15.1=0.000512 16.1=0.000510 17.1=0.000510 
                                     1.1=0.140112 2.1=0.140106 3.1=0.140069 4.1=0.140057 5.1=0.140057 6.1=0.140051 7.1=0.140024 8.1=0.140007 9.1=0.140001 10.1=0.100774 11.1=0.100742 12.1=0.100716 13.1=0.060086 14.1=0.060058 15.1=0.060022 16.1=0.060019 17.1=0.059999 
   3    6   10    0  -1391.85833491   -1391.85883066   -0.00049575    0.06858116 0.00000076 0.00000000  0.13E-01      2.47
 New weights before normalization:   1.1=1.000000 2.1=1.000000 3.1=1.000000 4.1=1.000000 5.1=1.000000 6.1=1.000000 7.1=1.000000 8.1=0.174738 9.1=0.174736 10.1=0.174733 11.1=0.000944 12.1=0.000944 13.1=0.000944 14.1=0.000944 15.1=0.000944 16.1=0.000944 17.1=0.000944 
                                     1.1=0.142330 2.1=0.142330 3.1=0.142329 4.1=0.142329 5.1=0.142329 6.1=0.142329 7.1=0.142329 8.1=0.142329 9.1=0.142329 10.1=0.102436 11.1=0.102436 12.1=0.102436 13.1=0.061240 14.1=0.061239 15.1=0.061239 16.1=0.061239 17.1=0.061239 
   4    5   10    0  -1391.85851085   -1391.85851092   -0.00000007    0.00063659 0.00000008 0.00000000  0.16E-03      3.01
 New weights before normalization:   1.1=1.000000 2.1=1.000000 3.1=1.000000 4.1=1.000000 5.1=1.000000 6.1=1.000000 7.1=1.000000 8.1=0.174771 9.1=0.174771 10.1=0.174771 11.1=0.000951 12.1=0.000951 13.1=0.000951 14.1=0.000951 15.1=0.000951 16.1=0.000951 17.1=0.000951 
                                     1.1=0.142364 2.1=0.142364 3.1=0.142364 4.1=0.142364 5.1=0.142364 6.1=0.142364 7.1=0.142364 8.1=0.142364 9.1=0.142364 10.1=0.102462 11.1=0.102462 12.1=0.102462 13.1=0.061258 14.1=0.061258 15.1=0.061258 16.1=0.061258 17.1=0.061258 
   5   21   42    0  -1391.85850589   -1391.85850589   -0.00000000    0.00000661 0.00000061 0.00000000  0.17E-05      4.67
 New weights before normalization:   1.1=1.000000 2.1=1.000000 3.1=1.000000 4.1=1.000000 5.1=1.000000 6.1=1.000000 7.1=1.000000 8.1=0.174771 9.1=0.174771 10.1=0.174771 11.1=0.000951 12.1=0.000951 13.1=0.000951 14.1=0.000951 15.1=0.000951 16.1=0.000951 17.1=0.000951 
                                     1.1=0.142365 2.1=0.142365 3.1=0.142365 4.1=0.142365 5.1=0.142365 6.1=0.142365 7.1=0.142365 8.1=0.142365 9.1=0.142365 10.1=0.102462 11.1=0.102462 12.1=0.102462 13.1=0.061258 14.1=0.061258 15.1=0.061258 16.1=0.061258 17.1=0.061258 
   6   20   40    0  -1391.85850583   -1391.85850583    0.00000000    0.00000026 0.00000011 0.00000000  0.16E-06      6.20
 New weights before normalization:   1.1=1.000000 2.1=1.000000 3.1=1.000000 4.1=1.000000 5.1=1.000000 6.1=1.000000 7.1=1.000000 8.1=0.174771 9.1=0.174771 10.1=0.174771 11.1=0.000951 12.1=0.000951 13.1=0.000951 14.1=0.000951 15.1=0.000951 16.1=0.000951 17.1=0.000951 
                                     1.1=0.142365 2.1=0.142365 3.1=0.142365 4.1=0.142365 5.1=0.142365 6.1=0.142365 7.1=0.142365 8.1=0.142365 9.1=0.142365 10.1=0.102462 11.1=0.102462 12.1=0.102462 13.1=0.061258 14.1=0.061258 15.1=0.061258 16.1=0.061258 17.1=0.061258 

 CONVERGENCE REACHED!  Final gradient:    0.00000007 ( 0.73E-07)
                       Final energy:  -1391.85850583
 
 Results for state 1.1 Quartet
 =============================
 !MCSCF STATE 1.1 Quartet Energy             -1391.880269324914
 Nuclear energy                                  0.00000000
 Kinetic energy                               1454.74660420
 One electron energy                         -1927.27393046
 Two electron energy                           535.39366113
 Virial ratio                                    1.95678537
 
 !MCSCF STATE 1.1 Quartet Dipole moment          0.00000000     0.00000000     0.00000000
 Dipole moment /Debye                            0.00000000     0.00000000     0.00000000
 
 Results for state 2.1 Quartet
 =============================
 !MCSCF STATE 2.1 Quartet Energy             -1391.880269324259
 Nuclear energy                                  0.00000000
 Kinetic energy                               1454.74660428
 One electron energy                         -1927.27393061
 Two electron energy                           535.39366128
 Virial ratio                                    1.95678537
 
 !MCSCF STATE 2.1 Quartet Dipole moment          0.00000000     0.00000000     0.00000000
 Dipole moment /Debye                            0.00000000     0.00000000     0.00000000
 
 Results for state 3.1 Quartet
 =============================
 !MCSCF STATE 3.1 Quartet Energy             -1391.880269323973
 Nuclear energy                                  0.00000000
 Kinetic energy                               1454.74660431
 One electron energy                         -1927.27393063
 Two electron energy                           535.39366130
 Virial ratio                                    1.95678537
 
 !MCSCF STATE 3.1 Quartet Dipole moment          0.00000000     0.00000000     0.00000000
 Dipole moment /Debye                            0.00000000     0.00000000     0.00000000
 
 Results for state 4.1 Quartet
 =============================
 !MCSCF STATE 4.1 Quartet Energy             -1391.880269323765
 Nuclear energy                                  0.00000000
 Kinetic energy                               1454.74660432
 One electron energy                         -1927.27393067
 Two electron energy                           535.39366135
 Virial ratio                                    1.95678537
 
 !MCSCF STATE 4.1 Quartet Dipole moment          0.00000000     0.00000000     0.00000000
 Dipole moment /Debye                            0.00000000     0.00000000     0.00000000
 
 Results for state 5.1 Quartet
 =============================
 !MCSCF STATE 5.1 Quartet Energy             -1391.880269322392
 Nuclear energy                                  0.00000000
 Kinetic energy                               1454.74660445
 One electron energy                         -1927.27393087
 Two electron energy                           535.39366154
 Virial ratio                                    1.95678537
 
 !MCSCF STATE 5.1 Quartet Dipole moment          0.00000000     0.00000000     0.00000000
 Dipole moment /Debye                            0.00000000     0.00000000     0.00000000
 
 Results for state 6.1 Quartet
 =============================
 !MCSCF STATE 6.1 Quartet Energy             -1391.880269321589
 Nuclear energy                                  0.00000000
 Kinetic energy                               1454.74660452
 One electron energy                         -1927.27393099
 Two electron energy                           535.39366167
 Virial ratio                                    1.95678537
 
 !MCSCF STATE 6.1 Quartet Dipole moment          0.00000000     0.00000000     0.00000000
 Dipole moment /Debye                            0.00000000     0.00000000     0.00000000
 
 Results for state 7.1 Quartet
 =============================
 !MCSCF STATE 7.1 Quartet Energy             -1391.880269321304
 Nuclear energy                                  0.00000000
 Kinetic energy                               1454.74660460
 One electron energy                         -1927.27393110
 Two electron energy                           535.39366178
 Virial ratio                                    1.95678537
 
 !MCSCF STATE 7.1 Quartet Dipole moment          0.00000000     0.00000000     0.00000000
 Dipole moment /Debye                            0.00000000     0.00000000     0.00000000
 
 Results for state 8.1 Quartet
 =============================
 !MCSCF STATE 8.1 Quartet Energy             -1391.804348608127
 Nuclear energy                                  0.00000000
 Kinetic energy                               1454.73962780
 One electron energy                         -1927.25785587
 Two electron energy                           535.45350726
 Virial ratio                                    1.95673777
 
 !MCSCF STATE 8.1 Quartet Dipole moment          0.00000000     0.00000000     0.00000000
 Dipole moment /Debye                            0.00000000     0.00000000     0.00000000
 
 Results for state 9.1 Quartet
 =============================
 !MCSCF STATE 9.1 Quartet Energy             -1391.804348606629
 Nuclear energy                                  0.00000000
 Kinetic energy                               1454.73962787
 One electron energy                         -1927.25785598
 Two electron energy                           535.45350737
 Virial ratio                                    1.95673777
 
 !MCSCF STATE 9.1 Quartet Dipole moment          0.00000000     0.00000000     0.00000000
 Dipole moment /Debye                            0.00000000     0.00000000     0.00000000
 
 Results for state 10.1 Quartet
 ==============================
 !MCSCF STATE 10.1 Quartet Energy            -1391.804348603104
 Nuclear energy                                  0.00000000
 Kinetic energy                               1454.73962804
 One electron energy                         -1927.25785626
 Two electron energy                           535.45350765
 Virial ratio                                    1.95673777
 
 !MCSCF STATE 10.1 Quartet Dipole moment         0.00000000     0.00000000     0.00000000
 Dipole moment /Debye                            0.00000000     0.00000000     0.00000000
 
 Results for state 11.1 Quartet
 ==============================
 !MCSCF STATE 11.1 Quartet Energy            -1391.671681321198
 Nuclear energy                                  0.00000000
 Kinetic energy                               1461.84045147
 One electron energy                         -1944.09087237
 Two electron energy                           552.41919105
 Virial ratio                                    1.95199971
 
 !MCSCF STATE 11.1 Quartet Dipole moment         0.00000000     0.00000000     0.00000000
 Dipole moment /Debye                            0.00000000     0.00000000     0.00000000
 
 Results for state 12.1 Quartet
 ==============================
 !MCSCF STATE 12.1 Quartet Energy            -1391.671681318809
 Nuclear energy                                  0.00000000
 Kinetic energy                               1461.84045155
 One electron energy                         -1944.09087248
 Two electron energy                           552.41919116
 Virial ratio                                    1.95199971
 
 !MCSCF STATE 12.1 Quartet Dipole moment         0.00000000     0.00000000     0.00000000
 Dipole moment /Debye                            0.00000000     0.00000000     0.00000000
 
 Results for state 13.1 Quartet
 ==============================
 !MCSCF STATE 13.1 Quartet Energy            -1391.671681315125
 Nuclear energy                                  0.00000000
 Kinetic energy                               1461.84045161
 One electron energy                         -1944.09087260
 Two electron energy                           552.41919129
 Virial ratio                                    1.95199971
 
 !MCSCF STATE 13.1 Quartet Dipole moment         0.00000000     0.00000000     0.00000000
 Dipole moment /Debye                            0.00000000     0.00000000     0.00000000
 
 Results for state 14.1 Quartet
 ==============================
 !MCSCF STATE 14.1 Quartet Energy            -1391.671681308836
 Nuclear energy                                  0.00000000
 Kinetic energy                               1461.84045175
 One electron energy                         -1944.09087282
 Two electron energy                           552.41919151
 Virial ratio                                    1.95199971
 
 !MCSCF STATE 14.1 Quartet Dipole moment         0.00000000     0.00000000     0.00000000
 Dipole moment /Debye                            0.00000000     0.00000000     0.00000000
 
 Results for state 15.1 Quartet
 ==============================
 !MCSCF STATE 15.1 Quartet Energy            -1391.671681307804
 Nuclear energy                                  0.00000000
 Kinetic energy                               1461.84045176
 One electron energy                         -1944.09087285
 Two electron energy                           552.41919154
 Virial ratio                                    1.95199971
 
 !MCSCF STATE 15.1 Quartet Dipole moment         0.00000000     0.00000000     0.00000000
 Dipole moment /Debye                            0.00000000     0.00000000     0.00000000
 
 Results for state 16.1 Quartet
 ==============================
 !MCSCF STATE 16.1 Quartet Energy            -1391.671681306843
 Nuclear energy                                  0.00000000
 Kinetic energy                               1461.84045178
 One electron energy                         -1944.09087287
 Two electron energy                           552.41919156
 Virial ratio                                    1.95199971
 
 !MCSCF STATE 16.1 Quartet Dipole moment         0.00000000     0.00000000     0.00000000
 Dipole moment /Debye                            0.00000000     0.00000000     0.00000000
 
 Results for state 17.1 Quartet
 ==============================
 !MCSCF STATE 17.1 Quartet Energy            -1391.671681302860
 Nuclear energy                                  0.00000000
 Kinetic energy                               1461.84045186
 One electron energy                         -1944.09087302
 Two electron energy                           552.41919172
 Virial ratio                                    1.95199971
 
 !MCSCF STATE 17.1 Quartet Dipole moment         0.00000000     0.00000000     0.00000000
 Dipole moment /Debye                            0.00000000     0.00000000     0.00000000
 
 Results for state 1.1 Doublet
 =============================
 !MCSCF STATE 1.1 Doublet Energy             -1391.798760730908
 Nuclear energy                                  0.00000000
 Kinetic energy                               1454.74566053
 One electron energy                         -1927.27142594
 Two electron energy                           535.47266521
 Virial ratio                                    1.95672996
 
 !MCSCF STATE 1.1 Doublet Dipole moment          0.00000000     0.00000000     0.00000000
 Dipole moment /Debye                            0.00000000     0.00000000     0.00000000
 
 Results for state 2.1 Doublet
 =============================
 !MCSCF STATE 2.1 Doublet Energy             -1391.798760730845
 Nuclear energy                                  0.00000000
 Kinetic energy                               1454.74566051
 One electron energy                         -1927.27142592
 Two electron energy                           535.47266518
 Virial ratio                                    1.95672996
 
 !MCSCF STATE 2.1 Doublet Dipole moment          0.00000000     0.00000000     0.00000000
 Dipole moment /Debye                            0.00000000     0.00000000     0.00000000
 
 Results for state 3.1 Doublet
 =============================
 !MCSCF STATE 3.1 Doublet Energy             -1391.798760730406
 Nuclear energy                                  0.00000000
 Kinetic energy                               1454.74566057
 One electron energy                         -1927.27142601
 Two electron energy                           535.47266528
 Virial ratio                                    1.95672996
 
 !MCSCF STATE 3.1 Doublet Dipole moment          0.00000000     0.00000000     0.00000000
 Dipole moment /Debye                            0.00000000     0.00000000     0.00000000
 
 Results for state 4.1 Doublet
 =============================
 !MCSCF STATE 4.1 Doublet Energy             -1391.798760730340
 Nuclear energy                                  0.00000000
 Kinetic energy                               1454.74566054
 One electron energy                         -1927.27142596
 Two electron energy                           535.47266523
 Virial ratio                                    1.95672996
 
 !MCSCF STATE 4.1 Doublet Dipole moment          0.00000000     0.00000000     0.00000000
 Dipole moment /Debye                            0.00000000     0.00000000     0.00000000
 
 Results for state 5.1 Doublet
 =============================
 !MCSCF STATE 5.1 Doublet Energy             -1391.798760730251
 Nuclear energy                                  0.00000000
 Kinetic energy                               1454.74566057
 One electron energy                         -1927.27142601
 Two electron energy                           535.47266528
 Virial ratio                                    1.95672996
 
 !MCSCF STATE 5.1 Doublet Dipole moment          0.00000000     0.00000000     0.00000000
 Dipole moment /Debye                            0.00000000     0.00000000     0.00000000
 
 Results for state 6.1 Doublet
 =============================
 !MCSCF STATE 6.1 Doublet Energy             -1391.798760729941
 Nuclear energy                                  0.00000000
 Kinetic energy                               1454.74566053
 One electron energy                         -1927.27142596
 Two electron energy                           535.47266523
 Virial ratio                                    1.95672996
 
 !MCSCF STATE 6.1 Doublet Dipole moment          0.00000000     0.00000000     0.00000000
 Dipole moment /Debye                            0.00000000     0.00000000     0.00000000
 
 Results for state 7.1 Doublet
 =============================
 !MCSCF STATE 7.1 Doublet Energy             -1391.798760729926
 Nuclear energy                                  0.00000000
 Kinetic energy                               1454.74566051
 One electron energy                         -1927.27142591
 Two electron energy                           535.47266518
 Virial ratio                                    1.95672996
 
 !MCSCF STATE 7.1 Doublet Dipole moment          0.00000000     0.00000000     0.00000000
 Dipole moment /Debye                            0.00000000     0.00000000     0.00000000
 
 Results for state 8.1 Doublet
 =============================
 !MCSCF STATE 8.1 Doublet Energy             -1391.798760729564
 Nuclear energy                                  0.00000000
 Kinetic energy                               1454.74566054
 One electron energy                         -1927.27142596
 Two electron energy                           535.47266523
 Virial ratio                                    1.95672996
 
 !MCSCF STATE 8.1 Doublet Dipole moment          0.00000000     0.00000000     0.00000000
 Dipole moment /Debye                            0.00000000     0.00000000     0.00000000
 
 Results for state 9.1 Doublet
 =============================
 !MCSCF STATE 9.1 Doublet Energy             -1391.798760729527
 Nuclear energy                                  0.00000000
 Kinetic energy                               1454.74566053
 One electron energy                         -1927.27142595
 Two electron energy                           535.47266522
 Virial ratio                                    1.95672996
 
 !MCSCF STATE 9.1 Doublet Dipole moment          0.00000000     0.00000000     0.00000000
 Dipole moment /Debye                            0.00000000     0.00000000     0.00000000
 
 Results for state 10.1 Doublet
 ==============================
 !MCSCF STATE 10.1 Doublet Energy            -1391.789988465275
 Nuclear energy                                  0.00000000
 Kinetic energy                               1454.73584642
 One electron energy                         -1927.24613872
 Two electron energy                           535.45615026
 Virial ratio                                    1.95673039
 
 !MCSCF STATE 10.1 Doublet Dipole moment         0.00000000     0.00000000     0.00000000
 Dipole moment /Debye                            0.00000000     0.00000000     0.00000000
 
 Results for state 11.1 Doublet
 ==============================
 !MCSCF STATE 11.1 Doublet Energy            -1391.789988464317
 Nuclear energy                                  0.00000000
 Kinetic energy                               1454.73584647
 One electron energy                         -1927.24613880
 Two electron energy                           535.45615034
 Virial ratio                                    1.95673039
 
 !MCSCF STATE 11.1 Doublet Dipole moment         0.00000000     0.00000000     0.00000000
 Dipole moment /Debye                            0.00000000     0.00000000     0.00000000
 
 Results for state 12.1 Doublet
 ==============================
 !MCSCF STATE 12.1 Doublet Energy            -1391.789988463964
 Nuclear energy                                  0.00000000
 Kinetic energy                               1454.73584649
 One electron energy                         -1927.24613883
 Two electron energy                           535.45615037
 Virial ratio                                    1.95673039
 
 !MCSCF STATE 12.1 Doublet Dipole moment         0.00000000     0.00000000     0.00000000
 Dipole moment /Debye                            0.00000000     0.00000000     0.00000000
 
 Results for state 13.1 Doublet
 ==============================
 !MCSCF STATE 13.1 Doublet Energy            -1391.776579549523
 Nuclear energy                                  0.00000000
 Kinetic energy                               1454.73454621
 One electron energy                         -1927.24544134
 Two electron energy                           535.46886179
 Virial ratio                                    1.95672202
 
 !MCSCF STATE 13.1 Doublet Dipole moment         0.00000000     0.00000000     0.00000000
 Dipole moment /Debye                            0.00000000     0.00000000     0.00000000
 
 Results for state 14.1 Doublet
 ==============================
 !MCSCF STATE 14.1 Doublet Energy            -1391.776579548927
 Nuclear energy                                  0.00000000
 Kinetic energy                               1454.73454627
 One electron energy                         -1927.24544144
 Two electron energy                           535.46886189
 Virial ratio                                    1.95672202
 
 !MCSCF STATE 14.1 Doublet Dipole moment         0.00000000     0.00000000     0.00000000
 Dipole moment /Debye                            0.00000000     0.00000000     0.00000000
 
 Results for state 15.1 Doublet
 ==============================
 !MCSCF STATE 15.1 Doublet Energy            -1391.776579548882
 Nuclear energy                                  0.00000000
 Kinetic energy                               1454.73454626
 One electron energy                         -1927.24544142
 Two electron energy                           535.46886187
 Virial ratio                                    1.95672202
 
 !MCSCF STATE 15.1 Doublet Dipole moment         0.00000000     0.00000000     0.00000000
 Dipole moment /Debye                            0.00000000     0.00000000     0.00000000
 
 Results for state 16.1 Doublet
 ==============================
 !MCSCF STATE 16.1 Doublet Energy            -1391.776579548861
 Nuclear energy                                  0.00000000
 Kinetic energy                               1454.73454629
 One electron energy                         -1927.24544148
 Two electron energy                           535.46886193
 Virial ratio                                    1.95672202
 
 !MCSCF STATE 16.1 Doublet Dipole moment         0.00000000     0.00000000     0.00000000
 Dipole moment /Debye                            0.00000000     0.00000000     0.00000000
 
 Results for state 17.1 Doublet
 ==============================
 !MCSCF STATE 17.1 Doublet Energy            -1391.776579547729
 Nuclear energy                                  0.00000000
 Kinetic energy                               1454.73454638
 One electron energy                         -1927.24544161
 Two electron energy                           535.46886207
 Virial ratio                                    1.95672202
 
 !MCSCF STATE 17.1 Doublet Dipole moment         0.00000000     0.00000000     0.00000000
 Dipole moment /Debye                            0.00000000     0.00000000     0.00000000
 
 State-averaged charge density matrix saved on record 2140.2 (density set 1)
 
 No non-zero expectation values
 
 Expectation values for two-electron operators:
 
 !MCSCF expec      <1.1 Quartet|LXLX|1.1 Quartet>     3.388605725430
 !MCSCF expec      <2.1 Quartet|LXLX|2.1 Quartet>     0.001224002379
 !MCSCF expec      <3.1 Quartet|LXLX|3.1 Quartet>     3.999999965100
 !MCSCF expec      <4.1 Quartet|LXLX|4.1 Quartet>     2.311517105995
 !MCSCF expec      <5.1 Quartet|LXLX|5.1 Quartet>     7.688441926534
 !MCSCF expec      <6.1 Quartet|LXLX|6.1 Quartet>     6.611327903712
 !MCSCF expec      <7.1 Quartet|LXLX|7.1 Quartet>     3.998777841781
 !MCSCF expec      <8.1 Quartet|LXLX|8.1 Quartet>     0.999999995966
 !MCSCF expec      <9.1 Quartet|LXLX|9.1 Quartet>     0.999999999184
 !MCSCF expec    <10.1 Quartet|LXLX|10.1 Quartet>     0.000000006672
 !MCSCF expec    <11.1 Quartet|LXLX|11.1 Quartet>     3.999756943495
 !MCSCF expec    <12.1 Quartet|LXLX|12.1 Quartet>     6.243305971008
 !MCSCF expec    <13.1 Quartet|LXLX|13.1 Quartet>     6.740404844562
 !MCSCF expec    <14.1 Quartet|LXLX|14.1 Quartet>     3.259520190674
 !MCSCF expec    <15.1 Quartet|LXLX|15.1 Quartet>     3.999999980599
 !MCSCF expec    <16.1 Quartet|LXLX|16.1 Quartet>     0.000243338049
 !MCSCF expec    <17.1 Quartet|LXLX|17.1 Quartet>     3.756707188372
 !MCSCF expec      <1.1 Doublet|LXLX|1.1 Doublet>    14.702769743004
 !MCSCF expec      <2.1 Doublet|LXLX|2.1 Doublet>    15.844922849790
 !MCSCF expec      <3.1 Doublet|LXLX|3.1 Doublet>     5.817564980299
 !MCSCF expec      <4.1 Doublet|LXLX|4.1 Doublet>     7.415195922748
 !MCSCF expec      <5.1 Doublet|LXLX|5.1 Doublet>     4.155515959867
 !MCSCF expec      <6.1 Doublet|LXLX|6.1 Doublet>     2.339171088826
 !MCSCF expec      <7.1 Doublet|LXLX|7.1 Doublet>     4.182681841080
 !MCSCF expec      <8.1 Doublet|LXLX|8.1 Doublet>     2.585237730214
 !MCSCF expec      <9.1 Doublet|LXLX|9.1 Doublet>     2.958045968574
 !MCSCF expec    <10.1 Doublet|LXLX|10.1 Doublet>     0.000000107327
 !MCSCF expec    <11.1 Doublet|LXLX|11.1 Doublet>     0.999999902175
 !MCSCF expec    <12.1 Doublet|LXLX|12.1 Doublet>     0.999999999807
 !MCSCF expec    <13.1 Doublet|LXLX|13.1 Doublet>     0.111639590594
 !MCSCF expec    <14.1 Doublet|LXLX|14.1 Doublet>     1.000000537961
 !MCSCF expec    <15.1 Doublet|LXLX|15.1 Doublet>     1.000082987914
 !MCSCF expec    <16.1 Doublet|LXLX|16.1 Doublet>     3.999893958026
 !MCSCF expec    <17.1 Doublet|LXLX|17.1 Doublet>     3.888313856372
 
 !MCSCF expec      <1.1 Quartet|LYLY|1.1 Quartet>     3.973830681178
 !MCSCF expec      <2.1 Quartet|LYLY|2.1 Quartet>     6.134845567144
 !MCSCF expec      <3.1 Quartet|LYLY|3.1 Quartet>     4.000000046144
 !MCSCF expec      <4.1 Quartet|LYLY|4.1 Quartet>     5.918563570936
 !MCSCF expec      <5.1 Quartet|LYLY|5.1 Quartet>     4.081490057514
 !MCSCF expec      <6.1 Quartet|LYLY|6.1 Quartet>     0.026163922092
 !MCSCF expec      <7.1 Quartet|LYLY|7.1 Quartet>     3.865232824912
 !MCSCF expec      <8.1 Quartet|LYLY|8.1 Quartet>     0.000000035912
 !MCSCF expec      <9.1 Quartet|LYLY|9.1 Quartet>     0.999999966168
 !MCSCF expec    <10.1 Quartet|LYLY|10.1 Quartet>     0.999999995010
 !MCSCF expec    <11.1 Quartet|LYLY|11.1 Quartet>     3.939741847178
 !MCSCF expec    <12.1 Quartet|LYLY|12.1 Quartet>     0.004015974943
 !MCSCF expec    <13.1 Quartet|LYLY|13.1 Quartet>     5.220727129777
 !MCSCF expec    <14.1 Quartet|LYLY|14.1 Quartet>     4.779355991449
 !MCSCF expec    <15.1 Quartet|LYLY|15.1 Quartet>     4.000000017345
 !MCSCF expec    <16.1 Quartet|LYLY|16.1 Quartet>     6.060289869706
 !MCSCF expec    <17.1 Quartet|LYLY|17.1 Quartet>     3.995984480267
 !MCSCF expec      <1.1 Doublet|LYLY|1.1 Doublet>     2.761867222187
 !MCSCF expec      <2.1 Doublet|LYLY|2.1 Doublet>     2.675174135920
 !MCSCF expec      <3.1 Doublet|LYLY|3.1 Doublet>     8.987042265204
 !MCSCF expec      <4.1 Doublet|LYLY|4.1 Doublet>     4.119368407072
 !MCSCF expec      <5.1 Doublet|LYLY|5.1 Doublet>     7.323791484622
 !MCSCF expec      <6.1 Doublet|LYLY|6.1 Doublet>     2.370352414181
 !MCSCF expec      <7.1 Doublet|LYLY|7.1 Doublet>     1.012939761622
 !MCSCF expec      <8.1 Doublet|LYLY|8.1 Doublet>    15.880469365187
 !MCSCF expec      <9.1 Doublet|LYLY|9.1 Doublet>    14.867376454243
 !MCSCF expec    <10.1 Doublet|LYLY|10.1 Doublet>     0.999999999992
 !MCSCF expec    <11.1 Doublet|LYLY|11.1 Doublet>     0.999999980418
 !MCSCF expec    <12.1 Doublet|LYLY|12.1 Doublet>     0.000000006053
 !MCSCF expec    <13.1 Doublet|LYLY|13.1 Doublet>     3.514768658996
 !MCSCF expec    <14.1 Doublet|LYLY|14.1 Doublet>     1.000258998685
 !MCSCF expec    <15.1 Doublet|LYLY|15.1 Doublet>     3.999658661616
 !MCSCF expec    <16.1 Doublet|LYLY|16.1 Doublet>     1.000105413898
 !MCSCF expec    <17.1 Doublet|LYLY|17.1 Doublet>     0.485139048658
 
 !MCSCF expec      <1.1 Quartet|LZLZ|1.1 Quartet>     4.637563593392
 !MCSCF expec      <2.1 Quartet|LZLZ|2.1 Quartet>     5.863930430478
 !MCSCF expec      <3.1 Quartet|LZLZ|3.1 Quartet>     3.999999988756
 !MCSCF expec      <4.1 Quartet|LZLZ|4.1 Quartet>     3.769919323069
 !MCSCF expec      <5.1 Quartet|LZLZ|5.1 Quartet>     0.230068015952
 !MCSCF expec      <6.1 Quartet|LZLZ|6.1 Quartet>     5.362508174196
 !MCSCF expec      <7.1 Quartet|LZLZ|7.1 Quartet>     4.135989333307
 !MCSCF expec      <8.1 Quartet|LZLZ|8.1 Quartet>     0.999999968123
 !MCSCF expec      <9.1 Quartet|LZLZ|9.1 Quartet>     0.000000034648
 !MCSCF expec    <10.1 Quartet|LZLZ|10.1 Quartet>     0.999999998319
 !MCSCF expec    <11.1 Quartet|LZLZ|11.1 Quartet>     4.060501209327
 !MCSCF expec    <12.1 Quartet|LZLZ|12.1 Quartet>     5.752678054049
 !MCSCF expec    <13.1 Quartet|LZLZ|13.1 Quartet>     0.038868025662
 !MCSCF expec    <14.1 Quartet|LZLZ|14.1 Quartet>     3.961123817877
 !MCSCF expec    <15.1 Quartet|LZLZ|15.1 Quartet>     4.000000002056
 !MCSCF expec    <16.1 Quartet|LZLZ|16.1 Quartet>     5.939466792245
 !MCSCF expec    <17.1 Quartet|LZLZ|17.1 Quartet>     4.247308331361
 !MCSCF expec      <1.1 Doublet|LZLZ|1.1 Doublet>     2.535363034809
 !MCSCF expec      <2.1 Doublet|LZLZ|2.1 Doublet>     1.479903014291
 !MCSCF expec      <3.1 Doublet|LZLZ|3.1 Doublet>     5.195392754497
 !MCSCF expec      <4.1 Doublet|LZLZ|4.1 Doublet>     8.465435670180
 !MCSCF expec      <5.1 Doublet|LZLZ|5.1 Doublet>     8.520692555511
 !MCSCF expec      <6.1 Doublet|LZLZ|6.1 Doublet>    15.290476496993
 !MCSCF expec      <7.1 Doublet|LZLZ|7.1 Doublet>    14.804378397298
 !MCSCF expec      <8.1 Doublet|LZLZ|8.1 Doublet>     1.534292904599
 !MCSCF expec      <9.1 Doublet|LZLZ|9.1 Doublet>     2.174577577183
 !MCSCF expec    <10.1 Doublet|LZLZ|10.1 Doublet>     0.999999892681
 !MCSCF expec    <11.1 Doublet|LZLZ|11.1 Doublet>     0.000000117407
 !MCSCF expec    <12.1 Doublet|LZLZ|12.1 Doublet>     0.999999994140
 !MCSCF expec    <13.1 Doublet|LZLZ|13.1 Doublet>     2.373591750410
 !MCSCF expec    <14.1 Doublet|LZLZ|14.1 Doublet>     3.999740463354
 !MCSCF expec    <15.1 Doublet|LZLZ|15.1 Doublet>     1.000258350470
 !MCSCF expec    <16.1 Doublet|LZLZ|16.1 Doublet>     1.000000628076
 !MCSCF expec    <17.1 Doublet|LZLZ|17.1 Doublet>     1.626547094970
 
 !MCSCF expec      <1.1 Quartet|L**2|1.1 Quartet>    12.000000000000
 !MCSCF expec      <2.1 Quartet|L**2|2.1 Quartet>    12.000000000000
 !MCSCF expec      <3.1 Quartet|L**2|3.1 Quartet>    12.000000000000
 !MCSCF expec      <4.1 Quartet|L**2|4.1 Quartet>    12.000000000000
 !MCSCF expec      <5.1 Quartet|L**2|5.1 Quartet>    12.000000000000
 !MCSCF expec      <6.1 Quartet|L**2|6.1 Quartet>    12.000000000000
 !MCSCF expec      <7.1 Quartet|L**2|7.1 Quartet>    12.000000000000
 !MCSCF expec      <8.1 Quartet|L**2|8.1 Quartet>     2.000000000000
 !MCSCF expec      <9.1 Quartet|L**2|9.1 Quartet>     2.000000000000
 !MCSCF expec    <10.1 Quartet|L**2|10.1 Quartet>     2.000000000000
 !MCSCF expec    <11.1 Quartet|L**2|11.1 Quartet>    12.000000000000
 !MCSCF expec    <12.1 Quartet|L**2|12.1 Quartet>    12.000000000000
 !MCSCF expec    <13.1 Quartet|L**2|13.1 Quartet>    12.000000000000
 !MCSCF expec    <14.1 Quartet|L**2|14.1 Quartet>    12.000000000000
 !MCSCF expec    <15.1 Quartet|L**2|15.1 Quartet>    12.000000000000
 !MCSCF expec    <16.1 Quartet|L**2|16.1 Quartet>    12.000000000000
 !MCSCF expec    <17.1 Quartet|L**2|17.1 Quartet>    12.000000000000
 !MCSCF expec      <1.1 Doublet|L**2|1.1 Doublet>    20.000000000000
 !MCSCF expec      <2.1 Doublet|L**2|2.1 Doublet>    20.000000000000
 !MCSCF expec      <3.1 Doublet|L**2|3.1 Doublet>    20.000000000000
 !MCSCF expec      <4.1 Doublet|L**2|4.1 Doublet>    20.000000000000
 !MCSCF expec      <5.1 Doublet|L**2|5.1 Doublet>    20.000000000000
 !MCSCF expec      <6.1 Doublet|L**2|6.1 Doublet>    20.000000000000
 !MCSCF expec      <7.1 Doublet|L**2|7.1 Doublet>    20.000000000000
 !MCSCF expec      <8.1 Doublet|L**2|8.1 Doublet>    20.000000000000
 !MCSCF expec      <9.1 Doublet|L**2|9.1 Doublet>    20.000000000000
 !MCSCF expec    <10.1 Doublet|L**2|10.1 Doublet>     2.000000000000
 !MCSCF expec    <11.1 Doublet|L**2|11.1 Doublet>     2.000000000000
 !MCSCF expec    <12.1 Doublet|L**2|12.1 Doublet>     2.000000000000
 !MCSCF expec    <13.1 Doublet|L**2|13.1 Doublet>     6.000000000000
 !MCSCF expec    <14.1 Doublet|L**2|14.1 Doublet>     6.000000000000
 !MCSCF expec    <15.1 Doublet|L**2|15.1 Doublet>     6.000000000000
 !MCSCF expec    <16.1 Doublet|L**2|16.1 Doublet>     6.000000000000
 !MCSCF expec    <17.1 Doublet|L**2|17.1 Doublet>     6.000000000000
 
 EXTRA SYMMETRY OF MOS IN SYMMETRY 1:   1 1 1 1 4 5 6 3 2 1   6 5 4 3 2 1 6 5 4 3   2 1 6 5 3 4 2111013   71514 812 9 1 6 5 3
                                        2 4111013 7 8151412   9 6 3 5 2 4 1
 EXTRA SYMMETRY OF MOS IN SYMMETRY 2:   2 3 1 1 3 2 2 3 1 2   3 1 2 3 1 510 8 7 9   6 4 2 3 1 510 8 9 7   6 4 2 3 1 5 7 9 810
                                        6 4 2 3 1
 
  NATURAL ORBITALS (STATE AVERAGED)
  =================================

  Orbital  Occupation    Energy    Cen Mu Typ  Coefficients
    1.1     2.00000  -285.77220     1  1  s    0.97814
    2.1     2.00000   -35.41087     1  2  s    0.99624
    3.1     1.99986    -4.65574     1  3  s    0.98135
    4.1     1.99927    -0.29296     1  4  s    1.01635
    5.1     1.40070    -0.36383     1  1  d1+  1.00083
    6.1     1.40070    -0.36383     1  1  d2+  1.00083
    7.1     1.40070    -0.36383     1  1  d1-  1.00083
    8.1     1.40070    -0.36383     1  1  d2-  1.00083
    9.1     1.40070    -0.36382     1  1  d0  -1.00083
    1.2     2.00000   -30.16539     1  1  py   0.99889
    2.2     2.00000   -30.16539     1  1  pz   0.99889
    3.2     2.00000   -30.16539     1  1  px   0.99889
    4.2     1.99913    -3.09624     1  2  px   0.99727
    5.2     1.99913    -3.09624     1  2  pz   0.99727
    6.2     1.99913    -3.09624     1  2  py   0.99727
 
 Natural orbital dump (state averaged) at molpro section 2140.2 (Orbital set 2)
 
 Transform the CI vectors
 
 CI Coefficients of symmetry 1 (Quartet)
 =======================================

 State:                1               2               3               4               5               6               7
 22a2aa2 222      0.00019304      0.00009135      0.99947555     -0.00007578      0.00004376      0.00001231     -0.00004449
 2a2a22a 222      0.00000000      0.00000000     -0.00000000     -0.00000000      0.00000000      0.00000000      0.00000000
 2a222aa 222      0.00000000     -0.00000000     -0.00000000     -0.00000000      0.00000000      0.00000000     -0.00000000
 22aaa22 222     -0.00000041      0.00018059      0.00006305      0.97030486      0.23970789      0.00003166      0.00000545
 222aa2a 222      0.00023147      0.89382136     -0.00008244     -0.00014926     -0.00006884     -0.00002188     -0.01563548
 22a2a2a 222     -0.00003492     -0.00001452      0.00002714      0.10720064     -0.43393353     -0.00006529      0.00005625
 2aa22a2 222      0.00000000     -0.00000000     -0.00000000     -0.00000000     -0.00000000      0.00000000     -0.00000000
 22aa22a 222     -0.07230770      0.00003784      0.00000298      0.00000243     -0.00012767      0.89102900     -0.00015364
 2a22aa2 222      0.00000000      0.00000000     -0.00000000     -0.00000000     -0.00000000      0.00000000     -0.00000000
 2aa2a22 222      0.00000000     -0.00000000     -0.00000000     -0.00000000     -0.00000000     -0.00000000     -0.00000000
 2222aaa 222      0.88081204     -0.00023129     -0.00016821      0.00001625     -0.00004388     -0.15274564      0.00003252
 2aaa222 222      0.00000000     -0.00000000     -0.00000000     -0.00000000     -0.00000000      0.00000000     -0.00000000
 22a22aa 222     -0.00006010     -0.20831632      0.00005774      0.00000407      0.00012065      0.00015389      0.86934769
 222a2aa 222      0.00006984      0.00002905     -0.00005428     -0.21440125      0.86786704      0.00013058     -0.00011249
 2a2aa22 222      0.00000000      0.00000000     -0.00000000      0.00000000      0.00000000      0.00000000     -0.00000000
 22aa2a2 222      0.00009894      0.39577647     -0.00001426     -0.00008382      0.00002991      0.00007622      0.49289098
 222aaa2 222      0.46679019     -0.00011169     -0.00009539      0.00001078     -0.00009904      0.42624814     -0.00006993
 2a22a2a 222      0.00000000      0.00000000     -0.00000000     -0.00000000      0.00000000     -0.00000000     -0.00000000
 2aa222a 222      0.00000000     -0.00000000     -0.00000000      0.00000000      0.00000000     -0.00000000     -0.00000000
 2a2a2a2 222      0.00000000     -0.00000000     -0.00000000     -0.00000000     -0.00000000      0.00000000      0.00000000
 a22a22a 222     -0.00000000      0.00000000      0.00000000      0.00000000      0.00000000      0.00000000      0.00000000
 a2222aa 222     -0.00000000     -0.00000000      0.00000000      0.00000000     -0.00000000     -0.00000000      0.00000000
 a2a22a2 222      0.00000000      0.00000000     -0.00000000     -0.00000000      0.00000000     -0.00000000      0.00000000
 a222aa2 222     -0.00000000      0.00000000      0.00000000      0.00000000      0.00000000     -0.00000000      0.00000000
 a2a2a22 222     -0.00000000      0.00000000      0.00000000      0.00000000      0.00000000      0.00000000      0.00000000
 a2aa222 222     -0.00000000      0.00000000      0.00000000      0.00000000      0.00000000     -0.00000000      0.00000000
 a22aa22 222     -0.00000000     -0.00000000      0.00000000      0.00000000      0.00000000     -0.00000000      0.00000000
 
 Energy:      -1391.88026932  -1391.88026932  -1391.88026932  -1391.88026932  -1391.88026932  -1391.88026932  -1391.88026932

 State:                8               9              10              11              12              13              14
 22a2aa2 222      0.00000000     -0.00000000      0.00000000      0.00000000     -0.00000000      0.00000000      0.00000000
 2a2a22a 222      0.00000000      0.00000000     -0.00000000     -0.00000978      0.00000317     -0.00001174     -0.00010466
 2a222aa 222     -0.00000000     -0.00000000      0.00000000      0.00001431     -0.00000915     -0.09821080      0.99145430
 22aaa22 222     -0.00000000     -0.00000001      0.00000000     -0.00000000      0.00000000      0.00000000      0.00000000
 222aa2a 222      0.00002837      0.00001276     -0.44663473     -0.00000000     -0.00000000     -0.00000000      0.00000000
 22a2a2a 222      0.00015949      0.89326951      0.00002553     -0.00000000      0.00000000     -0.00000000      0.00000000
 2aa22a2 222      0.00000000      0.00000000     -0.00006141     -0.00694650     -0.00001162      0.00000106     -0.00007325
 22aa22a 222     -0.44663478      0.00007974     -0.00002837     -0.00000000     -0.00000000     -0.00000000     -0.00000000
 2a22aa2 222     -0.00006141      0.00000001     -0.00000000     -0.00004781      0.89067638      0.00002471      0.00001045
 2aa2a22 222     -0.00000001     -0.00006141     -0.00000000      0.00001661     -0.00002597      0.88678371      0.08784242
 2222aaa 222     -0.44663474      0.00007974     -0.00002837      0.00000000     -0.00000000     -0.00000000      0.00000000
 2aaa222 222     -0.00006141      0.00000001     -0.00000000      0.00001009     -0.19532967      0.00000420      0.00000527
 22a22aa 222      0.00002837      0.00001276     -0.44663477     -0.00000000      0.00000000     -0.00000000     -0.00000000
 222a2aa 222      0.00007974      0.44663477      0.00001276     -0.00000000     -0.00000000     -0.00000000      0.00000000
 2a2aa22 222      0.00000000      0.00000000     -0.00006141      0.86453731      0.00004915     -0.00001504      0.00000384
 22aa2a2 222     -0.00004914     -0.00002210      0.77359411      0.00000000     -0.00000000      0.00000000     -0.00000000
 222aaa2 222      0.77359408     -0.00013812      0.00004913      0.00000000     -0.00000000      0.00000000     -0.00000000
 2a22a2a 222      0.00000001      0.00000000     -0.00010636     -0.49513028     -0.00002167      0.00000807      0.00004008
 2aa222a 222     -0.00010636      0.00000002     -0.00000001      0.00002178     -0.40145847     -0.00001669     -0.00000908
 2a2a2a2 222     -0.00000002     -0.00012282     -0.00000000     -0.00000831      0.00001298     -0.44339181     -0.04392119
 a22a22a 222     -0.00000000     -0.00000000      0.00000000      0.00000084     -0.00000027      0.00000101      0.00000902
 a2222aa 222     -0.00000000      0.00000000     -0.00000000     -0.00000123      0.00000079      0.00846424     -0.08544793
 a2a22a2 222     -0.00000000     -0.00000000      0.00002891      0.00059868      0.00000100     -0.00000009      0.00000631
 a222aa2 222      0.00002891     -0.00000001      0.00000000      0.00000412     -0.07676244     -0.00000213     -0.00000090
 a2a2a22 222      0.00000001      0.00002891      0.00000000     -0.00000143      0.00000224     -0.07642695     -0.00757065
 a2aa222 222      0.00002891     -0.00000001      0.00000000     -0.00000087      0.01683438     -0.00000036     -0.00000045
 a22aa22 222     -0.00000000     -0.00000000      0.00002891     -0.07450966     -0.00000424      0.00000130     -0.00000033
 
 Energy:      -1391.80434861  -1391.80434861  -1391.80434860  -1391.67168132  -1391.67168132  -1391.67168132  -1391.67168131

 State:               15              16              17
 22a2aa2 222     -0.00000000     -0.00000000      0.00000000
 2a2a22a 222      0.99630668      0.00003287      0.00003826
 2a222aa 222      0.00010299      0.00008174     -0.00000759
 22aaa22 222     -0.00000000      0.00000000      0.00000000
 222aa2a 222     -0.00000000      0.00000000     -0.00000000
 22a2a2a 222      0.00000000     -0.00000000      0.00000000
 2aa22a2 222     -0.00002947      0.89109666      0.00003180
 22aa22a 222      0.00000000      0.00000000     -0.00000000
 2a22aa2 222     -0.00000175      0.00001225     -0.02823598
 2aa2a22 222      0.00001968      0.00000629     -0.00001065
 2222aaa 222      0.00000000      0.00000000      0.00000000
 2aaa222 222     -0.00003276     -0.00003349      0.86945264
 22a22aa 222     -0.00000000     -0.00000000      0.00000000
 222a2aa 222     -0.00000000      0.00000000      0.00000000
 2a2aa22 222      0.00001561     -0.21604830     -0.00000731
 22aa2a2 222      0.00000000      0.00000000      0.00000000
 222aaa2 222     -0.00000000     -0.00000000     -0.00000000
 2a22a2a 222      0.00000800     -0.38973949     -0.00001414
 2aa222a 222      0.00001993      0.00001227     -0.48567668
 2a2a2a2 222     -0.00000984     -0.00000315      0.00000532
 a22a22a 222     -0.08586613     -0.00000283     -0.00000330
 a2222aa 222     -0.00000888     -0.00000704      0.00000065
 a2a22a2 222      0.00000254     -0.07679866     -0.00000274
 a222aa2 222      0.00000015     -0.00000106      0.00243350
 a2a2a22 222     -0.00000170     -0.00000054      0.00000092
 a2aa222 222      0.00000282      0.00000289     -0.07493328
 a22aa22 222     -0.00000135      0.01862000      0.00000063
 
 Energy:      -1391.67168131  -1391.67168131  -1391.67168130
 
 
 CI Coefficients of symmetry 1 (Doublet)
 =======================================

 State:                1               2               3               4               5               6               7
 22aba22 222     -0.00000102     -0.00018494     -0.55517908      0.00016453      0.00078673     -0.00004688     -0.18466461
 22222a0 222      0.00000102      0.00018494      0.55517907     -0.00016453     -0.00078673      0.00004688      0.18466460
 222a2ab 222      0.00000000      0.00000000      0.00000001      0.00000000     -0.00000000     -0.00000000      0.00000001
 222220a 222      0.18389174     -0.00000687     -0.00006117     -0.00004510      0.00001205      0.51637449      0.00000993
 2222aab 222      0.00000788      0.00003424      0.00012848      0.50417270     -0.00043956      0.00004545     -0.00001865
 22a22ab 222     -0.00000436     -0.05760127      0.00075017      0.00046182      0.50341380     -0.00001944     -0.00005221
 22a2ba2 222     -0.04835846     -0.00001261     -0.00000403     -0.00003281      0.00003142      0.30887572      0.00003539
 22b2aa2 222      0.48495261      0.00000921      0.00002509      0.00002164     -0.00001131     -0.31001658     -0.00002097
 222a022 222     -0.26840348      0.00000680      0.00004771      0.00004185     -0.00001547     -0.44690824     -0.00001221
 220a222 222      0.05010638     -0.00000510     -0.00005824     -0.00003627      0.00000541      0.44747862      0.00000500
 22aab22 222      0.00000343      0.00006871      0.15544552     -0.00004456     -0.00017599     -0.00000323      0.45954917
 22ba22a 222     -0.00000595     -0.00003928      0.00019683      0.04456831     -0.00021483     -0.00000757      0.00014798
 222ab2a 222     -0.00000207      0.44396993     -0.00006791      0.00002034      0.05079967      0.00000687     -0.00002393
 22a2ab2 222     -0.43659415      0.00000340     -0.00002106      0.00001117     -0.00002012      0.00114086     -0.00001441
 222a220 222      0.43659413     -0.00000340      0.00002106     -0.00001117      0.00002012     -0.00114086      0.00001441
 222b2aa 222     -0.00000337      0.00002743      0.14103975     -0.00004353     -0.00025100      0.00003079     -0.42402552
 222a2ba 222      0.00000337     -0.00002743     -0.14103976      0.00004353      0.00025100     -0.00003079      0.42402551
 222aa2b 222      0.00000482     -0.28977651     -0.00051169     -0.00036162     -0.41566013      0.00000943      0.00005711
 22220a2 222     -0.00000317     -0.00002248     -0.01665077      0.00000343     -0.00002069      0.00001495     -0.41338305
 222022a 222      0.30790729      0.00001260      0.00001681      0.00003144     -0.00002467     -0.35731763     -0.00003254
 22aa22b 222     -0.00000145      0.00000378     -0.00024398     -0.41155573      0.00049079     -0.00002841     -0.00009700
 2202a22 222      0.00000054     -0.40111732      0.00027536      0.00011570      0.10132923     -0.00001156      0.00000565
 22baa22 222     -0.00000240      0.00011622      0.39973356     -0.00011996     -0.00061074      0.00005011     -0.27488456
 22a2022 222      0.00000743      0.00004390     -0.00013337      0.10694485      0.00005916      0.00001967     -0.00013354
 22ba2a2 222     -0.00000027      0.20055863     -0.00013768     -0.00005785     -0.05066463      0.00000578     -0.00000282
 222aba2 222     -0.00000371     -0.00002195      0.00006669     -0.05347241     -0.00002958     -0.00000984      0.00006677
 22a2202 222     -0.00000288     -0.00002413      0.00020755      0.18413939     -0.00031294      0.00000657      0.00012277
 2222a02 222     -0.00000305      0.36786122      0.00015774      0.00015093      0.18931687      0.00000034     -0.00003579
 22ab22a 222      0.00000740      0.00003550      0.00004715      0.36698742     -0.00027596      0.00003598     -0.00005098
 22b22aa 222      0.00000099      0.36657817     -0.00048853     -0.00025413     -0.25555830      0.00001649      0.00001251
 222ba2a 222     -0.00000275     -0.15419342      0.00057960      0.00034128      0.36486046     -0.00001630     -0.00003318
 2222baa 222     -0.00000906     -0.00004943      0.00007268     -0.26067450      0.00009528     -0.00003218      0.00012186
 22a2220 222      0.00000371      0.00002195     -0.00006669      0.05347242      0.00002958      0.00000984     -0.00006677
 2220a22 222      0.00000225      0.23381479     -0.00057079     -0.00032448     -0.34131072      0.00001701      0.00002732
 2222a20 222      0.00000027     -0.20055868      0.00013768      0.00005785      0.05066462     -0.00000578      0.00000282
 22a0222 222     -0.00000826     -0.00004172     -0.00000749     -0.34455664      0.00022420     -0.00003607      0.00007753
 22022a2 222      0.00000266     -0.00006999     -0.26093876      0.00007883      0.00041406     -0.00003839      0.32105071
 2222aba 222      0.00000118      0.00001519     -0.00020116     -0.24349820      0.00034427     -0.00001326     -0.00010322
 22a22ba 222      0.00000337     -0.30897690     -0.00026164     -0.00020768     -0.24785550      0.00000295      0.00003970
 222202a 222     -0.18288259     -0.00000336      0.00002522      0.00000522      0.00000921     -0.07969311      0.00001338
 22a2b2a 222      0.00000015      0.00002669      0.08013320     -0.00002375     -0.00011355      0.00000677      0.02665403
 22b2a2a 222     -0.00000015     -0.00002669     -0.08013319      0.00002375      0.00011355     -0.00000677     -0.02665403
 220222a 222     -0.30891644     -0.00000237      0.00001914      0.00000844      0.00000340     -0.07936375      0.00000922
 222baa2 222      0.00000455      0.00001977      0.00007418      0.29108424     -0.00025378      0.00002624     -0.00001076
 22ab2a2 222     -0.00000252     -0.03325610      0.00043311      0.00026663      0.29064610     -0.00001122     -0.00003015
 22202a2 222     -0.00000051     -0.00009247     -0.27758953      0.00008226      0.00039336     -0.00002344     -0.09233229
 22aa2b2 222      0.00000278     -0.16730253     -0.00029543     -0.00020878     -0.23998147      0.00000544      0.00003297
 222aab2 222     -0.00000083      0.00000218     -0.00014086     -0.23761183      0.00028336     -0.00001640     -0.00005600
 222a202 222     -0.21829706      0.00000170     -0.00001053      0.00000558     -0.00001006      0.00057044     -0.00000721
 22a2a2b 222     -0.00000000     -0.00000000     -0.00000001     -0.00000000      0.00000000     -0.00000000     -0.00000000
 
 Energy:      -1391.79876073  -1391.79876073  -1391.79876073  -1391.79876073  -1391.79876073  -1391.79876073  -1391.79876073

 State:                8               9              10              11              12              13              14
 22aba22 222      0.00029109      0.00003786      0.00000000     -0.00000002     -0.00000000     -0.00002636      0.37534201
 22222a0 222     -0.00029109     -0.00003786      0.00000000     -0.00000009     -0.00000000     -0.00003753      0.53426731
 222a2ab 222     -0.00000000     -0.00000000     -0.00018035      0.55052256      0.00007704      0.00000000      0.00000007
 222220a 222      0.00004560     -0.20461375     -0.00000000     -0.00000000     -0.00000000      0.34069220      0.00001628
 2222aab 222     -0.05053596     -0.00000069     -0.00000019     -0.00000963      0.06881534      0.00003264      0.00302033
 22a22ab 222      0.00019154     -0.00002167      0.06881531      0.00002254      0.00000020      0.00000143     -0.00013846
 22a2ba2 222     -0.00006413      0.49455317      0.00000000      0.00000000     -0.00000000      0.06270830     -0.00000225
 22b2aa2 222      0.00001434     -0.10505369     -0.00000000      0.00000000      0.00000000     -0.35185549     -0.00002205
 222a022 222     -0.00002704      0.07982585      0.00000000     -0.00000000     -0.00000000      0.47428462      0.00003234
 220a222 222      0.00005194     -0.27457556     -0.00000000      0.00000000      0.00000000      0.05972086      0.00001254
 22aab22 222     -0.00021736     -0.00002928      0.00011714     -0.35757489     -0.00005004      0.00001318     -0.18767104
 22ba22a 222      0.44463859      0.00006476     -0.00000077     -0.00003852      0.27526128     -0.00000000     -0.00000000
 222ab2a 222      0.00006176      0.00000361      0.27526132      0.00009017      0.00000078     -0.00000000      0.00000000
 22a2ab2 222      0.00004979     -0.38949947     -0.00000000     -0.00000000     -0.00000000      0.28914719      0.00002430
 222a220 222     -0.00004979      0.38949946     -0.00000000     -0.00000000     -0.00000000      0.41157635      0.00003459
 222b2aa 222      0.00008293      0.00001195      0.00009017     -0.27526128     -0.00003852     -0.00000000     -0.00000004
 222a2ba 222     -0.00008293     -0.00001195      0.00009017     -0.27526128     -0.00003852      0.00000000     -0.00000003
 222aa2b 222     -0.00018998      0.00001355      0.06881528      0.00002254      0.00000020      0.00000143     -0.00013846
 22220a2 222      0.00014459      0.00001982      0.00011714     -0.35757493     -0.00005004     -0.00002434      0.34659624
 222022a 222      0.00004531     -0.34618317     -0.00000000     -0.00000000     -0.00000000      0.34069219      0.00001628
 22aa22b 222     -0.29557697     -0.00004806     -0.00000019     -0.00000963      0.06881537      0.00003264      0.00302033
 2202a22 222      0.00000180     -0.00000938      0.35757485      0.00011714      0.00000102      0.00000152     -0.00014763
 22baa22 222     -0.00007373     -0.00000858     -0.00011714      0.35757491      0.00005004      0.00001318     -0.18767097
 22a2022 222     -0.39965680     -0.00005629     -0.00000100     -0.00005004      0.35757496      0.00003480      0.00322048
 22ba2a2 222     -0.00000090      0.00000469      0.23838329      0.00007809      0.00000068     -0.00000165      0.00015988
 222aba2 222      0.19982841      0.00002814     -0.00000067     -0.00003336      0.23838324     -0.00003769     -0.00348758
 22a2202 222      0.37047983      0.00005589      0.00000100      0.00005004     -0.35757490      0.00003480      0.00322048
 2222a02 222      0.00010878     -0.00000313     -0.35757488     -0.00011714     -0.00000102      0.00000152     -0.00014763
 22ab22a 222     -0.14906162     -0.00001671      0.00000096      0.00004815     -0.34407665     -0.00003264     -0.00302033
 22b22aa 222     -0.00006541      0.00001535      0.27526130      0.00009017      0.00000078      0.00000000     -0.00000000
 222ba2a 222      0.00012822     -0.00001716     -0.34407660     -0.00011272     -0.00000098     -0.00000143      0.00013846
 2222baa 222      0.36295827      0.00004897     -0.00000077     -0.00003852      0.27526130      0.00000000     -0.00000000
 22a2220 222     -0.19982838     -0.00002814     -0.00000100     -0.00005004      0.35757491     -0.00000289     -0.00026710
 2220a22 222     -0.00011149      0.00001720     -0.35757490     -0.00011714     -0.00000102      0.00000152     -0.00014763
 2222a20 222      0.00000090     -0.00000469      0.35757489      0.00011714      0.00000102     -0.00000013      0.00001224
 22a0222 222      0.22900533      0.00002854      0.00000100      0.00005004     -0.35757487      0.00003480      0.00322048
 22022a2 222      0.00000095     -0.00000089     -0.00011714      0.35757485      0.00005004     -0.00002434      0.34659635
 2222aba 222     -0.31242231     -0.00004829      0.00000096      0.00004815     -0.34407664     -0.00003264     -0.00302033
 22a22ba 222     -0.00012613      0.00000633     -0.34407662     -0.00011272     -0.00000098     -0.00000143      0.00013846
 222202a 222     -0.00005264      0.33161789      0.00000000      0.00000000     -0.00000000      0.23207819      0.00002017
 22a2b2a 222     -0.00004202     -0.00000546     -0.00002254      0.06881528      0.00000963     -0.00002283      0.32505573
 22b2a2a 222      0.00004202      0.00000546     -0.00002254      0.06881537      0.00000963      0.00002283     -0.32505572
 220222a 222     -0.00003827      0.21917905      0.00000000      0.00000000     -0.00000000     -0.26873942     -0.00002192
 222baa2 222     -0.02917695     -0.00000040      0.00000033      0.00001668     -0.11919163      0.00001884      0.00174379
 22ab2a2 222      0.00011059     -0.00001251     -0.11919163     -0.00003905     -0.00000034      0.00000082     -0.00007994
 22202a2 222      0.00014555      0.00001893     -0.00000000      0.00000003      0.00000000      0.00001520     -0.21641672
 22aa2b2 222     -0.00010968      0.00000782     -0.11919166     -0.00003905     -0.00000034      0.00000082     -0.00007994
 222aab2 222     -0.17065146     -0.00002775      0.00000033      0.00001668     -0.11919161      0.00001884      0.00174379
 222a202 222      0.00002490     -0.19474974     -0.00000000     -0.00000000     -0.00000000     -0.16671806     -0.00001401
 22a2a2b 222      0.00000000      0.00000000      0.00004509     -0.13763064     -0.00001926      0.00000000     -0.00000001
 
 Energy:      -1391.79876073  -1391.79876073  -1391.78998847  -1391.78998846  -1391.78998846  -1391.77657955  -1391.77657955

 State:               15              16              17
 22aba22 222      0.00348837     -0.00014153     -0.00000663
 22222a0 222      0.00496540     -0.00020145     -0.00000944
 222a2ab 222      0.00000000     -0.00000000     -0.00000000
 222220a 222      0.00004123      0.00001096     -0.41157633
 2222aab 222     -0.32505123     -0.00171099     -0.00000547
 22a22ab 222      0.00170978     -0.32506526     -0.00000731
 22a2ba2 222      0.00001246      0.00000867     -0.37008308
 22b2aa2 222     -0.00003771     -0.00000468      0.13073455
 222a022 222      0.00004840      0.00000299     -0.02939091
 220a222 222     -0.00000177     -0.00001036      0.47142675
 22aab22 222     -0.00174419      0.00007076      0.00000332
 22ba22a 222      0.00000002      0.00000000     -0.00000000
 222ab2a 222      0.00000000     -0.00000001      0.00000000
 22a2ab2 222      0.00002525     -0.00000399      0.23934852
 222a220 222      0.00003594     -0.00000568      0.34069219
 222b2aa 222     -0.00000000      0.00000000      0.00000000
 222a2ba 222     -0.00000000      0.00000000      0.00000000
 222aa2b 222      0.00170978     -0.32506526     -0.00000731
 22220a2 222      0.00322121     -0.00013069     -0.00000612
 222022a 222      0.00004123      0.00001096     -0.41157634
 22aa22b 222     -0.32505124     -0.00171099     -0.00000547
 2202a22 222      0.00182308     -0.34660649     -0.00000780
 22baa22 222     -0.00174419      0.00007076      0.00000332
 22a2022 222     -0.34659148     -0.00182438     -0.00000583
 22ba2a2 222     -0.00197428      0.37535301      0.00000844
 222aba2 222      0.37533687      0.00197568      0.00000632
 22a2202 222     -0.34659155     -0.00182438     -0.00000583
 2222a02 222      0.00182308     -0.34660646     -0.00000780
 22ab22a 222      0.32505122      0.00171099      0.00000547
 22b22aa 222     -0.00000000      0.00000000      0.00000000
 222ba2a 222     -0.00170978      0.32506527      0.00000731
 2222baa 222      0.00000001      0.00000000      0.00000000
 22a2220 222      0.02874535      0.00015131      0.00000048
 2220a22 222      0.00182308     -0.34660644     -0.00000780
 2222a20 222     -0.00015120      0.02874655      0.00000065
 22a0222 222     -0.34659157     -0.00182438     -0.00000583
 22022a2 222      0.00322121     -0.00013069     -0.00000612
 2222aba 222      0.32505122      0.00171099      0.00000547
 22a22ba 222     -0.00170978      0.32506526      0.00000731
 222202a 222      0.00001965     -0.00000405      0.22942637
 22a2b2a 222      0.00302102     -0.00012256     -0.00000574
 22b2a2a 222     -0.00302102      0.00012256      0.00000574
 220222a 222     -0.00002409      0.00000287     -0.18513747
 222baa2 222     -0.18766842     -0.00098784     -0.00000316
 22ab2a2 222      0.00098714     -0.18767651     -0.00000422
 22202a2 222     -0.00201134      0.00008160      0.00000382
 22aa2b2 222      0.00098714     -0.18767650     -0.00000422
 222aab2 222     -0.18766844     -0.00098784     -0.00000316
 222a202 222     -0.00001456      0.00000230     -0.13800486
 22a2a2b 222     -0.00000000     -0.00000000      0.00000000
 
 Energy:      -1391.77657955  -1391.77657955  -1391.77657955
 


 **********************************************************************************************************************************
 DATASETS  * FILE   NREC   LENGTH (MB)   RECORD NAMES
              1      24       36.44       500      610      700      900      950      970     1000      129      960     1700   
[...]
   88    3.1  0.5 -0.5   0.002%   2.302%   0.432%  13.400%   0.913%   9.305%   0.000%   0.000%   0.000%   0.000%
   89    4.1  0.5 -0.5   0.065%  12.615%   0.048%  23.564%   0.055%   3.255%   0.000%   0.000%   0.000%   0.000%
   90    5.1  0.5 -0.5   0.638%  11.453%   0.853%   1.188%   0.756%  20.893%   0.000%   0.000%   0.000%   0.000%
   91    6.1  0.5 -0.5   0.458%   0.901%  28.303%   0.221%   6.949%   0.042%   0.000%   0.000%   0.000%   0.000%
   92    7.1  0.5 -0.5  18.221%   0.662%   3.817%   0.246%  20.170%   0.974%   0.000%   0.000%   0.000%   0.000%
   93    8.1  0.5 -0.5  43.364%   0.268%   0.536%   0.011%   0.087%   0.002%   0.000%   0.000%   0.000%   0.000%
   94    9.1  0.5 -0.5   0.304%   0.000%   8.754%   0.141%  34.421%   0.747%   0.000%   0.000%   0.000%   0.000%
   95   10.1  0.5 -0.5   0.000%   0.000%   0.000%   0.000%   0.000%   0.000%  58.921%   0.003%   0.000%   0.000%
   96   11.1  0.5 -0.5   0.000%   0.000%   0.000%   0.000%   0.000%   0.000%   0.001%  14.580%   0.162%  44.116%
   97   12.1  0.5 -0.5   0.000%   0.000%   0.000%   0.000%   0.000%   0.000%   0.001%  14.816%   0.157%  43.885%
   98   13.1  0.5 -0.5   0.000%   0.000%   0.000%   0.000%   0.000%   0.000%   0.001%   2.486%   0.001%   0.819%
   99   14.1  0.5 -0.5   0.000%   0.000%   0.000%   0.000%   0.000%   0.000%   0.000%   2.474%   0.005%   0.829%
  100   15.1  0.5 -0.5   0.000%   0.000%   0.000%   0.000%   0.000%   0.000%   0.000%   0.000%   3.292%   0.014%
  101   16.1  0.5 -0.5   0.000%   0.000%   0.000%   0.000%   0.000%   0.000%   3.068%   0.001%   0.237%   0.000%
  102   17.1  0.5 -0.5   0.000%   0.000%   0.000%   0.000%   0.000%   0.000%   0.236%   0.000%   3.062%   0.010%

   Nr   State  S   Sz      91       92       93       94       95       96       97       98       99      100

    1    1.1  1.5  1.5   0.000%   0.000%   0.001%   0.000%   0.000%   0.023%   0.000%   0.002%   0.000%   0.008%
    2    2.1  1.5  1.5   0.000%   0.000%   0.000%   0.006%   0.022%   0.000%   0.000%   0.000%   0.035%   0.000%
    3    3.1  1.5  1.5   0.000%   0.000%   0.000%   0.000%   0.000%   0.008%   0.000%   0.016%   0.000%   0.005%
    4    4.1  1.5  1.5   0.000%   0.000%   0.000%   0.000%   0.016%   0.000%   0.015%   0.000%   0.013%   0.000%
    5    5.1  1.5  1.5   0.000%   0.000%   0.003%   0.000%   0.000%   0.008%   0.000%   0.015%   0.000%   0.006%
    6    6.1  1.5  1.5   0.000%   0.000%   0.000%   0.013%   0.008%   0.000%   0.009%   0.000%   0.022%   0.000%
    7    7.1  1.5  1.5   0.000%   0.000%   0.022%   0.000%   0.000%   0.005%   0.000%   0.001%   0.000%   0.010%
    8    8.1  1.5  1.5   0.000%   0.346%   0.045%   0.000%   0.000%   0.057%   0.000%   0.034%   0.000%   0.051%
    9    9.1  1.5  1.5   0.000%   0.000%   0.000%   0.021%   0.006%   0.000%   0.072%   0.000%   0.000%   0.000%
   10   10.1  1.5  1.5   0.000%   0.346%   0.100%   0.001%   0.000%   0.002%   0.000%   0.034%   0.000%   0.051%
   11   11.1  1.5  1.5   0.000%   0.000%   0.000%   0.000%   0.000%   0.000%   0.000%   0.000%   0.000%   0.000%
   12   12.1  1.5  1.5   0.000%   0.000%   0.000%   0.000%   0.000%   0.000%   0.000%   0.000%   0.000%   0.000%
   13   13.1  1.5  1.5   0.000%   0.000%   0.000%   0.000%   0.000%   0.000%   0.000%   0.000%   0.000%   0.000%
   14   14.1  1.5  1.5   0.000%   0.000%   0.000%   0.000%   0.000%   0.000%   0.000%   0.000%   0.000%   0.000%
   15   15.1  1.5  1.5   0.000%   0.000%   0.000%   0.000%   0.000%   0.000%   0.000%   0.000%   0.000%   0.000%
   16   16.1  1.5  1.5   0.000%   0.000%   0.000%   0.000%   0.000%   0.000%   0.000%   0.000%   0.000%   0.000%
   17   17.1  1.5  1.5   0.000%   0.000%   0.000%   0.000%   0.000%   0.000%   0.000%   0.000%   0.000%   0.000%
   18    1.1  1.5  0.5   0.000%   0.000%   0.000%   0.001%   0.002%   0.000%   0.026%   0.000%   0.024%   0.000%
   19    2.1  1.5  0.5   0.000%   0.000%   0.007%   0.000%   0.000%   0.002%   0.000%   0.019%   0.000%   0.000%
   20    3.1  1.5  0.5   0.000%   0.000%   0.000%   0.021%   0.009%   0.000%   0.000%   0.000%   0.013%   0.000%
   21    4.1  1.5  0.5   0.000%   0.000%   0.021%   0.000%   0.000%   0.003%   0.000%   0.000%   0.000%   0.040%
   22    5.1  1.5  0.5   0.000%   0.000%   0.000%   0.025%   0.004%   0.000%   0.000%   0.000%   0.019%   0.000%
   23    6.1  1.5  0.5   0.000%   0.000%   0.005%   0.000%   0.000%   0.020%   0.000%   0.000%   0.000%   0.023%
   24    7.1  1.5  0.5   0.000%   0.000%   0.000%   0.001%   0.000%   0.000%   0.026%   0.000%   0.029%   0.000%
   25    8.1  1.5  0.5   0.116%   0.000%   0.000%   0.046%   0.011%   0.000%   0.054%   0.000%   0.068%   0.000%
   26    9.1  1.5  0.5   0.001%   0.462%   0.032%   0.000%   0.000%   0.116%   0.000%   0.000%   0.000%   0.017%
   27   10.1  1.5  0.5   0.116%   0.000%   0.000%   0.001%   0.056%   0.000%   0.054%   0.000%   0.067%   0.000%
   28   11.1  1.5  0.5   0.000%   0.000%   0.000%   0.000%   0.000%   0.000%   0.000%   0.000%   0.000%   0.000%
   29   12.1  1.5  0.5   0.000%   0.000%   0.000%   0.000%   0.000%   0.000%   0.000%   0.000%   0.000%   0.000%
   30   13.1  1.5  0.5   0.000%   0.000%   0.000%   0.000%   0.000%   0.000%   0.000%   0.000%   0.000%   0.000%
   31   14.1  1.5  0.5   0.000%   0.000%   0.000%   0.000%   0.000%   0.000%   0.000%   0.000%   0.000%   0.000%
   32   15.1  1.5  0.5   0.000%   0.000%   0.000%   0.000%   0.000%   0.000%   0.000%   0.000%   0.000%   0.000%
   33   16.1  1.5  0.5   0.000%   0.000%   0.000%   0.000%   0.000%   0.000%   0.000%   0.000%   0.000%   0.000%
   34   17.1  1.5  0.5   0.000%   0.000%   0.000%   0.000%   0.000%   0.000%   0.000%   0.000%   0.000%   0.000%
   35    1.1  1.5 -0.5   0.000%   0.000%   0.001%   0.000%   0.000%   0.002%   0.000%   0.026%   0.000%   0.024%
   36    2.1  1.5 -0.5   0.000%   0.000%   0.000%   0.007%   0.002%   0.000%   0.019%   0.000%   0.000%   0.000%
   37    3.1  1.5 -0.5   0.000%   0.000%   0.021%   0.000%   0.000%   0.009%   0.000%   0.000%   0.000%   0.013%
   38    4.1  1.5 -0.5   0.000%   0.000%   0.000%   0.021%   0.003%   0.000%   0.000%   0.000%   0.040%   0.000%
   39    5.1  1.5 -0.5   0.000%   0.000%   0.025%   0.000%   0.000%   0.004%   0.000%   0.000%   0.000%   0.019%
   40    6.1  1.5 -0.5   0.000%   0.000%   0.000%   0.005%   0.020%   0.000%   0.000%   0.000%   0.023%   0.000%
   41    7.1  1.5 -0.5   0.000%   0.000%   0.001%   0.000%   0.000%   0.000%   0.000%   0.026%   0.000%   0.029%
   42    8.1  1.5 -0.5   0.000%   0.116%   0.046%   0.000%   0.000%   0.011%   0.000%   0.054%   0.000%   0.068%
   43    9.1  1.5 -0.5   0.462%   0.001%   0.000%   0.032%   0.116%   0.000%   0.000%   0.000%   0.017%   0.000%
   44   10.1  1.5 -0.5   0.000%   0.116%   0.001%   0.000%   0.000%   0.056%   0.000%   0.054%   0.000%   0.067%
   45   11.1  1.5 -0.5   0.000%   0.000%   0.000%   0.000%   0.000%   0.000%   0.000%   0.000%   0.000%   0.000%
   46   12.1  1.5 -0.5   0.000%   0.000%   0.000%   0.000%   0.000%   0.000%   0.000%   0.000%   0.000%   0.000%
   47   13.1  1.5 -0.5   0.000%   0.000%   0.000%   0.000%   0.000%   0.000%   0.000%   0.000%   0.000%   0.000%
   48   14.1  1.5 -0.5   0.000%   0.000%   0.000%   0.000%   0.000%   0.000%   0.000%   0.000%   0.000%   0.000%
   49   15.1  1.5 -0.5   0.000%   0.000%   0.000%   0.000%   0.000%   0.000%   0.000%   0.000%   0.000%   0.000%
   50   16.1  1.5 -0.5   0.000%   0.000%   0.000%   0.000%   0.000%   0.000%   0.000%   0.000%   0.000%   0.000%
   51   17.1  1.5 -0.5   0.000%   0.000%   0.000%   0.000%   0.000%   0.000%   0.000%   0.000%   0.000%   0.000%
   52    1.1  1.5 -1.5   0.000%   0.000%   0.000%   0.001%   0.023%   0.000%   0.002%   0.000%   0.008%   0.000%
   53    2.1  1.5 -1.5   0.000%   0.000%   0.006%   0.000%   0.000%   0.022%   0.000%   0.000%   0.000%   0.035%
   54    3.1  1.5 -1.5   0.000%   0.000%   0.000%   0.000%   0.008%   0.000%   0.016%   0.000%   0.005%   0.000%
   55    4.1  1.5 -1.5   0.000%   0.000%   0.000%   0.000%   0.000%   0.016%   0.000%   0.015%   0.000%   0.013%
   56    5.1  1.5 -1.5   0.000%   0.000%   0.000%   0.003%   0.008%   0.000%   0.015%   0.000%   0.006%   0.000%
   57    6.1  1.5 -1.5   0.000%   0.000%   0.013%   0.000%   0.000%   0.008%   0.000%   0.009%   0.000%   0.022%
   58    7.1  1.5 -1.5   0.000%   0.000%   0.000%   0.022%   0.005%   0.000%   0.001%   0.000%   0.010%   0.000%
   59    8.1  1.5 -1.5   0.346%   0.000%   0.000%   0.045%   0.057%   0.000%   0.034%   0.000%   0.051%   0.000%
   60    9.1  1.5 -1.5   0.000%   0.000%   0.021%   0.000%   0.000%   0.006%   0.000%   0.072%   0.000%   0.000%
   61   10.1  1.5 -1.5   0.346%   0.000%   0.001%   0.100%   0.002%   0.000%   0.034%   0.000%   0.051%   0.000%
   62   11.1  1.5 -1.5   0.000%   0.000%   0.000%   0.000%   0.000%   0.000%   0.000%   0.000%   0.000%   0.000%
   63   12.1  1.5 -1.5   0.000%   0.000%   0.000%   0.000%   0.000%   0.000%   0.000%   0.000%   0.000%   0.000%
   64   13.1  1.5 -1.5   0.000%   0.000%   0.000%   0.000%   0.000%   0.000%   0.000%   0.000%   0.000%   0.000%
   65   14.1  1.5 -1.5   0.000%   0.000%   0.000%   0.000%   0.000%   0.000%   0.000%   0.000%   0.000%   0.000%
   66   15.1  1.5 -1.5   0.000%   0.000%   0.000%   0.000%   0.000%   0.000%   0.000%   0.000%   0.000%   0.000%
   67   16.1  1.5 -1.5   0.000%   0.000%   0.000%   0.000%   0.000%   0.000%   0.000%   0.000%   0.000%   0.000%
   68   17.1  1.5 -1.5   0.000%   0.000%   0.000%   0.000%   0.000%   0.000%   0.000%   0.000%   0.000%   0.000%
   69    1.1  0.5  0.5   0.000%   0.000%   0.000%   0.000%   0.000%   0.000%   0.000%   0.000%   0.000%   0.000%
   70    2.1  0.5  0.5   0.000%   0.000%   0.000%   0.000%   0.000%   0.000%   0.000%   0.000%   0.000%   0.000%
   71    3.1  0.5  0.5   0.000%   0.000%   0.000%   0.000%   0.000%   0.000%   0.000%   0.000%   0.000%   0.000%
   72    4.1  0.5  0.5   0.000%   0.000%   0.000%   0.000%   0.000%   0.000%   0.000%   0.000%   0.000%   0.000%
   73    5.1  0.5  0.5   0.000%   0.000%   0.000%   0.000%   0.000%   0.000%   0.000%   0.000%   0.000%   0.000%
   74    6.1  0.5  0.5   0.000%   0.000%   0.000%   0.000%   0.000%   0.000%   0.000%   0.000%   0.000%   0.000%
   75    7.1  0.5  0.5   0.000%   0.000%   0.000%   0.000%   0.000%   0.000%   0.000%   0.000%   0.000%   0.000%
   76    8.1  0.5  0.5   0.000%   0.000%   0.000%   0.000%   0.000%   0.000%   0.000%   0.000%   0.000%   0.000%
   77    9.1  0.5  0.5   0.000%   0.000%   0.000%   0.000%   0.000%   0.000%   0.000%   0.000%   0.000%   0.000%
   78   10.1  0.5  0.5   0.036%  32.792%   0.000%   0.000%   0.000%   0.000%   0.000%   0.000%   0.000%   5.365%
   79   11.1  0.5  0.5  32.855%   0.038%   0.000%   0.000%   0.000%   0.000%   0.000%   0.000%   1.353%   0.000%
   80   12.1  0.5  0.5  32.854%   0.038%   0.000%   0.000%   0.000%   0.000%   0.000%   0.000%   1.331%   0.000%
   81   13.1  0.5  0.5   0.000%   0.000%   0.282%  24.826%   5.779%   0.013%  28.874%   0.003%  27.342%   0.022%
   82   14.1  0.5  0.5   0.000%   0.000%   0.016%   0.662%  30.015%   0.004%  29.077%   0.001%  27.504%   0.001%
   83   15.1  0.5  0.5   0.000%   0.000%  45.486%   0.341%   0.002%  12.954%   0.002%   0.987%   0.001%   0.001%
   84   16.1  0.5  0.5   0.000%   0.000%  20.189%   0.237%   0.005%  36.420%   0.013%   2.908%   0.019%  34.029%
   85   17.1  0.5  0.5   0.000%   0.000%   7.523%   0.062%   0.001%  14.430%   0.002%  37.755%   0.000%   2.530%
   86    1.1  0.5 -0.5   0.000%   0.000%   0.000%   0.000%   0.000%   0.000%   0.000%   0.000%   0.000%   0.000%
   87    2.1  0.5 -0.5   0.000%   0.000%   0.000%   0.000%   0.000%   0.000%   0.000%   0.000%   0.000%   0.000%
   88    3.1  0.5 -0.5   0.000%   0.000%   0.000%   0.000%   0.000%   0.000%   0.000%   0.000%   0.000%   0.000%
   89    4.1  0.5 -0.5   0.000%   0.000%   0.000%   0.000%   0.000%   0.000%   0.000%   0.000%   0.000%   0.000%
   90    5.1  0.5 -0.5   0.000%   0.000%   0.000%   0.000%   0.000%   0.000%   0.000%   0.000%   0.000%   0.000%
   91    6.1  0.5 -0.5   0.000%   0.000%   0.000%   0.000%   0.000%   0.000%   0.000%   0.000%   0.000%   0.000%
   92    7.1  0.5 -0.5   0.000%   0.000%   0.000%   0.000%   0.000%   0.000%   0.000%   0.000%   0.000%   0.000%
   93    8.1  0.5 -0.5   0.000%   0.000%   0.000%   0.000%   0.000%   0.000%   0.000%   0.000%   0.000%   0.000%
   94    9.1  0.5 -0.5   0.000%   0.000%   0.000%   0.000%   0.000%   0.000%   0.000%   0.000%   0.000%   0.000%
   95   10.1  0.5 -0.5  32.792%   0.036%   0.000%   0.000%   0.000%   0.000%   0.000%   0.000%   5.365%   0.000%
   96   11.1  0.5 -0.5   0.038%  32.855%   0.000%   0.000%   0.000%   0.000%   0.000%   0.000%   0.000%   1.353%
   97   12.1  0.5 -0.5   0.038%  32.854%   0.000%   0.000%   0.000%   0.000%   0.000%   0.000%   0.000%   1.331%
   98   13.1  0.5 -0.5   0.000%   0.000%  24.826%   0.282%   0.013%   5.779%   0.003%  28.874%   0.022%  27.342%
   99   14.1  0.5 -0.5   0.000%   0.000%   0.662%   0.016%   0.004%  30.015%   0.001%  29.077%   0.001%  27.504%
  100   15.1  0.5 -0.5   0.000%   0.000%   0.341%  45.486%  12.954%   0.002%   0.987%   0.002%   0.001%   0.001%
  101   16.1  0.5 -0.5   0.000%   0.000%   0.237%  20.189%  36.420%   0.005%   2.908%   0.013%  34.029%   0.019%
  102   17.1  0.5 -0.5   0.000%   0.000%   0.062%   7.523%  14.430%   0.001%  37.755%   0.002%   2.530%   0.000%

   Nr   State  S   Sz     101      102

    1    1.1  1.5  1.5   0.000%   0.031%
    2    2.1  1.5  1.5   0.000%   0.000%
    3    3.1  1.5  1.5   0.000%   0.049%
    4    4.1  1.5  1.5   0.004%   0.000%
    5    5.1  1.5  1.5   0.000%   0.040%
    6    6.1  1.5  1.5   0.003%   0.000%
    7    7.1  1.5  1.5   0.000%   0.022%
    8    8.1  1.5  1.5   0.000%   0.000%
    9    9.1  1.5  1.5   0.152%   0.000%
   10   10.1  1.5  1.5   0.000%   0.000%
   11   11.1  1.5  1.5   0.000%   0.000%
   12   12.1  1.5  1.5   0.000%   0.000%
   13   13.1  1.5  1.5   0.000%   0.000%
   14   14.1  1.5  1.5   0.000%   0.000%
   15   15.1  1.5  1.5   0.000%   0.000%
   16   16.1  1.5  1.5   0.000%   0.000%
   17   17.1  1.5  1.5   0.000%   0.000%
   18    1.1  1.5  0.5   0.008%   0.000%
   19    2.1  1.5  0.5   0.000%   0.035%
   20    3.1  1.5  0.5   0.004%   0.000%
   21    4.1  1.5  0.5   0.000%   0.013%
   22    5.1  1.5  0.5   0.006%   0.000%
   23    6.1  1.5  0.5   0.000%   0.022%
   24    7.1  1.5  0.5   0.010%   0.000%
   25    8.1  1.5  0.5   0.050%   0.000%
   26    9.1  1.5  0.5   0.000%   0.000%
   27   10.1  1.5  0.5   0.051%   0.000%
   28   11.1  1.5  0.5   0.000%   0.000%
   29   12.1  1.5  0.5   0.000%   0.000%
   30   13.1  1.5  0.5   0.000%   0.000%
   31   14.1  1.5  0.5   0.000%   0.000%
   32   15.1  1.5  0.5   0.000%   0.000%
   33   16.1  1.5  0.5   0.000%   0.000%
   34   17.1  1.5  0.5   0.000%   0.000%
   35    1.1  1.5 -0.5   0.000%   0.008%
   36    2.1  1.5 -0.5   0.035%   0.000%
   37    3.1  1.5 -0.5   0.000%   0.004%
   38    4.1  1.5 -0.5   0.013%   0.000%
   39    5.1  1.5 -0.5   0.000%   0.006%
   40    6.1  1.5 -0.5   0.022%   0.000%
   41    7.1  1.5 -0.5   0.000%   0.010%
   42    8.1  1.5 -0.5   0.000%   0.050%
   43    9.1  1.5 -0.5   0.000%   0.000%
   44   10.1  1.5 -0.5   0.000%   0.051%
   45   11.1  1.5 -0.5   0.000%   0.000%
   46   12.1  1.5 -0.5   0.000%   0.000%
   47   13.1  1.5 -0.5   0.000%   0.000%
   48   14.1  1.5 -0.5   0.000%   0.000%
   49   15.1  1.5 -0.5   0.000%   0.000%
   50   16.1  1.5 -0.5   0.000%   0.000%
   51   17.1  1.5 -0.5   0.000%   0.000%
   52    1.1  1.5 -1.5   0.031%   0.000%
   53    2.1  1.5 -1.5   0.000%   0.000%
   54    3.1  1.5 -1.5   0.049%   0.000%
   55    4.1  1.5 -1.5   0.000%   0.004%
   56    5.1  1.5 -1.5   0.040%   0.000%
   57    6.1  1.5 -1.5   0.000%   0.003%
   58    7.1  1.5 -1.5   0.022%   0.000%
   59    8.1  1.5 -1.5   0.000%   0.000%
   60    9.1  1.5 -1.5   0.000%   0.152%
   61   10.1  1.5 -1.5   0.000%   0.000%
   62   11.1  1.5 -1.5   0.000%   0.000%
   63   12.1  1.5 -1.5   0.000%   0.000%
   64   13.1  1.5 -1.5   0.000%   0.000%
   65   14.1  1.5 -1.5   0.000%   0.000%
   66   15.1  1.5 -1.5   0.000%   0.000%
   67   16.1  1.5 -1.5   0.000%   0.000%
   68   17.1  1.5 -1.5   0.000%   0.000%
   69    1.1  0.5  0.5   0.000%   0.000%
   70    2.1  0.5  0.5   0.000%   0.000%
   71    3.1  0.5  0.5   0.000%   0.000%
   72    4.1  0.5  0.5   0.000%   0.000%
   73    5.1  0.5  0.5   0.000%   0.000%
   74    6.1  0.5  0.5   0.000%   0.000%
   75    7.1  0.5  0.5   0.000%   0.000%
   76    8.1  0.5  0.5   0.000%   0.000%
   77    9.1  0.5  0.5   0.000%   0.000%
   78   10.1  0.5  0.5   0.000%   0.000%
   79   11.1  0.5  0.5   4.015%   0.000%
   80   12.1  0.5  0.5   4.036%   0.000%
   81   13.1  0.5  0.5   9.209%   0.001%
   82   14.1  0.5  0.5   9.071%   0.001%
   83   15.1  0.5  0.5   0.001%  36.578%
   84   16.1  0.5  0.5   0.006%   2.529%
   85   17.1  0.5  0.5   0.000%  34.049%
   86    1.1  0.5 -0.5   0.000%   0.000%
   87    2.1  0.5 -0.5   0.000%   0.000%
   88    3.1  0.5 -0.5   0.000%   0.000%
   89    4.1  0.5 -0.5   0.000%   0.000%
   90    5.1  0.5 -0.5   0.000%   0.000%
   91    6.1  0.5 -0.5   0.000%   0.000%
   92    7.1  0.5 -0.5   0.000%   0.000%
   93    8.1  0.5 -0.5   0.000%   0.000%
   94    9.1  0.5 -0.5   0.000%   0.000%
   95   10.1  0.5 -0.5   0.000%   0.000%
   96   11.1  0.5 -0.5   0.000%   4.015%
   97   12.1  0.5 -0.5   0.000%   4.036%
   98   13.1  0.5 -0.5   0.001%   9.209%
   99   14.1  0.5 -0.5   0.001%   9.071%
  100   15.1  0.5 -0.5  36.578%   0.001%
  101   16.1  0.5 -0.5   2.529%   0.006%
  102   17.1  0.5 -0.5  34.049%   0.000%


 Property matrices transformed in SO basis (not sym. adapted)
 ============================================================

 No matrix element <i|DMX|i> larger than 5E-7
 No matrix element <i|DMX|1> larger than 5E-7

 No matrix element <i|DMY|i> larger than 5E-7
 No matrix element <i|DMY|1> larger than 5E-7

 No matrix element <i|DMZ|i> larger than 5E-7
 No matrix element <i|DMZ|1> larger than 5E-7


 **********************************************************************************************************************************
 DATASETS  * FILE   NREC   LENGTH (MB)   RECORD NAMES
              1      24       36.51       500      610      700      900      950      970     1000      129      960     1700   
                                          VAR    BASINP    GEOM    SYMINP    ZMAT    AOBASIS   BASIS     P2S    ABASIS    OPER   
                                         1101     1401     1411     1412     1650     1100     1400     1410     1200     1210   
                                          SR      EKINR    POTR     PVPR    MOLCAS      S      EKIN      POT      H0       H01  
                                         1080     1600     1380     1700(1)
                                         AOSYM     SMH     JKOP     OPER   

              2       7      842.20       700     1000      520     2100     2140     5101     5102   
                                         GEOM     BASIS   MCVARS     RHF     MCSCF    MRCI     MRCI   

 PROGRAMS   *        TOTAL        CI     LSINT        CI        CI     MULTI   RHF-SCF       INT
 CPU TIMES  *     24759.52  21128.31      6.37   2368.84   1247.92      5.81      0.90      1.12
 REAL TIME  *     25759.95 SEC
 DISK USED  *       878.77 MB (local),        8.91 GB (total)
 SF USED    *         4.19 GB
 GA USED    *         0.00 MB       (max)       0.00 MB       (current)
 **********************************************************************************************************************************

 CI/cc-pWCVTZ-DK energy=  -1392.459242697814

              CI              CI           MULTI         RHF-SCF
  -1392.41642302  -1392.45109666  -1391.78998847  -1391.79882347
 **********************************************************************************************************************************
 Molpro calculation terminated
