
 Working directory              : /wrk/irikura/molpro.BnHcv57w7i/
 Global scratch directory       : /wrk/irikura/molpro.BnHcv57w7i/
 Wavefunction directory         : /home/irikura/wfu/
 Main file repository           : /wrk/irikura/molpro.BnHcv57w7i/

 id        : nistki

 Nodes            nprocs
 pn125343.nist.gov   10
 GA implementation: MPI file
 GA implementation (serial work in mppx): MPI file

 Using customized tuning parameters: mindgm=1; mindgv=20; mindgc=4; mindgr=1; noblas=0; minvec=7
 default implementation of scratch files=sf  


 Variables initialized (1025), CPU time= 0.01 sec
 ***,Co atom
                                                                                 ! 4F + 4F + 4P + 4P  + 2F + 2G + 2D + 2P
 memory,2000,M;
 
 gprint,orbitals,civector
 
 symmetry,xyz
 geometry={Co}
 
 basis=cc-pwCVTZ-DK
 
 set,dkho=101
 
 {rhf,so-sci;wf,nelec=27,sym=1, spin=3}
 
                                                                                 ! weights to avoid skipping terms
 {multi
     closed,2,3
     wf,nelec=27,sym=1,spin=3; state,20;
       weight,1,1,1,1,1,1,1, 5,5,5, 5,5,5,5,5,5,5, 1,1,1
     wf,nelec=27,sym=1,spin=1; state,24;
     expec2,lxx,lyy,lzz;
  }
 table, energy, ll
 title, Energies and LL values
 
 {ci;wf,sym=1,spin=3; state,20;save,5101.2}
 hlsdiag = energd4
 {ci;option,nstati=27;wf,sym=1,spin=1;state,24;save,5102.2}
 hlsdiag(21) = energd4
 
 table, hlsdiag
 
                                                                                 !compute and diagonalize SO matrix
 lsint
 {ci;hlsmat,ls,5101.2,5102.2;print,vls=0,hls=0}
 
 Commands initialized (840), CPU time= 0.01 sec, 684 directives.
 Default parameters read. Elapsed time= 0.09 sec

 Checking input...
 Passed
1


                                         ***  PROGRAM SYSTEM MOLPRO  ***
                                       Copyright, TTI GmbH Stuttgart, 2015
                                    Version 2022.3 linked Wed Nov 30 06:40:34 2022


 **********************************************************************************************************************************
 LABEL *   Co ato                                                                        
  64 bit mpp version                                                                     DATE: 05-Feb-24          TIME: 17:09:04  
 **********************************************************************************************************************************

 SHA1:             e31ec9a5ea85254ab76f59d122cbdd51c71cf98b
 **********************************************************************************************************************************

 Memory per process:      2000 MW
 Total memory per node:  20000 MW

 GA preallocation disabled
 GA check disabled

 Variable memory set to 2000.0 MW


 ZSYMEL=XYZ

 SETTING BASIS          =    CC-PWCVTZ-DK
 SETTING DKHO           =       101.00000000                                  


 Recomputing integrals since basis changed


 Using spherical harmonics

 Library entry CO     S cc-pwCVTZ-DK         selected for orbital group  1
 Library entry CO     P cc-pwCVTZ-DK         selected for orbital group  1
 Library entry CO     D cc-pwCVTZ-DK         selected for orbital group  1
 Library entry CO     F cc-pwCVTZ-DK         selected for orbital group  1
 Library entry CO     G cc-pwCVTZ-DK         selected for orbital group  1


 PROGRAM * SEWARD (Integral evaluation for generally contracted gaussian basis sets)     Author: Roland Lindh, 1990

 Geometry written to block  1 of record 700

 Orientation using atomic masses  
 Molecule type: Atom
 User-specified symmetry elements: XYZ
 Symmetry elements: XYZ
 Rotational constants:       0.0000000      0.0000000      0.0000000 GHz  (calculated with average atomic masses)

 Point group  Ci  



 ATOMIC COORDINATES

 NR  ATOM    CHARGE       X              Y              Z

   1  CO     27.00    0.000000000    0.000000000    0.000000000

 NUCLEAR CHARGE:                   27
 NUMBER OF PRIMITIVE AOS:         196
 NUMBER OF SYMMETRY AOS:          165
 NUMBER OF CONTRACTIONS:          102   (   57Ag  +   45Au  )
 NUMBER OF INNER CORE ORBITALS:     5   (    2Ag  +    3Au  )
 NUMBER OF OUTER CORE ORBITALS:     4   (    1Ag  +    3Au  )
 NUMBER OF VALENCE ORBITALS:        6   (    6Ag  +    0Au  )


 NUCLEAR REPULSION ENERGY    0.00000000

 One-electron integrals computed with SEWARD

 eXact-2-Component (X2C) method activated

 Computing Douglas-Kroll / X2C integrals

 AO integral compression algorithm  1   Integral accuracy      1.0D-11

     15.991 MB (compressed) written to integral file ( 16.0%)

     Node minimum: 0.786 MB, node maximum: 2.621 MB


 NUMBER OF SORTED TWO-ELECTRON INTEGRALS:     701287.     BUFFER LENGTH:  32768
 NUMBER OF SEGMENTS:   1  SEGMENT LENGTH:     701287      RECORD LENGTH: 524288

 Memory used in sort:       1.26 MW

 SORT1 READ    12883698. AND WROTE      138706. INTEGRALS IN      1 RECORDS. CPU TIME:     0.07 SEC, REAL TIME:     0.07 SEC
 SORT2 READ     1353984. AND WROTE     7035726. INTEGRALS IN     30 RECORDS. CPU TIME:     0.01 SEC, REAL TIME:     0.03 SEC

 Node minimum:      700215.  Node maximum:      707056. integrals

 OPERATOR DM      FOR CENTER  0  COORDINATES:    0.000000    0.000000    0.000000

 EXTRA SYMMETRY OF AOS IN SYMMETRY 1:   1 1 1 1 1 1 1 1 1 2   3 4 5 6 2 3 4 5 6 2   3 4 5 6 2 3 4 5 6 2   3 4 5 6 2 3 4 5 6 7
                                        8 9101112131415 7 8   9101112131415
 EXTRA SYMMETRY OF AOS IN SYMMETRY 2:   1 2 3 1 2 3 1 2 3 1   2 3 1 2 3 1 2 3 1 2   3 1 2 3 4 5 6 7 8 9  10 4 5 6 7 8 910 4 5
                                        6 7 8 910

 Eigenvalues of metric

         1 0.366E-03 0.267E-02 0.154E-01 0.154E-01 0.154E-01 0.154E-01 0.154E-01 0.248E-01
         2 0.242E-03 0.242E-03 0.242E-03 0.177E-02 0.177E-02 0.177E-02 0.125E+00 0.125E+00


 **********************************************************************************************************************************
 DATASETS  * FILE   NREC   LENGTH (MB)   RECORD NAMES
              1      22       29.06       500      610      700      900      950      970     1000      129      960     1700   
                                          VAR    BASINP    GEOM    SYMINP    ZMAT    AOBASIS   BASIS     P2S    ABASIS    OPER   
                                         1101     1401     1411     1412     1650     1100     1400     1410     1200     1210   
                                          SR      EKINR    POTR     PVPR    MOLCAS      S      EKIN      POT      H0       H01  
                                         1080     1600   
                                         AOSYM     SMH  

 PROGRAMS   *        TOTAL       INT
 CPU TIMES  *         1.02      0.85
 REAL TIME  *         1.86 SEC
 DISK USED  *        29.34 MB (local),      341.78 MB (total)
 GA USED    *         0.00 MB       (max)       0.00 MB       (current)
 **********************************************************************************************************************************


 Program * Restricted Hartree-Fock

 Orbital guess generated from atomic densities. Full valence occupancy:    9   6

 Initial alpha occupancy:   9   6
 Initial beta  occupancy:   6   6
 
 SO-SCI SOLVER WITH NELEC=27 SYM=1 MS2=3 THRE=1.0D-08 THRG=3.2D-06
 
 Authors: D.A. Kreplin, H.-J. Werner (2022)
 
 Number of closed-shell orbitals:                12   (    6    6)
 Number of singly occupied active orbitals:       3   (    3    0)
 Number of virtual orbitals:                     87   (   48   39)
 
 ITER.  MIC  NCI          ENERGY    ENERGY CHANGE          GRAD      ORB GRAD        CI RES  NQN        STEP      TIME
    1    1    0   -1391.62971448   -1391.62971448    1.20096400    1.20096400    0.00000000    0    0.41E+00      0.04
    2    1    0   -1391.61089081       0.01882367    1.38018048    1.38018048    0.00000000    0    0.26E+00      0.08
    3    1    0   -1391.66739249      -0.05650168    1.21614479    1.21614479    0.00000000    0    0.28E+00      0.11
    4    1    0   -1391.66079177       0.00660072    1.15388217    1.15388217    0.00000000    0    0.21E+00      0.15
    5    1    0   -1391.70115929      -0.04036752    0.95648828    0.95648828    0.00000000    1    0.87E-01      0.18
    6    2    0   -1391.75353825      -0.05237896    0.16108673    0.16108673    0.00000000    2    0.32E+00      0.22
    7    2    0   -1391.76517083      -0.01163258    0.11128445    0.11128445    0.00000000    2    0.36E+00      0.27
    8    2    0   -1391.78894433      -0.02377350    0.19677018    0.19677018    0.00000000    2    0.36E+00      0.33
    9    2    0   -1391.82872668      -0.03978235    0.27508419    0.27508419    0.00000000    3    0.50E+00      0.37
   10    1    0   -1391.82352306       0.00520362    0.29931815    0.29931815    0.00000000    0    0.16E+00      0.40
   11    2    0   -1391.86422284      -0.04069978    0.15337369    0.15337369    0.00000000    1    0.14E+00      0.44
   12    2    0   -1391.87442286      -0.01020001    0.07470751    0.07470751    0.00000000    2    0.20E+00      0.48
   13    2    0   -1391.87832980      -0.00390694    0.06841859    0.06841859    0.00000000    3    0.72E-01      0.52
   14    2    0   -1391.87891972      -0.00058992    0.01902420    0.01902420    0.00000000    4    0.79E-02      0.56
   15    2    0   -1391.87897056      -0.00005084    0.00411012    0.00411012    0.00000000    5    0.26E-02      0.60
   16    2    0   -1391.87897304      -0.00000248    0.00058941    0.00058941    0.00000000    6    0.38E-03      0.65
   17    2    0   -1391.87897316      -0.00000012    0.00010753    0.00010753    0.00000000    7    0.67E-04      0.69
   18    2    0   -1391.87897316      -0.00000000    0.00001875    0.00001875    0.00000000    8    0.15E-04      0.73
   19    2    0   -1391.87897316      -0.00000000    0.00000443    0.00000443    0.00000000    9    0.34E-05      0.77

 CONVERGENCE REACHED!  Final gradient:     0.00000091 ( 0.91E-06)
                       Final energy:   -1391.87897316
 

 Final alpha occupancy:   9   6
 Final beta  occupancy:   6   6

 !RHF STATE 1.1 Energy              -1391.878973161691
  RHF One-electron energy           -1927.325490373157
  RHF Two-electron energy             535.446517211465
  RHF Kinetic energy                 1454.770716989721
  RHF Nuclear energy                    0.000000000000
  RHF Virial quotient                  -0.956768621272

 !RHF STATE 1.1 Dipole moment           0.00000000     0.00000000     0.00000000
 Dipole moment /Debye                   0.00000000     0.00000000     0.00000000

 ELECTRON ORBITALS
 =================

  Orbital  Occupation    Energy    Cen Mu Typ  Coefficients
    1.1     2.00000  -285.76981     1  1  s    0.97814
    2.1     2.00000   -35.46442     1  2  s    0.99654
    3.1     2.00000    -4.62008     1  3  s    0.98440
    4.1     2.00000    -0.61914     1  1  d2- -0.57822    1  1  d1+  0.77113    1  1  d1- -0.26881
    5.1     2.00000    -0.61914     1  1  d1+  0.27014    1  1  d2+ -0.57241    1  1  d1-  0.77504
    6.1     2.00000    -0.27156     1  4  s    1.01964
    7.1     1.00000    -0.71737     1  1  d0  -0.99685
    8.1     1.00000    -0.71737     1  1  d2-  0.81055    1  1  d1+  0.55531
    9.1     1.00000    -0.71737     1  1  d2+  0.81454    1  1  d1-  0.54988
    1.2     2.00000   -30.23332     1  1  py   0.46715    1  1  pz   0.86350
    2.2     2.00000   -30.23332     1  1  px   0.92113    1  1  py   0.38848
    3.2     2.00000   -30.23332     1  1  px  -0.33966    1  1  py   0.79393    1  1  pz  -0.50376
    4.2     2.00000    -3.02535     1  2  px   0.94382    1  2  py  -0.32018
    5.2     2.00000    -3.02535     1  2  px   0.32439    1  2  py   0.93632
    6.2     2.00000    -3.02535     1  2  pz   0.98948


 HOMO      9.1    -0.717375 =     -19.5208eV
 LUMO      7.2     0.043352 =       1.1797eV
 LUMO-HOMO         0.760727 =      20.7004eV

 Orbitals saved in record  2100.2


 **********************************************************************************************************************************
 DATASETS  * FILE   NREC   LENGTH (MB)   RECORD NAMES
              1      23       29.51       500      610      700      900      950      970     1000      129      960     1700   
                                          VAR    BASINP    GEOM    SYMINP    ZMAT    AOBASIS   BASIS     P2S    ABASIS    OPER   
                                         1101     1401     1411     1412     1650     1100     1400     1410     1200     1210   
                                          SR      EKINR    POTR     PVPR    MOLCAS      S      EKIN      POT      H0       H01  
                                         1080     1600     1380   
                                         AOSYM     SMH     JKOP   

              2       4        0.50       700     1000      520     2100   
                                         GEOM     BASIS   MCVARS     RHF  

 PROGRAMS   *        TOTAL   RHF-SCF       INT
 CPU TIMES  *         1.74      0.71      0.85
 REAL TIME  *         2.67 SEC
 DISK USED  *        30.06 MB (local),      348.98 MB (total)
 SF USED    *         1.97 MB
 GA USED    *         0.00 MB       (max)       0.00 MB       (current)
 **********************************************************************************************************************************

 PROGRAM * MULTI (Direct Multiconfiguration SCF)       Authors: P.J. Knowles, H.-J. Werner (1984)
                                                                D.A. Kreplin, P.J. Knowles, H.-J. Werner (2019)

 Number of closed-shell orbitals:   5 (    2    3)
 Number of active  orbitals:       10 (    7    3)
 Number of external orbitals:      87 (   48   39)

 State symmetry 1

 Number of active electrons:  17    Spin symmetry=Quartet   Space symmetry=1
 Number of states:            20
 Number of CSFs:              56   (56 determinants, 120 intermediate states)

 State symmetry 2

 Number of active electrons:  17    Spin symmetry=Doublet   Space symmetry=1
 Number of states:            24
 Number of CSFs:             175   (231 determinants, 450 intermediate states)

 Molecular orbitals read from record     2100.2  Type=RHF/CANONICAL (state 1.1)
 *** IN SYMMETRY 1 ORBITAL  2 SYMMETRY CONTAMINATION OF 0.248D-03 HAS BEEN REMOVED
 *** IN SYMMETRY 1 ORBITAL  3 SYMMETRY CONTAMINATION OF 0.160D-02 HAS BEEN REMOVED
 *** IN SYMMETRY 1 ORBITAL  4 SYMMETRY CONTAMINATION OF 0.543D+00 HAS BEEN REMOVED
 *** IN SYMMETRY 1 ORBITAL  5 SYMMETRY CONTAMINATION OF 0.540D+00 HAS BEEN REMOVED
 *** IN SYMMETRY 1 ORBITAL  6 SYMMETRY CONTAMINATION OF 0.331D-03 HAS BEEN REMOVED
 *** IN SYMMETRY 1 ORBITAL  7 SYMMETRY CONTAMINATION OF 0.476D-01 HAS BEEN REMOVED
 *** IN SYMMETRY 1 ORBITAL  8 SYMMETRY CONTAMINATION OF 0.492D+00 HAS BEEN REMOVED
 *** IN SYMMETRY 1 ORBITAL  9 SYMMETRY CONTAMINATION OF 0.490D+00 HAS BEEN REMOVED

 EXTRA SYMMETRY OF MOS IN SYMMETRY 1:   1 1 1 4 6 1 2 3 5 1   5 3 2 6 4 1 5 3 2 4   6 1 3 5 2 4 6 7 911  12 814131015 1 3 5 2
                                        6 4 71311 8121410 9  15 3 2 5 6 4 1
 *** IN SYMMETRY 2 ORBITAL  1 SYMMETRY CONTAMINATION OF 0.432D+00 HAS BEEN REMOVED
 *** IN SYMMETRY 2 ORBITAL  2 SYMMETRY CONTAMINATION OF 0.302D+00 HAS BEEN REMOVED
 *** IN SYMMETRY 2 ORBITAL  3 SYMMETRY CONTAMINATION OF 0.516D+00 HAS BEEN REMOVED
 *** IN SYMMETRY 2 ORBITAL  4 SYMMETRY CONTAMINATION OF 0.291D+00 HAS BEEN REMOVED
 *** IN SYMMETRY 2 ORBITAL  5 SYMMETRY CONTAMINATION OF 0.329D+00 HAS BEEN REMOVED
 *** IN SYMMETRY 2 ORBITAL  6 SYMMETRY CONTAMINATION OF 0.137D+00 HAS BEEN REMOVED
 EXTRA SYMMETRY OF MOS IN SYMMETRY 2:   3 1 2 1 2 3 3 1 2 1   2 3 2 1 3 6 4 5 7 8  10 9 1 2 3 6 4 5 710   8 9 1 2 3 6 4 5 710
                                        8 9 3 1 2

 Wavefunction dump at record             2140.2

 Convergence thresholds  0.10E-04 (gradient)  0.10E-05 (energy)

 Weight factors for state symmetry  1:    0.01190   0.01190   0.01190   0.01190   0.01190   0.01190   0.01190   0.05952
                                          0.05952   0.05952   0.05952   0.05952   0.05952   0.05952   0.05952   0.05952
                                          0.05952   0.01190   0.01190   0.01190
 Weight factors for state symmetry  2:    0.01190   0.01190   0.01190   0.01190   0.01190   0.01190   0.01190   0.01190
                                          0.01190   0.01190   0.01190   0.01190   0.01190   0.01190   0.01190   0.01190
                                          0.01190   0.01190   0.01190   0.01190   0.01190   0.01190   0.01190   0.01190
 
 Number of orbital rotations:  689  ( 23 closed/active, 213 closed/virtual, 0 active/active, 453 active/virtual )
 Total number of variables:    7353
 
 Second-order MCSCF: L-BFGS accelerated
 
 ITER  MIC  NCI  NEG     ENERGY(VAR)    ENERGY(PROJ) ENERGY CHANGE       GRAD(0)  GRAD(ORB)   GRAD(CI)      STEP      TIME
   1    6   10    0  -1391.73162981   -1391.77261929   -0.04098948    0.53391347 0.00001009 0.00000000  0.13E+00      0.57
   2    8   14    0  -1391.77405283   -1391.77415046   -0.00009762    0.02260103 0.00000672 0.00000000  0.72E-02      1.36
   3   22   44    0  -1391.77415063   -1391.77415063   -0.00000000    0.00005544 0.00000009 0.00000000  0.24E-04      3.15
   4   20   40    0  -1391.77415063   -1391.77415063    0.00000000    0.00000040 0.00000053 0.00000000  0.98E-07      4.72

 CONVERGENCE REACHED!  Final gradient:    0.00000029 ( 0.29E-06)
                       Final energy:  -1391.77415063
 
 Results for state 1.1 Quartet
 =============================
 !MCSCF STATE 1.1 Quartet Energy             -1391.839140480372
 Nuclear energy                                  0.00000000
 Kinetic energy                               1450.99789942
 One electron energy                         -1921.41911783
 Two electron energy                           529.57997735
 Virial ratio                                    1.95922891
 
 !MCSCF STATE 1.1 Quartet Dipole moment          0.00000000     0.00000000     0.00000000
 Dipole moment /Debye                            0.00000000     0.00000000     0.00000000
 
 Results for state 2.1 Quartet
 =============================
 !MCSCF STATE 2.1 Quartet Energy             -1391.839140479847
 Nuclear energy                                  0.00000000
 Kinetic energy                               1450.99789949
 One electron energy                         -1921.41911785
 Two electron energy                           529.57997737
 Virial ratio                                    1.95922891
 
 !MCSCF STATE 2.1 Quartet Dipole moment          0.00000000     0.00000000     0.00000000
 Dipole moment /Debye                            0.00000000     0.00000000     0.00000000
 
 Results for state 3.1 Quartet
 =============================
 !MCSCF STATE 3.1 Quartet Energy             -1391.839140475672
 Nuclear energy                                  0.00000000
 Kinetic energy                               1450.99789917
 One electron energy                         -1921.41911734
 Two electron energy                           529.57997686
 Virial ratio                                    1.95922891
 
 !MCSCF STATE 3.1 Quartet Dipole moment          0.00000000     0.00000000     0.00000000
 Dipole moment /Debye                            0.00000000     0.00000000     0.00000000
 
 Results for state 4.1 Quartet
 =============================
 !MCSCF STATE 4.1 Quartet Energy             -1391.839140473889
 Nuclear energy                                  0.00000000
 Kinetic energy                               1450.99789891
 One electron energy                         -1921.41911707
 Two electron energy                           529.57997660
 Virial ratio                                    1.95922892
 
 !MCSCF STATE 4.1 Quartet Dipole moment          0.00000000     0.00000000     0.00000000
 Dipole moment /Debye                            0.00000000     0.00000000     0.00000000
 
 Results for state 5.1 Quartet
 =============================
 !MCSCF STATE 5.1 Quartet Energy             -1391.839140473445
 Nuclear energy                                  0.00000000
 Kinetic energy                               1450.99789882
 One electron energy                         -1921.41911691
 Two electron energy                           529.57997644
 Virial ratio                                    1.95922892
 
 !MCSCF STATE 5.1 Quartet Dipole moment          0.00000000     0.00000000     0.00000000
 Dipole moment /Debye                            0.00000000     0.00000000     0.00000000
 
 Results for state 6.1 Quartet
 =============================
 !MCSCF STATE 6.1 Quartet Energy             -1391.839140470940
 Nuclear energy                                  0.00000000
 Kinetic energy                               1450.99789868
 One electron energy                         -1921.41911665
 Two electron energy                           529.57997618
 Virial ratio                                    1.95922892
 
 !MCSCF STATE 6.1 Quartet Dipole moment          0.00000000     0.00000000     0.00000000
 Dipole moment /Debye                            0.00000000     0.00000000     0.00000000
 
 Results for state 7.1 Quartet
 =============================
 !MCSCF STATE 7.1 Quartet Energy             -1391.839140467530
 Nuclear energy                                  0.00000000
 Kinetic energy                               1450.99789837
 One electron energy                         -1921.41911636
 Two electron energy                           529.57997589
 Virial ratio                                    1.95922892
 
 !MCSCF STATE 7.1 Quartet Dipole moment          0.00000000     0.00000000     0.00000000
 Dipole moment /Debye                            0.00000000     0.00000000     0.00000000
 
 Results for state 8.1 Quartet
 =============================
 !MCSCF STATE 8.1 Quartet Energy             -1391.781961586754
 Nuclear energy                                  0.00000000
 Kinetic energy                               1457.73963920
 One electron energy                         -1937.69599190
 Two electron energy                           545.91403031
 Virial ratio                                    1.95475346
 
 !MCSCF STATE 8.1 Quartet Dipole moment          0.00000000     0.00000000     0.00000000
 Dipole moment /Debye                            0.00000000     0.00000000     0.00000000
 
 Results for state 9.1 Quartet
 =============================
 !MCSCF STATE 9.1 Quartet Energy             -1391.781961585745
 Nuclear energy                                  0.00000000
 Kinetic energy                               1457.73963928
 One electron energy                         -1937.69599193
 Two electron energy                           545.91403034
 Virial ratio                                    1.95475346
 
 !MCSCF STATE 9.1 Quartet Dipole moment          0.00000000     0.00000000     0.00000000
 Dipole moment /Debye                            0.00000000     0.00000000     0.00000000
 
 Results for state 10.1 Quartet
 ==============================
 !MCSCF STATE 10.1 Quartet Energy            -1391.781961580569
 Nuclear energy                                  0.00000000
 Kinetic energy                               1457.73963955
 One electron energy                         -1937.69599240
 Two electron energy                           545.91403082
 Virial ratio                                    1.95475346
 
 !MCSCF STATE 10.1 Quartet Dipole moment         0.00000000     0.00000000     0.00000000
 Dipole moment /Debye                            0.00000000     0.00000000     0.00000000
 
 Results for state 11.1 Quartet
 ==============================
 !MCSCF STATE 11.1 Quartet Energy            -1391.781961575797
 Nuclear energy                                  0.00000000
 Kinetic energy                               1457.73963977
 One electron energy                         -1937.69599267
 Two electron energy                           545.91403110
 Virial ratio                                    1.95475346
 
 !MCSCF STATE 11.1 Quartet Dipole moment         0.00000000     0.00000000     0.00000000
 Dipole moment /Debye                            0.00000000     0.00000000     0.00000000
 
 Results for state 12.1 Quartet
 ==============================
 !MCSCF STATE 12.1 Quartet Energy            -1391.781961570452
 Nuclear energy                                  0.00000000
 Kinetic energy                               1457.73963982
 One electron energy                         -1937.69599284
 Two electron energy                           545.91403127
 Virial ratio                                    1.95475346
 
 !MCSCF STATE 12.1 Quartet Dipole moment         0.00000000     0.00000000     0.00000000
 Dipole moment /Debye                            0.00000000     0.00000000     0.00000000
 
 Results for state 13.1 Quartet
 ==============================
 !MCSCF STATE 13.1 Quartet Energy            -1391.781961567844
 Nuclear energy                                  0.00000000
 Kinetic energy                               1457.73964031
 One electron energy                         -1937.69599338
 Two electron energy                           545.91403182
 Virial ratio                                    1.95475346
 
 !MCSCF STATE 13.1 Quartet Dipole moment         0.00000000     0.00000000     0.00000000
 Dipole moment /Debye                            0.00000000     0.00000000     0.00000000
 
 Results for state 14.1 Quartet
 ==============================
 !MCSCF STATE 14.1 Quartet Energy            -1391.781961567792
 Nuclear energy                                  0.00000000
 Kinetic energy                               1457.73963999
 One electron energy                         -1937.69599309
 Two electron energy                           545.91403153
 Virial ratio                                    1.95475346
 
 !MCSCF STATE 14.1 Quartet Dipole moment         0.00000000     0.00000000     0.00000000
 Dipole moment /Debye                            0.00000000     0.00000000     0.00000000
 
 Results for state 15.1 Quartet
 ==============================
 !MCSCF STATE 15.1 Quartet Energy            -1391.767253652831
 Nuclear energy                                  0.00000000
 Kinetic energy                               1450.99050356
 One electron energy                         -1921.40265994
 Two electron energy                           529.63540628
 Virial ratio                                    1.95918426
 
 !MCSCF STATE 15.1 Quartet Dipole moment         0.00000000     0.00000000     0.00000000
 Dipole moment /Debye                            0.00000000     0.00000000     0.00000000
 
 Results for state 16.1 Quartet
 ==============================
 !MCSCF STATE 16.1 Quartet Energy            -1391.767253651831
 Nuclear energy                                  0.00000000
 Kinetic energy                               1450.99050340
 One electron energy                         -1921.40265960
 Two electron energy                           529.63540595
 Virial ratio                                    1.95918426
 
 !MCSCF STATE 16.1 Quartet Dipole moment         0.00000000     0.00000000     0.00000000
 Dipole moment /Debye                            0.00000000     0.00000000     0.00000000
 
 Results for state 17.1 Quartet
 ==============================
 !MCSCF STATE 17.1 Quartet Energy            -1391.767253646119
 Nuclear energy                                  0.00000000
 Kinetic energy                               1450.99050234
 One electron energy                         -1921.40265799
 Two electron energy                           529.63540434
 Virial ratio                                    1.95918426
 
 !MCSCF STATE 17.1 Quartet Dipole moment         0.00000000     0.00000000     0.00000000
 Dipole moment /Debye                            0.00000000     0.00000000     0.00000000
 
 Results for state 18.1 Quartet
 ==============================
 !MCSCF STATE 18.1 Quartet Energy            -1391.710610332254
 Nuclear energy                                  0.00000000
 Kinetic energy                               1457.73108751
 One electron energy                         -1937.67695167
 Two electron energy                           545.96634134
 Virial ratio                                    1.95471011
 
 !MCSCF STATE 18.1 Quartet Dipole moment         0.00000000     0.00000000     0.00000000
 Dipole moment /Debye                            0.00000000     0.00000000     0.00000000
 
 Results for state 19.1 Quartet
 ==============================
 !MCSCF STATE 19.1 Quartet Energy            -1391.710610326186
 Nuclear energy                                  0.00000000
 Kinetic energy                               1457.73108767
 One electron energy                         -1937.67695201
 Two electron energy                           545.96634168
 Virial ratio                                    1.95471011
 
 !MCSCF STATE 19.1 Quartet Dipole moment         0.00000000     0.00000000     0.00000000
 Dipole moment /Debye                            0.00000000     0.00000000     0.00000000
 
 Results for state 20.1 Quartet
 ==============================
 !MCSCF STATE 20.1 Quartet Energy            -1391.710610300353
 Nuclear energy                                  0.00000000
 Kinetic energy                               1457.73108872
 One electron energy                         -1937.67695361
 Two electron energy                           545.96634331
 Virial ratio                                    1.95471011
 
 !MCSCF STATE 20.1 Quartet Dipole moment         0.00000000     0.00000000     0.00000000
 Dipole moment /Debye                            0.00000000     0.00000000     0.00000000
 
 Results for state 1.1 Doublet
 =============================
 !MCSCF STATE 1.1 Doublet Energy             -1391.762555271626
 Nuclear energy                                  0.00000000
 Kinetic energy                               1451.01077193
 One electron energy                         -1921.44410594
 Two electron energy                           529.68155067
 Virial ratio                                    1.95916762
 
 !MCSCF STATE 1.1 Doublet Dipole moment          0.00000000     0.00000000     0.00000000
 Dipole moment /Debye                            0.00000000     0.00000000     0.00000000
 
 Results for state 2.1 Doublet
 =============================
 !MCSCF STATE 2.1 Doublet Energy             -1391.762555271566
 Nuclear energy                                  0.00000000
 Kinetic energy                               1451.01077192
 One electron energy                         -1921.44410595
 Two electron energy                           529.68155068
 Virial ratio                                    1.95916762
 
 !MCSCF STATE 2.1 Doublet Dipole moment          0.00000000     0.00000000     0.00000000
 Dipole moment /Debye                            0.00000000     0.00000000     0.00000000
 
 Results for state 3.1 Doublet
 =============================
 !MCSCF STATE 3.1 Doublet Energy             -1391.762555271189
 Nuclear energy                                  0.00000000
 Kinetic energy                               1451.01077191
 One electron energy                         -1921.44410591
 Two electron energy                           529.68155064
 Virial ratio                                    1.95916762
 
 !MCSCF STATE 3.1 Doublet Dipole moment          0.00000000     0.00000000     0.00000000
 Dipole moment /Debye                            0.00000000     0.00000000     0.00000000
 
 Results for state 4.1 Doublet
 =============================
 !MCSCF STATE 4.1 Doublet Energy             -1391.762555270765
 Nuclear energy                                  0.00000000
 Kinetic energy                               1451.01077193
 One electron energy                         -1921.44410598
 Two electron energy                           529.68155071
 Virial ratio                                    1.95916762
 
 !MCSCF STATE 4.1 Doublet Dipole moment          0.00000000     0.00000000     0.00000000
 Dipole moment /Debye                            0.00000000     0.00000000     0.00000000
 
 Results for state 5.1 Doublet
 =============================
 !MCSCF STATE 5.1 Doublet Energy             -1391.762555269537
 Nuclear energy                                  0.00000000
 Kinetic energy                               1451.01077185
 One electron energy                         -1921.44410582
 Two electron energy                           529.68155055
 Virial ratio                                    1.95916762
 
 !MCSCF STATE 5.1 Doublet Dipole moment          0.00000000     0.00000000     0.00000000
 Dipole moment /Debye                            0.00000000     0.00000000     0.00000000
 
 Results for state 6.1 Doublet
 =============================
 !MCSCF STATE 6.1 Doublet Energy             -1391.762555267508
 Nuclear energy                                  0.00000000
 Kinetic energy                               1451.01077172
 One electron energy                         -1921.44410564
 Two electron energy                           529.68155038
 Virial ratio                                    1.95916762
 
 !MCSCF STATE 6.1 Doublet Dipole moment          0.00000000     0.00000000     0.00000000
 Dipole moment /Debye                            0.00000000     0.00000000     0.00000000
 
 Results for state 7.1 Doublet
 =============================
 !MCSCF STATE 7.1 Doublet Energy             -1391.762555267492
 Nuclear energy                                  0.00000000
 Kinetic energy                               1451.01077163
 One electron energy                         -1921.44410553
 Two electron energy                           529.68155027
 Virial ratio                                    1.95916762
 
 !MCSCF STATE 7.1 Doublet Dipole moment          0.00000000     0.00000000     0.00000000
 Dipole moment /Debye                            0.00000000     0.00000000     0.00000000
 
 Results for state 8.1 Doublet
 =============================
 !MCSCF STATE 8.1 Doublet Energy             -1391.762555266042
 Nuclear energy                                  0.00000000
 Kinetic energy                               1451.01077162
 One electron energy                         -1921.44410550
 Two electron energy                           529.68155023
 Virial ratio                                    1.95916762
 
 !MCSCF STATE 8.1 Doublet Dipole moment          0.00000000     0.00000000     0.00000000
 Dipole moment /Debye                            0.00000000     0.00000000     0.00000000
 
 Results for state 9.1 Doublet
 =============================
 !MCSCF STATE 9.1 Doublet Energy             -1391.762555265894
 Nuclear energy                                  0.00000000
 Kinetic energy                               1451.01077159
 One electron energy                         -1921.44410547
 Two electron energy                           529.68155020
 Virial ratio                                    1.95916762
 
 !MCSCF STATE 9.1 Doublet Dipole moment          0.00000000     0.00000000     0.00000000
 Dipole moment /Debye                            0.00000000     0.00000000     0.00000000
 
 Results for state 10.1 Doublet
 ==============================
 !MCSCF STATE 10.1 Doublet Energy            -1391.758265295389
 Nuclear energy                                  0.00000000
 Kinetic energy                               1457.73198492
 One electron energy                         -1937.66191711
 Two electron energy                           545.90365182
 Virial ratio                                    1.95474222
 
 !MCSCF STATE 10.1 Doublet Dipole moment         0.00000000     0.00000000     0.00000000
 Dipole moment /Debye                            0.00000000     0.00000000     0.00000000
 
 Results for state 11.1 Doublet
 ==============================
 !MCSCF STATE 11.1 Doublet Energy            -1391.758265294627
 Nuclear energy                                  0.00000000
 Kinetic energy                               1457.73198499
 One electron energy                         -1937.66191713
 Two electron energy                           545.90365183
 Virial ratio                                    1.95474222
 
 !MCSCF STATE 11.1 Doublet Dipole moment         0.00000000     0.00000000     0.00000000
 Dipole moment /Debye                            0.00000000     0.00000000     0.00000000
 
 Results for state 12.1 Doublet
 ==============================
 !MCSCF STATE 12.1 Doublet Energy            -1391.758265288339
 Nuclear energy                                  0.00000000
 Kinetic energy                               1457.73198527
 One electron energy                         -1937.66191761
 Two electron energy                           545.90365232
 Virial ratio                                    1.95474222
 
 !MCSCF STATE 12.1 Doublet Dipole moment         0.00000000     0.00000000     0.00000000
 Dipole moment /Debye                            0.00000000     0.00000000     0.00000000
 
 Results for state 13.1 Doublet
 ==============================
 !MCSCF STATE 13.1 Doublet Energy            -1391.758265283276
 Nuclear energy                                  0.00000000
 Kinetic energy                               1457.73198549
 One electron energy                         -1937.66191787
 Two electron energy                           545.90365259
 Virial ratio                                    1.95474222
 
 !MCSCF STATE 13.1 Doublet Dipole moment         0.00000000     0.00000000     0.00000000
 Dipole moment /Debye                            0.00000000     0.00000000     0.00000000
 
 Results for state 14.1 Doublet
 ==============================
 !MCSCF STATE 14.1 Doublet Energy            -1391.758265277442
 Nuclear energy                                  0.00000000
 Kinetic energy                               1457.73198553
 One electron energy                         -1937.66191802
 Two electron energy                           545.90365274
 Virial ratio                                    1.95474222
 
 !MCSCF STATE 14.1 Doublet Dipole moment         0.00000000     0.00000000     0.00000000
 Dipole moment /Debye                            0.00000000     0.00000000     0.00000000
 
 Results for state 15.1 Doublet
 ==============================
 !MCSCF STATE 15.1 Doublet Energy            -1391.758265274287
 Nuclear energy                                  0.00000000
 Kinetic energy                               1457.73198570
 One electron energy                         -1937.66191828
 Two electron energy                           545.90365301
 Virial ratio                                    1.95474222
 
 !MCSCF STATE 15.1 Doublet Dipole moment         0.00000000     0.00000000     0.00000000
 Dipole moment /Debye                            0.00000000     0.00000000     0.00000000
 
 Results for state 16.1 Doublet
 ==============================
 !MCSCF STATE 16.1 Doublet Energy            -1391.758265274258
 Nuclear energy                                  0.00000000
 Kinetic energy                               1457.73198602
 One electron energy                         -1937.66191858
 Two electron energy                           545.90365330
 Virial ratio                                    1.95474222
 
 !MCSCF STATE 16.1 Doublet Dipole moment         0.00000000     0.00000000     0.00000000
 Dipole moment /Debye                            0.00000000     0.00000000     0.00000000
 
 Results for state 17.1 Doublet
 ==============================
 !MCSCF STATE 17.1 Doublet Energy            -1391.754559138105
 Nuclear energy                                  0.00000000
 Kinetic energy                               1451.12763398
 One electron energy                         -1921.68253115
 Two electron energy                           529.92797202
 Virial ratio                                    1.95908487
 
 !MCSCF STATE 17.1 Doublet Dipole moment         0.00000000     0.00000000     0.00000000
 Dipole moment /Debye                            0.00000000     0.00000000     0.00000000
 
 Results for state 18.1 Doublet
 ==============================
 !MCSCF STATE 18.1 Doublet Energy            -1391.754559136893
 Nuclear energy                                  0.00000000
 Kinetic energy                               1451.12763381
 One electron energy                         -1921.68253101
 Two electron energy                           529.92797187
 Virial ratio                                    1.95908487
 
 !MCSCF STATE 18.1 Doublet Dipole moment         0.00000000     0.00000000     0.00000000
 Dipole moment /Debye                            0.00000000     0.00000000     0.00000000
 
 Results for state 19.1 Doublet
 ==============================
 !MCSCF STATE 19.1 Doublet Energy            -1391.754559136744
 Nuclear energy                                  0.00000000
 Kinetic energy                               1451.12763380
 One electron energy                         -1921.68253100
 Two electron energy                           529.92797186
 Virial ratio                                    1.95908487
 
 !MCSCF STATE 19.1 Doublet Dipole moment         0.00000000     0.00000000     0.00000000
 Dipole moment /Debye                            0.00000000     0.00000000     0.00000000
 
 Results for state 20.1 Doublet
 ==============================
 !MCSCF STATE 20.1 Doublet Energy            -1391.742169411234
 Nuclear energy                                  0.00000000
 Kinetic energy                               1451.31574941
 One electron energy                         -1922.14031774
 Two electron energy                           530.39814833
 Virial ratio                                    1.95895202
 
 !MCSCF STATE 20.1 Doublet Dipole moment         0.00000000     0.00000000     0.00000000
 Dipole moment /Debye                            0.00000000     0.00000000     0.00000000
 
 Results for state 21.1 Doublet
 ==============================
 !MCSCF STATE 21.1 Doublet Energy            -1391.742169408533
 Nuclear energy                                  0.00000000
 Kinetic energy                               1451.31574938
 One electron energy                         -1922.14031792
 Two electron energy                           530.39814851
 Virial ratio                                    1.95895202
 
 !MCSCF STATE 21.1 Doublet Dipole moment         0.00000000     0.00000000     0.00000000
 Dipole moment /Debye                            0.00000000     0.00000000     0.00000000
 
 Results for state 22.1 Doublet
 ==============================
 !MCSCF STATE 22.1 Doublet Energy            -1391.742169407720
 Nuclear energy                                  0.00000000
 Kinetic energy                               1451.31574945
 One electron energy                         -1922.14031808
 Two electron energy                           530.39814867
 Virial ratio                                    1.95895202
 
 !MCSCF STATE 22.1 Doublet Dipole moment         0.00000000     0.00000000     0.00000000
 Dipole moment /Debye                            0.00000000     0.00000000     0.00000000
 
 Results for state 23.1 Doublet
 ==============================
 !MCSCF STATE 23.1 Doublet Energy            -1391.742169403407
 Nuclear energy                                  0.00000000
 Kinetic energy                               1451.31574955
 One electron energy                         -1922.14031854
 Two electron energy                           530.39814914
 Virial ratio                                    1.95895202
 
 !MCSCF STATE 23.1 Doublet Dipole moment         0.00000000     0.00000000     0.00000000
 Dipole moment /Debye                            0.00000000     0.00000000     0.00000000
 
 Results for state 24.1 Doublet
 ==============================
 !MCSCF STATE 24.1 Doublet Energy            -1391.742169402115
 Nuclear energy                                  0.00000000
 Kinetic energy                               1451.31574951
 One electron energy                         -1922.14031861
 Two electron energy                           530.39814920
 Virial ratio                                    1.95895202
 
 !MCSCF STATE 24.1 Doublet Dipole moment         0.00000000     0.00000000     0.00000000
 Dipole moment /Debye                            0.00000000     0.00000000     0.00000000
 
 State-averaged charge density matrix saved on record 2140.2 (density set 1)
 
 No non-zero expectation values
 
 Expectation values for two-electron operators:
 
 !MCSCF expec      <1.1 Quartet|LXLX|1.1 Quartet>     4.734059878561
 !MCSCF expec      <2.1 Quartet|LXLX|2.1 Quartet>     6.098467162964
 !MCSCF expec      <3.1 Quartet|LXLX|3.1 Quartet>     3.531850375424
 !MCSCF expec      <4.1 Quartet|LXLX|4.1 Quartet>     3.999999999262
 !MCSCF expec      <5.1 Quartet|LXLX|5.1 Quartet>     0.468134302481
 !MCSCF expec      <6.1 Quartet|LXLX|6.1 Quartet>     5.265956016513
 !MCSCF expec      <7.1 Quartet|LXLX|7.1 Quartet>     3.901547688244
 !MCSCF expec      <8.1 Quartet|LXLX|8.1 Quartet>     5.819367067790
 !MCSCF expec      <9.1 Quartet|LXLX|9.1 Quartet>     6.083173270592
 !MCSCF expec    <10.1 Quartet|LXLX|10.1 Quartet>     2.407475163018
 !MCSCF expec    <11.1 Quartet|LXLX|11.1 Quartet>     4.000000001284
 !MCSCF expec    <12.1 Quartet|LXLX|12.1 Quartet>     1.592560987779
 !MCSCF expec    <13.1 Quartet|LXLX|13.1 Quartet>     4.180637807650
 !MCSCF expec    <14.1 Quartet|LXLX|14.1 Quartet>     3.916814236208
 !MCSCF expec    <15.1 Quartet|LXLX|15.1 Quartet>     0.999999946431
 !MCSCF expec    <16.1 Quartet|LXLX|16.1 Quartet>     0.000000052314
 !MCSCF expec    <17.1 Quartet|LXLX|17.1 Quartet>     0.999999999336
 !MCSCF expec    <18.1 Quartet|LXLX|18.1 Quartet>     0.999999999070
 !MCSCF expec    <19.1 Quartet|LXLX|19.1 Quartet>     0.000000000836
 !MCSCF expec    <20.1 Quartet|LXLX|20.1 Quartet>     0.999999999951
 !MCSCF expec      <1.1 Doublet|LXLX|1.1 Doublet>     8.717015986928
 !MCSCF expec      <2.1 Doublet|LXLX|2.1 Doublet>     8.587748380846
 !MCSCF expec      <3.1 Doublet|LXLX|3.1 Doublet>     4.158583413947
 !MCSCF expec      <4.1 Doublet|LXLX|4.1 Doublet>     4.621715804733
 !MCSCF expec      <5.1 Doublet|LXLX|5.1 Doublet>     0.537603776375
 !MCSCF expec      <6.1 Doublet|LXLX|6.1 Doublet>     5.378480328788
 !MCSCF expec      <7.1 Doublet|LXLX|7.1 Doublet>     5.841077800922
 !MCSCF expec      <8.1 Doublet|LXLX|8.1 Doublet>    11.282967819455
 !MCSCF expec      <9.1 Doublet|LXLX|9.1 Doublet>    10.874561087932
 !MCSCF expec    <10.1 Doublet|LXLX|10.1 Doublet>     5.841590401247
 !MCSCF expec    <11.1 Doublet|LXLX|11.1 Doublet>     6.004135291072
 !MCSCF expec    <12.1 Doublet|LXLX|12.1 Doublet>     2.353456662714
 !MCSCF expec    <13.1 Doublet|LXLX|13.1 Doublet>     4.000000000335
 !MCSCF expec    <14.1 Doublet|LXLX|14.1 Doublet>     1.646502929626
 !MCSCF expec    <15.1 Doublet|LXLX|15.1 Doublet>     3.995841152667
 !MCSCF expec    <16.1 Doublet|LXLX|16.1 Doublet>     4.158423223721
 !MCSCF expec    <17.1 Doublet|LXLX|17.1 Doublet>     0.999999999422
 !MCSCF expec    <18.1 Doublet|LXLX|18.1 Doublet>     0.000043467227
 !MCSCF expec    <19.1 Doublet|LXLX|19.1 Doublet>     0.999957782665
 !MCSCF expec    <20.1 Doublet|LXLX|20.1 Doublet>     2.642683296289
 !MCSCF expec    <21.1 Doublet|LXLX|21.1 Doublet>     1.000000308654
 !MCSCF expec    <22.1 Doublet|LXLX|22.1 Doublet>     3.999999623599
 !MCSCF expec    <23.1 Doublet|LXLX|23.1 Doublet>     1.000000030437
 !MCSCF expec    <24.1 Doublet|LXLX|24.1 Doublet>     1.357310800477
 
 !MCSCF expec      <1.1 Quartet|LYLY|1.1 Quartet>     3.965449549637
 !MCSCF expec      <2.1 Quartet|LYLY|2.1 Quartet>     5.900882051621
 !MCSCF expec      <3.1 Quartet|LYLY|3.1 Quartet>     6.724130856938
 !MCSCF expec      <4.1 Quartet|LYLY|4.1 Quartet>     4.000000020036
 !MCSCF expec      <5.1 Quartet|LYLY|5.1 Quartet>     3.275912189477
 !MCSCF expec      <6.1 Quartet|LYLY|6.1 Quartet>     0.034549018330
 !MCSCF expec      <7.1 Quartet|LYLY|7.1 Quartet>     4.099102880303
 !MCSCF expec      <8.1 Quartet|LYLY|8.1 Quartet>     6.178482351183
 !MCSCF expec      <9.1 Quartet|LYLY|9.1 Quartet>     3.728742895651
 !MCSCF expec    <10.1 Quartet|LYLY|10.1 Quartet>     8.588012008321
 !MCSCF expec    <11.1 Quartet|LYLY|11.1 Quartet>     4.000000001093
 !MCSCF expec    <12.1 Quartet|LYLY|12.1 Quartet>     1.411955363339
 !MCSCF expec    <13.1 Quartet|LYLY|13.1 Quartet>     3.821508029683
 !MCSCF expec    <14.1 Quartet|LYLY|14.1 Quartet>     0.271265226380
 !MCSCF expec    <15.1 Quartet|LYLY|15.1 Quartet>     0.000000053749
 !MCSCF expec    <16.1 Quartet|LYLY|16.1 Quartet>     0.999999948049
 !MCSCF expec    <17.1 Quartet|LYLY|17.1 Quartet>     0.999999999674
 !MCSCF expec    <18.1 Quartet|LYLY|18.1 Quartet>     0.000000000931
 !MCSCF expec    <19.1 Quartet|LYLY|19.1 Quartet>     0.999999999197
 !MCSCF expec    <20.1 Quartet|LYLY|20.1 Quartet>     1.000000000000
 !MCSCF expec      <1.1 Doublet|LYLY|1.1 Doublet>     3.056935809307
 !MCSCF expec      <2.1 Doublet|LYLY|2.1 Doublet>     1.611268030032
 !MCSCF expec      <3.1 Doublet|LYLY|3.1 Doublet>     7.066766626407
 !MCSCF expec      <4.1 Doublet|LYLY|4.1 Doublet>     1.001874488126
 !MCSCF expec      <5.1 Doublet|LYLY|5.1 Doublet>    10.302778220389
 !MCSCF expec      <6.1 Doublet|LYLY|6.1 Doublet>     8.999753571068
 !MCSCF expec      <7.1 Doublet|LYLY|7.1 Doublet>    12.931253835279
 !MCSCF expec      <8.1 Doublet|LYLY|8.1 Doublet>     6.943074719605
 !MCSCF expec      <9.1 Doublet|LYLY|9.1 Doublet>     8.085728002755
 !MCSCF expec    <10.1 Doublet|LYLY|10.1 Doublet>     6.156753217331
 !MCSCF expec    <11.1 Doublet|LYLY|11.1 Doublet>     3.748965178903
 !MCSCF expec    <12.1 Doublet|LYLY|12.1 Doublet>     8.635292975289
 !MCSCF expec    <13.1 Doublet|LYLY|13.1 Doublet>     4.000000000488
 !MCSCF expec    <14.1 Doublet|LYLY|14.1 Doublet>     1.364741288052
 !MCSCF expec    <15.1 Doublet|LYLY|15.1 Doublet>     0.251137765510
 !MCSCF expec    <16.1 Doublet|LYLY|16.1 Doublet>     3.843205792887
 !MCSCF expec    <17.1 Doublet|LYLY|17.1 Doublet>     0.999999999543
 !MCSCF expec    <18.1 Doublet|LYLY|18.1 Doublet>     0.999956534793
 !MCSCF expec    <19.1 Doublet|LYLY|19.1 Doublet>     0.000042218159
 !MCSCF expec    <20.1 Doublet|LYLY|20.1 Doublet>     3.318846948891
 !MCSCF expec    <21.1 Doublet|LYLY|21.1 Doublet>     3.999999642520
 !MCSCF expec    <22.1 Doublet|LYLY|22.1 Doublet>     1.000000351397
 !MCSCF expec    <23.1 Doublet|LYLY|23.1 Doublet>     1.000000038956
 !MCSCF expec    <24.1 Doublet|LYLY|24.1 Doublet>     0.681157737237
 
 !MCSCF expec      <1.1 Quartet|LZLZ|1.1 Quartet>     3.300490571802
 !MCSCF expec      <2.1 Quartet|LZLZ|2.1 Quartet>     0.000650785416
 !MCSCF expec      <3.1 Quartet|LZLZ|3.1 Quartet>     1.744018767638
 !MCSCF expec      <4.1 Quartet|LZLZ|4.1 Quartet>     3.999999980703
 !MCSCF expec      <5.1 Quartet|LZLZ|5.1 Quartet>     8.255953508042
 !MCSCF expec      <6.1 Quartet|LZLZ|6.1 Quartet>     6.699494965157
 !MCSCF expec      <7.1 Quartet|LZLZ|7.1 Quartet>     3.999349431453
 !MCSCF expec      <8.1 Quartet|LZLZ|8.1 Quartet>     0.002150581026
 !MCSCF expec      <9.1 Quartet|LZLZ|9.1 Quartet>     2.188083833757
 !MCSCF expec    <10.1 Quartet|LZLZ|10.1 Quartet>     1.004512828660
 !MCSCF expec    <11.1 Quartet|LZLZ|11.1 Quartet>     3.999999997623
 !MCSCF expec    <12.1 Quartet|LZLZ|12.1 Quartet>     8.995483648882
 !MCSCF expec    <13.1 Quartet|LZLZ|13.1 Quartet>     3.997854162668
 !MCSCF expec    <14.1 Quartet|LZLZ|14.1 Quartet>     7.811920537412
 !MCSCF expec    <15.1 Quartet|LZLZ|15.1 Quartet>     0.999999999820
 !MCSCF expec    <16.1 Quartet|LZLZ|16.1 Quartet>     0.999999999637
 !MCSCF expec    <17.1 Quartet|LZLZ|17.1 Quartet>     0.000000000991
 !MCSCF expec    <18.1 Quartet|LZLZ|18.1 Quartet>     1.000000000000
 !MCSCF expec    <19.1 Quartet|LZLZ|19.1 Quartet>     0.999999999968
 !MCSCF expec    <20.1 Quartet|LZLZ|20.1 Quartet>     0.000000000049
 !MCSCF expec      <1.1 Doublet|LZLZ|1.1 Doublet>     8.226048203764
 !MCSCF expec      <2.1 Doublet|LZLZ|2.1 Doublet>     9.800983589122
 !MCSCF expec      <3.1 Doublet|LZLZ|3.1 Doublet>     8.774649959646
 !MCSCF expec      <4.1 Doublet|LZLZ|4.1 Doublet>    14.376409707140
 !MCSCF expec      <5.1 Doublet|LZLZ|5.1 Doublet>     9.159618003235
 !MCSCF expec      <6.1 Doublet|LZLZ|6.1 Doublet>     5.621766100143
 !MCSCF expec      <7.1 Doublet|LZLZ|7.1 Doublet>     1.227668363798
 !MCSCF expec      <8.1 Doublet|LZLZ|8.1 Doublet>     1.773957460938
 !MCSCF expec      <9.1 Doublet|LZLZ|9.1 Doublet>     1.039710909311
 !MCSCF expec    <10.1 Doublet|LZLZ|10.1 Doublet>     0.001656381417
 !MCSCF expec    <11.1 Doublet|LZLZ|11.1 Doublet>     2.246899530021
 !MCSCF expec    <12.1 Doublet|LZLZ|12.1 Doublet>     1.011250361993
 !MCSCF expec    <13.1 Doublet|LZLZ|13.1 Doublet>     3.999999999179
 !MCSCF expec    <14.1 Doublet|LZLZ|14.1 Doublet>     8.988755782322
 !MCSCF expec    <15.1 Doublet|LZLZ|15.1 Doublet>     7.753021081822
 !MCSCF expec    <16.1 Doublet|LZLZ|16.1 Doublet>     3.998370983392
 !MCSCF expec    <17.1 Doublet|LZLZ|17.1 Doublet>     0.000000001043
 !MCSCF expec    <18.1 Doublet|LZLZ|18.1 Doublet>     0.999999997986
 !MCSCF expec    <19.1 Doublet|LZLZ|19.1 Doublet>     0.999999999183
 !MCSCF expec    <20.1 Doublet|LZLZ|20.1 Doublet>     0.038469754825
 !MCSCF expec    <21.1 Doublet|LZLZ|21.1 Doublet>     1.000000048829
 !MCSCF expec    <22.1 Doublet|LZLZ|22.1 Doublet>     1.000000025008
 !MCSCF expec    <23.1 Doublet|LZLZ|23.1 Doublet>     3.999999930610
 !MCSCF expec    <24.1 Doublet|LZLZ|24.1 Doublet>     3.961531462289
 
 !MCSCF expec      <1.1 Quartet|L**2|1.1 Quartet>    12.000000000000
 !MCSCF expec      <2.1 Quartet|L**2|2.1 Quartet>    12.000000000000
 !MCSCF expec      <3.1 Quartet|L**2|3.1 Quartet>    12.000000000000
 !MCSCF expec      <4.1 Quartet|L**2|4.1 Quartet>    12.000000000000
 !MCSCF expec      <5.1 Quartet|L**2|5.1 Quartet>    12.000000000000
 !MCSCF expec      <6.1 Quartet|L**2|6.1 Quartet>    12.000000000000
 !MCSCF expec      <7.1 Quartet|L**2|7.1 Quartet>    12.000000000000
 !MCSCF expec      <8.1 Quartet|L**2|8.1 Quartet>    11.999999999999
 !MCSCF expec      <9.1 Quartet|L**2|9.1 Quartet>    12.000000000000
 !MCSCF expec    <10.1 Quartet|L**2|10.1 Quartet>    12.000000000000
 !MCSCF expec    <11.1 Quartet|L**2|11.1 Quartet>    12.000000000000
 !MCSCF expec    <12.1 Quartet|L**2|12.1 Quartet>    12.000000000000
 !MCSCF expec    <13.1 Quartet|L**2|13.1 Quartet>    12.000000000000
 !MCSCF expec    <14.1 Quartet|L**2|14.1 Quartet>    12.000000000000
 !MCSCF expec    <15.1 Quartet|L**2|15.1 Quartet>     2.000000000000
 !MCSCF expec    <16.1 Quartet|L**2|16.1 Quartet>     2.000000000000
 !MCSCF expec    <17.1 Quartet|L**2|17.1 Quartet>     2.000000000000
 !MCSCF expec    <18.1 Quartet|L**2|18.1 Quartet>     2.000000000001
 !MCSCF expec    <19.1 Quartet|L**2|19.1 Quartet>     2.000000000000
 !MCSCF expec    <20.1 Quartet|L**2|20.1 Quartet>     2.000000000001
 !MCSCF expec      <1.1 Doublet|L**2|1.1 Doublet>    19.999999999999
 !MCSCF expec      <2.1 Doublet|L**2|2.1 Doublet>    20.000000000000
 !MCSCF expec      <3.1 Doublet|L**2|3.1 Doublet>    19.999999999999
 !MCSCF expec      <4.1 Doublet|L**2|4.1 Doublet>    20.000000000000
 !MCSCF expec      <5.1 Doublet|L**2|5.1 Doublet>    19.999999999999
 !MCSCF expec      <6.1 Doublet|L**2|6.1 Doublet>    19.999999999999
 !MCSCF expec      <7.1 Doublet|L**2|7.1 Doublet>    19.999999999999
 !MCSCF expec      <8.1 Doublet|L**2|8.1 Doublet>    19.999999999999
 !MCSCF expec      <9.1 Doublet|L**2|9.1 Doublet>    19.999999999999
 !MCSCF expec    <10.1 Doublet|L**2|10.1 Doublet>    11.999999999995
 !MCSCF expec    <11.1 Doublet|L**2|11.1 Doublet>    11.999999999997
 !MCSCF expec    <12.1 Doublet|L**2|12.1 Doublet>    11.999999999997
 !MCSCF expec    <13.1 Doublet|L**2|13.1 Doublet>    12.000000000001
 !MCSCF expec    <14.1 Doublet|L**2|14.1 Doublet>    12.000000000000
 !MCSCF expec    <15.1 Doublet|L**2|15.1 Doublet>    11.999999999999
 !MCSCF expec    <16.1 Doublet|L**2|16.1 Doublet>    12.000000000000
 !MCSCF expec    <17.1 Doublet|L**2|17.1 Doublet>     2.000000000007
 !MCSCF expec    <18.1 Doublet|L**2|18.1 Doublet>     2.000000000006
 !MCSCF expec    <19.1 Doublet|L**2|19.1 Doublet>     2.000000000007
 !MCSCF expec    <20.1 Doublet|L**2|20.1 Doublet>     6.000000000005
 !MCSCF expec    <21.1 Doublet|L**2|21.1 Doublet>     6.000000000003
 !MCSCF expec    <22.1 Doublet|L**2|22.1 Doublet>     6.000000000005
 !MCSCF expec    <23.1 Doublet|L**2|23.1 Doublet>     6.000000000003
 !MCSCF expec    <24.1 Doublet|L**2|24.1 Doublet>     6.000000000004
 
 EXTRA SYMMETRY OF MOS IN SYMMETRY 1:   1 1 1 3 4 6 2 5 1 1   4 6 2 3 5 1 4 6 3 2   5 1 6 4 3 2 5101315  141211 7 8 9 1 3 5 6
                                        4 2101314151211 7 8   9 5 3 6 2 4 1
 EXTRA SYMMETRY OF MOS IN SYMMETRY 2:   3 2 1 3 1 2 2 1 3 2   1 3 2 1 3 8 7 9 510   4 6 2 1 3 8 9 710 5   4 6 2 1 3 7 910 8 5
                                        6 4 2 1 3
 
  NATURAL ORBITALS (STATE AVERAGED)
  =================================

  Orbital  Occupation    Energy    Cen Mu Typ  Coefficients
    1.1     2.00000  -285.66200     1  1  s    0.97813
    2.1     2.00000   -35.28835     1  2  s    0.99625
    3.1     1.99985    -4.55708     1  3  s    0.98842
    4.1     1.50821    -0.29613     1  1  d2-  1.00114
    5.1     1.50821    -0.29613     1  1  d1+  1.00114
    6.1     1.50821    -0.29613     1  1  d1-  1.00114
    7.1     1.50821    -0.29613     1  1  d0  -1.00114
    8.1     1.50821    -0.29613     1  1  d2+  1.00114
    9.1     1.46106    -0.17183     1  4  s    1.01718
    1.2     2.00000   -30.04663     1  1  pz   0.99900
    2.2     2.00000   -30.04663     1  1  py   0.99900
    3.2     2.00000   -30.04663     1  1  px   0.99900
    4.2     1.99935    -2.98288     1  2  pz   0.99947
    5.2     1.99935    -2.98288     1  2  px   0.99947
    6.2     1.99935    -2.98288     1  2  py   0.99947
 
 Natural orbital dump (state averaged) at molpro section 2140.2 (Orbital set 2)
 
 Transform the CI vectors
 
 CI Coefficients of symmetry 1 (Quartet)
 =======================================

 State:                1               2               3               4               5               6               7
 2222aaa 222     -0.00000000      0.00000000     -0.00000000     -0.00000000      0.00000000     -0.00000000      0.00000000
 2a22a2a 222      0.00000000     -0.00000001     -0.00000000     -0.00000000      0.00000000      0.00000000     -0.00000000
 2aaa222 222     -0.00003029     -0.00000862     -0.00006296      0.99952479      0.00003700     -0.00004191      0.00000182
 22aa2a2 222     -0.00000341     -0.01274904      0.00000099     -0.00000193     -0.00003319      0.00001880      0.99944348
 22aa22a 222     -0.00000000     -0.00000002     -0.00000000     -0.00000000      0.00000000      0.00000000     -0.00000001
 2a22aa2 222      0.00001267      0.89392947      0.00000373      0.00000769     -0.00000252     -0.00002759      0.01140309
 2a222aa 222     -0.00000000     -0.00000002      0.00000000     -0.00000000     -0.00000000      0.00000000     -0.00000000
 22aaa22 222     -0.00000633     -0.44696463     -0.00000186     -0.00000384      0.00000126      0.00001380     -0.00570154
 22a2aa2 222      0.08308744      0.00002650      0.00003262      0.00003985     -0.00004780      0.89013273     -0.00001612
 2a2a22a 222      0.00000002     -0.00000000     -0.00000000      0.00000000      0.00000000     -0.00000002      0.00000000
 2a2aa22 222      0.84109547     -0.00002137     -0.00000649      0.00001278      0.00003294     -0.30298229      0.00000829
 222aaa2 222     -0.00001448      0.00000328     -0.30584466     -0.00005036      0.84005885      0.00005768      0.00002825
 22a22aa 222     -0.00000000     -0.00000000     -0.00000000     -0.00000000      0.00000000     -0.00000003      0.00000000
 222aa2a 222     -0.00000000      0.00000000      0.00000000      0.00000000     -0.00000001     -0.00000000     -0.00000000
 22a2a2a 222      0.00000000     -0.00000000     -0.00000000     -0.00000000      0.00000000     -0.00000000     -0.00000000
 2aa22a2 222     -0.00000050      0.00000296     -0.60204182     -0.00004506      0.19278380      0.00003247      0.00000704
 2a2a2a2 222      0.53357728      0.00000296      0.00001509      0.00003039     -0.00000858      0.33899154     -0.00000452
 2aa2a22 222     -0.00001362     -0.00000185      0.73692232      0.00002768      0.50614755      0.00000144      0.00001606
 222a2aa 222      0.00000000     -0.00000000      0.00000001      0.00000000     -0.00000003     -0.00000000     -0.00000000
 2aa222a 222     -0.00000000      0.00000000      0.00000003      0.00000000      0.00000002     -0.00000000      0.00000000
 
 Energy:      -1391.83914048  -1391.83914048  -1391.83914048  -1391.83914047  -1391.83914047  -1391.83914047  -1391.83914047

 State:                8               9              10              11              12              13              14
 2222aaa 222      0.00000810      0.00001777     -0.00001937      0.99999914      0.00001005     -0.00000752     -0.00001440
 2a22a2a 222      0.02318701     -0.00000418      0.00000963      0.00000735     -0.00005623      0.99972965      0.00112534
 2aaa222 222      0.00000000     -0.00000000      0.00000000      0.00000000     -0.00000000     -0.00000000      0.00000000
 22aa2a2 222      0.00000001     -0.00000000      0.00000000     -0.00000000     -0.00000000     -0.00000000     -0.00000000
 22aa22a 222      0.89418607     -0.00008973      0.00002957     -0.00000740     -0.00000853     -0.02073908     -0.00002858
 2a22aa2 222      0.00000004     -0.00000000      0.00000000     -0.00000000     -0.00000000      0.00000001      0.00000000
 2a222aa 222      0.44709272     -0.00004486      0.00001479     -0.00000370     -0.00000426     -0.01036952     -0.00001429
 22aaa22 222      0.00000002     -0.00000000      0.00000000     -0.00000000     -0.00000000     -0.00000000     -0.00000000
 22a2aa2 222      0.00000000      0.00000001     -0.00000000      0.00000000      0.00000000     -0.00000000      0.00000004
 2a2a22a 222     -0.00001833     -0.23291908      0.00000146      0.00001657      0.00002029     -0.00097262      0.86356599
 2a2aa22 222      0.00000000     -0.00000001      0.00000000      0.00000000     -0.00000000      0.00000000     -0.00000001
 222aaa2 222      0.00000000      0.00000000      0.00000001     -0.00000000      0.00000002      0.00000000     -0.00000000
 22a22aa 222      0.00008068      0.77791491     -0.00001654     -0.00000747      0.00001696     -0.00049550      0.44141445
 222aa2a 222     -0.00002088      0.00001207      0.63227670      0.00001210      0.01502136     -0.00000476      0.00000183
 22a2a2a 222     -0.00005716     -0.58360549      0.00001039      0.00001388      0.00000192     -0.00027547      0.24372951
 2aa22a2 222     -0.00000000     -0.00000000      0.00000002      0.00000000     -0.00000000     -0.00000000      0.00000000
 2a2a2a2 222      0.00000000      0.00000002     -0.00000000     -0.00000000     -0.00000000      0.00000000     -0.00000003
 2aa2a22 222     -0.00000000     -0.00000000     -0.00000001     -0.00000000      0.00000003      0.00000000      0.00000000
 222a2aa 222     -0.00000986      0.00000494      0.53077313      0.00000305      0.71991557      0.00003563     -0.00001644
 2aa222a 222     -0.00002630      0.00001597      0.56436189      0.00001791     -0.69389784     -0.00004387      0.00001961
 
 Energy:      -1391.78196159  -1391.78196159  -1391.78196158  -1391.78196158  -1391.78196157  -1391.78196157  -1391.78196157

 State:               15              16              17              18              19              20
 2222aaa 222      0.00000000     -0.00000000      0.00000000     -0.00000000      0.00000000     -0.00000000
 2a22a2a 222      0.00000000     -0.00000000     -0.00000000     -0.00000000      0.00000000     -0.00000001
 2aaa222 222     -0.00000000     -0.00000000     -0.00000000      0.00000000     -0.00000000      0.00000000
 22aa2a2 222     -0.00000000     -0.00000000     -0.00000000      0.00000000     -0.00000000     -0.00000000
 22aa22a 222     -0.00000000     -0.00000000     -0.00019636      0.00000029     -0.00000252     -0.44685006
 2a22aa2 222      0.00000599      0.00000851      0.44668726      0.00000000     -0.00000000     -0.00020086
 2a222aa 222      0.00000001      0.00000001      0.00039262     -0.00000058      0.00000504      0.89370075
 22aaa22 222      0.00001198      0.00001702      0.89337474      0.00000000     -0.00000000     -0.00040176
 22a2aa2 222     -0.44668739      0.00010339      0.00000599      0.00020091     -0.00000001      0.00000000
 2a2a22a 222     -0.00019631      0.00000005      0.00000000     -0.44685048      0.00001363     -0.00000029
 2a2aa22 222     -0.44668734      0.00010339      0.00000599      0.00020091     -0.00000001      0.00000000
 222aaa2 222     -0.00010339     -0.44668736      0.00000851     -0.00000001     -0.00020090      0.00000000
 22a22aa 222      0.00019634     -0.00000005     -0.00000000      0.44685037     -0.00001363      0.00000029
 222aa2a 222     -0.00000008     -0.00034007      0.00000001      0.00002361      0.77396734     -0.00000437
 22a2a2a 222      0.00034009     -0.00000008     -0.00000000      0.77396731     -0.00002361      0.00000051
 2aa22a2 222      0.00017907      0.77368515     -0.00001475      0.00000001      0.00034795     -0.00000000
 2a2a2a2 222      0.77368513     -0.00017907     -0.00001037     -0.00034796      0.00000001     -0.00000000
 2aa2a22 222      0.00010339      0.44668734     -0.00000851      0.00000001      0.00020090     -0.00000000
 222a2aa 222      0.00000005      0.00019633     -0.00000000     -0.00001363     -0.44685041      0.00000252
 2aa222a 222      0.00000005      0.00019633     -0.00000000     -0.00001363     -0.44685039      0.00000252
 
 Energy:      -1391.76725365  -1391.76725365  -1391.76725365  -1391.71061033  -1391.71061033  -1391.71061030
 
 
 CI Coefficients of symmetry 1 (Doublet)
 =======================================

 State:                1               2               3               4               5               6               7
 2222aab 222     -0.00000000      0.00000015      0.00000000     -0.00000000     -0.00000024     -0.00000000      0.00000000
 2a22a2b 222     -0.00000000     -0.00000000      0.00000000     -0.00000002      0.00000000     -0.00000017      0.00000000
 22aa22b 222      0.00000000      0.00000000     -0.00000000      0.00000009     -0.00000000      0.00000003     -0.00000000
 2a2a22b 222     -0.00000000     -0.00000000      0.00000002      0.00000000      0.00000000     -0.00000000     -0.00000010
 22a22ab 222      0.00000000      0.00000000     -0.00000013     -0.00000000     -0.00000000      0.00000000      0.00000005
 222a2ab 222     -0.00000014     -0.00000000     -0.00000000      0.00000000     -0.00000000     -0.00000000      0.00000000
 2aa222b 222      0.00000002      0.00000000      0.00000000     -0.00000000      0.00000000      0.00000000     -0.00000000
 2a22ba2 222     -0.00000000     -0.00000000      0.00000000     -0.00000010      0.00000000     -0.00000000      0.00000000
 2a22022 222     -0.00001514     -0.00000007      0.00001010     -0.21506559     -0.00000403      0.54358351     -0.01107009
 22aa2b2 222     -0.00001514     -0.00000007      0.00001010     -0.21506551     -0.00000403      0.54358324     -0.01107008
 22220a2 222     -0.00036915      0.41575672      0.00005676     -0.00000183     -0.40503585     -0.00000620     -0.00000159
 2022a22 222     -0.00030937      0.34557394      0.00003566      0.00000524      0.39853385     -0.00000378      0.00000270
 2222a02 222      0.00024718     -0.27715455     -0.00003724     -0.00000043     -0.20224738     -0.00001833      0.00000385
 222aa2b 222     -0.00000008     -0.00000000     -0.00000000      0.00000000      0.00000000     -0.00000000      0.00000000
 222aba2 222      0.50583834      0.00045054      0.00068910     -0.00005950      0.00000155     -0.00000670      0.00001182
 22a2ba2 222     -0.00067374     -0.00006329      0.49697743      0.00004557      0.00000674     -0.00196599     -0.09696839
 22a2a2b 222     -0.00000000     -0.00000000      0.00000008      0.00000000      0.00000000     -0.00000000     -0.00000007
 22ab2a2 222      0.00005301     -0.00000109     -0.00003900      0.46715372     -0.00000241     -0.12956852      0.00264625
 2aab222 222     -0.00039864      0.44790128      0.00006063     -0.00000055     -0.02736651      0.00001277     -0.00000413
 22022a2 222     -0.00017564      0.19533630      0.00001669      0.00000499      0.44639886     -0.00000173      0.00000273
 2ab2a22 222     -0.02012535     -0.00001854     -0.00002285      0.00001264     -0.00000188      0.00005205     -0.00007960
 2aba222 222      0.00002949     -0.03214449     -0.00000387     -0.00000129     -0.37766934     -0.00001897      0.00000254
 2a2ba22 222     -0.00013005     -0.00000999      0.08553558     -0.00000045     -0.00000043      0.00892224      0.43820277
 2a2ab22 222      0.00060284      0.00005496     -0.43688501     -0.00003384     -0.00000474     -0.00521719     -0.25592563
 2baa222 222      0.00036915     -0.41575678     -0.00005676      0.00000183      0.40503585      0.00000620      0.00000159
 2a22ab2 222      0.00005247     -0.00000130     -0.00003920      0.41525492     -0.00000510      0.16422522     -0.00333569
 2b22aa2 222     -0.00005247      0.00000130      0.00003920     -0.41525482      0.00000510     -0.16422522      0.00333569
 22ba2a2 222     -0.00003787      0.00000116      0.00002890     -0.25208820      0.00000643     -0.41401472      0.00842383
 2a20222 222      0.00004923     -0.00000110     -0.00003647      0.41338758     -0.00000341      0.00632735     -0.00012127
 2222baa 222      0.00001149     -0.01294468     -0.00000177      0.00000006      0.01261094      0.00000019      0.00000005
 2222aba 222     -0.00001149      0.01294453      0.00000177     -0.00000006     -0.01261070     -0.00000019     -0.00000005
 2a22b2a 222     -0.00000047     -0.00000000      0.00000031     -0.00669607     -0.00000013      0.01692459     -0.00034467
 2b22a2a 222      0.00000047      0.00000000     -0.00000031      0.00669609      0.00000013     -0.01692443      0.00034467
 22a0222 222      0.00008186      0.00000962     -0.06938900     -0.00001354     -0.00000232      0.00829442      0.40748685
 22202a2 222      0.00036021     -0.40321469     -0.00004507     -0.00000408     -0.24388115      0.00000483     -0.00000194
 2aa2b22 222      0.39447285      0.00035181      0.00053396     -0.00005411      0.00000258     -0.00004406      0.00006857
 220a222 222      0.12859385      0.00011400      0.00017914     -0.00000623     -0.00000118      0.00004314     -0.00006552
 22b2aa2 222      0.00029547      0.00002943     -0.22575179     -0.00002692     -0.00000425      0.00783851      0.38521689
 222a202 222      0.16345204      0.00014612      0.00021871     -0.00002812      0.00000208     -0.00004701      0.00007235
 2ba2a22 222     -0.37434751     -0.00033327     -0.00051112      0.00004147     -0.00000069     -0.00000798      0.00001103
 2202a22 222      0.00008438     -0.09421888     -0.00000740     -0.00000214     -0.03968113      0.00001195     -0.00000304
 2a2b2a2 222      0.00004093      0.00000481     -0.03469448     -0.00000677     -0.00000116      0.00414721      0.20374355
 2ab22a2 222     -0.06429688     -0.00005700     -0.00008957      0.00000311      0.00000059     -0.00002157      0.00003276
 22ba22a 222     -0.00000054     -0.00000000      0.00000036     -0.00773200     -0.00000014      0.01954268     -0.00039799
 22ab22a 222      0.00000054      0.00000000     -0.00000036      0.00773191      0.00000014     -0.01954272      0.00039799
 2a222ab 222      0.00000000     -0.00000000     -0.00000000      0.00000002      0.00000000      0.00000001     -0.00000000
 202a222 222     -0.35634308     -0.00031712     -0.00048743      0.00003747     -0.00000030     -0.00001770      0.00002593
 2a02222 222     -0.00004165      0.00000114      0.00003142     -0.30585473      0.00000543     -0.27811889      0.00565631
 20a2222 222     -0.00042991     -0.00004136      0.32162481      0.00003308      0.00000505     -0.00528228     -0.25972828
 22a2202 222      0.00030712      0.00002692     -0.21754103     -0.00001277     -0.00000158     -0.00715935     -0.35150211
 222a022 222      0.06429699      0.00005700      0.00008957     -0.00000311     -0.00000059      0.00002157     -0.00003276
 22a2022 222      0.00004093      0.00000481     -0.03469449     -0.00000677     -0.00000116      0.00414721      0.20374342
 2a2b22a 222     -0.00002503     -0.00000228      0.01813657      0.00000140      0.00000020      0.00021658      0.01062439
 2b2a22a 222      0.00002503      0.00000228     -0.01813659     -0.00000141     -0.00000020     -0.00021658     -0.01062429
 2220a22 222     -0.00002219      0.02579971      0.00000898     -0.00000267     -0.15660501      0.00001016     -0.00000350
 2b2aa22 222     -0.00047279     -0.00004497      0.35134943      0.00003429      0.00000516     -0.00370506     -0.18227715
 222baa2 222     -0.27997830     -0.00024891     -0.00038484      0.00002523      0.00000051     -0.00003513      0.00005280
 222aab2 222     -0.22586004     -0.00020163     -0.00030426      0.00003427     -0.00000206      0.00004183     -0.00006462
 22a2ab2 222      0.00037826      0.00003386     -0.27122564     -0.00001865     -0.00000249     -0.00587252     -0.28824850
 22b22aa 222     -0.00002797     -0.00000263      0.02063126      0.00000189      0.00000028     -0.00008162     -0.00402552
 22a22ba 222      0.00002797      0.00000263     -0.02063114     -0.00000189     -0.00000028      0.00008161      0.00402547
 22aba22 222     -0.00000219     -0.00000001      0.00000146     -0.03104202     -0.00000058      0.07845953     -0.00159783
 22baa22 222      0.00000219      0.00000001     -0.00000146      0.03104201      0.00000058     -0.07845953      0.00159783
 222a2ba 222     -0.02099898     -0.00001870     -0.00002861      0.00000247     -0.00000006      0.00000028     -0.00000049
 222b2aa 222      0.02099912      0.00001870      0.00002861     -0.00000247      0.00000006     -0.00000028      0.00000049
 2ba22a2 222      0.29204593      0.00026012      0.00039785     -0.00003435      0.00000090     -0.00000387      0.00000683
 2b2a2a2 222     -0.00038898     -0.00003654      0.28693020      0.00002631      0.00000389     -0.00113507     -0.05598479
 2ab222a 222     -0.01637591     -0.00001460     -0.00002217      0.00000225     -0.00000011      0.00000183     -0.00000285
 2ba222a 222      0.01637589      0.00001460      0.00002217     -0.00000225      0.00000011     -0.00000183      0.00000285
 2a22202 222      0.00000757      0.00000004     -0.00000505      0.10753277      0.00000201     -0.27179175      0.00553504
 222ba2a 222     -0.00800752     -0.00000710     -0.00001116      0.00000039      0.00000007     -0.00000269      0.00000408
 222ab2a 222      0.00800759      0.00000710      0.00001116     -0.00000039     -0.00000007      0.00000269     -0.00000408
 2a2a2b2 222      0.00034805      0.00003173     -0.25223572     -0.00001954     -0.00000273     -0.00301215     -0.14775877
 22b2a2a 222     -0.00000510     -0.00000060      0.00432083      0.00000084      0.00000014     -0.00051649     -0.02537422
 22a2b2a 222      0.00000510      0.00000060     -0.00432092     -0.00000084     -0.00000014      0.00051650      0.02537429
 2aa22b2 222     -0.22774905     -0.00020312     -0.00030828      0.00003124     -0.00000149      0.00002544     -0.00003959
 20222a2 222      0.00018457     -0.20787841     -0.00002838      0.00000092      0.20251802      0.00000310      0.00000080
 2a222ba 222      0.00000327     -0.00000008     -0.00000244      0.02585791     -0.00000032      0.01022630     -0.00020771
 2b222aa 222     -0.00000327      0.00000008      0.00000244     -0.02585793      0.00000032     -0.01022631      0.00020771
 22aab22 222      0.00000000     -0.00000000     -0.00000000      0.00000001     -0.00000000      0.00000000     -0.00000000
 222202a 222     -0.00000232      0.00255629     -0.00000006      0.00000018      0.00733368     -0.00000083      0.00000024
 222220a 222     -0.00001772      0.01981469      0.00000226      0.00000021      0.01992758      0.00000032      0.00000000
 202222a 222      0.00001694     -0.01896261     -0.00000228     -0.00000015     -0.01748307     -0.00000059      0.00000008
 220222a 222     -0.00001172      0.01324296      0.00000208     -0.00000019     -0.01945079      0.00000033     -0.00000022
 222022a 222      0.00001482     -0.01665132     -0.00000200     -0.00000005      0.00967260      0.00000077     -0.00000011
 
 Energy:      -1391.76255527  -1391.76255527  -1391.76255527  -1391.76255527  -1391.76255527  -1391.76255527  -1391.76255527

 State:                8               9              10              11              12              13              14
 2222aab 222      0.00000000      0.00000012      0.00000585      0.00001137     -0.00000998      0.81545239      0.00001092
 2a22a2b 222      0.00000000     -0.00000000      0.01659274     -0.00000855      0.00000560      0.00000612     -0.00003431
 22aa22b 222     -0.00000000      0.00000000      0.72921189     -0.00023530      0.00001604     -0.00000534      0.00000014
 2a2a22b 222     -0.00000000      0.00000000     -0.00005963     -0.18271764      0.00000085      0.00000925      0.00001381
 22a22ab 222      0.00000000     -0.00000000      0.00020560      0.63800370     -0.00001747     -0.00000554      0.00001057
 222a2ab 222     -0.00000014     -0.00000000     -0.00000900      0.00000745      0.42470412     -0.00000274      0.59295564
 2aa222b 222     -0.00000004     -0.00000000     -0.00001072      0.00001428      0.46795071      0.00001322     -0.55945702
 2a22ba2 222      0.00000000     -0.00000000      0.02594219     -0.00000837      0.00000057     -0.00000019      0.00000000
 2a22022 222     -0.00005998      0.00001918      0.00000000     -0.00000000      0.00000000      0.00000000      0.00000000
 22aa2b2 222     -0.00005998      0.00001918      0.00000001     -0.00000000      0.00000000      0.00000000      0.00000000
 22220a2 222     -0.00000306      0.07036143     -0.00000000     -0.00000000      0.00000000     -0.00000018     -0.00000000
 2022a22 222     -0.00000500      0.25220708     -0.00000000      0.00000000      0.00000000      0.00000002      0.00000000
 2222a02 222     -0.00001452      0.47343425      0.00000000     -0.00000000     -0.00000000     -0.00000006     -0.00000000
 222aa2b 222     -0.00000009     -0.00000000     -0.00001139      0.00001255      0.51537476      0.00000605      0.01934049
 222aba2 222      0.02281999      0.00000107     -0.00000016      0.00000013      0.00755471     -0.00000005      0.01054759
 22a2ba2 222     -0.00002202      0.00000598      0.00000366      0.01134892     -0.00000031     -0.00000010      0.00000019
 22a2a2b 222     -0.00000000      0.00000000     -0.00015313     -0.47384395      0.00001058      0.00000854      0.00000187
 22ab2a2 222      0.00000474     -0.00000631     -0.01123372      0.00000362     -0.00000025      0.00000008     -0.00000000
 2aab222 222      0.00001105     -0.37482518      0.00000000      0.00000000     -0.00000000     -0.00000004     -0.00000000
 22022a2 222     -0.00000356      0.20082705      0.00000010      0.00000020     -0.00000018      0.01450540      0.00000019
 2ab2a22 222      0.44610819      0.00001254     -0.00000016      0.00000013      0.00755491     -0.00000005      0.01054763
 2aba222 222     -0.00001411      0.44518667     -0.00000000     -0.00000000      0.00000000     -0.00000019     -0.00000000
[...]
   82    2.1  0.5  0.5   0.000%   0.000%   0.000%   0.000%   0.000%   0.000%   0.000%   0.000%   0.000%   0.000%
   83    3.1  0.5  0.5   0.000%   0.000%   0.000%   0.000%   0.000%   0.000%   0.000%   0.000%   0.000%   0.001%
   84    4.1  0.5  0.5   0.000%   0.000%   0.000%   0.000%   0.000%   0.000%   0.000%   0.000%   0.003%   0.000%
   85    5.1  0.5  0.5   0.000%   0.000%   0.000%   0.000%   0.000%   0.000%   0.000%   0.000%   0.006%   0.000%
   86    6.1  0.5  0.5   0.000%   0.000%   0.000%   0.000%   0.000%   0.000%   0.000%   0.000%   0.000%   0.001%
   87    7.1  0.5  0.5   0.000%   0.000%   0.000%   0.000%   0.000%   0.000%   0.000%   0.000%   0.003%   0.000%
   88    8.1  0.5  0.5   0.005%  13.714%   0.000%   0.000%   0.000%   0.000%   0.000%   0.000%   0.000%   0.000%
   89    9.1  0.5  0.5   0.024%   4.449%   0.000%   0.000%   0.000%   0.000%   0.000%   0.000%   0.000%   0.000%
   90   10.1  0.5  0.5   2.955%   3.316%   0.000%   0.000%   0.000%   0.000%   0.000%   0.000%   0.000%   0.000%
   91   11.1  0.5  0.5   0.733%  19.255%   0.000%   0.000%   0.000%   0.000%   0.000%   0.000%   0.000%   0.000%
   92   12.1  0.5  0.5   0.360%   0.040%   0.000%   0.000%   0.000%   0.000%   0.000%   0.000%   0.000%   0.000%
   93   13.1  0.5  0.5   0.078%   9.047%   0.000%   0.000%   0.000%   0.000%   0.000%   0.000%   0.000%   0.000%
   94   14.1  0.5  0.5   1.340%   0.150%   0.000%   0.000%   0.000%   0.000%   0.000%   0.000%   0.000%   0.000%
   95   15.1  0.5  0.5   0.022%   0.003%   0.000%   0.000%   0.000%   0.000%   0.000%   0.000%   0.000%   0.000%
   96   16.1  0.5  0.5  44.438%   0.009%   0.000%   0.000%   0.000%   0.000%   0.000%   0.000%   0.000%   0.000%
   97   17.1  0.5  0.5   0.000%   0.000%  54.831%   0.362%   0.003%   1.910%  27.205%   5.587%   0.000%   0.000%
   98   18.1  0.5  0.5   0.000%   0.000%   0.003%   6.362%  50.604%   0.124%   4.217%  28.592%   0.000%   0.000%
   99   19.1  0.5  0.5   0.000%   0.000%  24.042%   0.042%   0.148%  32.857%  28.573%   4.232%   0.000%   0.000%
  100   20.1  0.5  0.5   0.000%   0.000%   0.021%   3.530%   0.624%   0.000%   0.000%   0.000%   0.217%  48.160%
  101   21.1  0.5  0.5   0.000%   0.000%   0.022%   3.682%   0.468%   0.000%   0.000%   0.000%   0.221%  50.537%
  102   22.1  0.5  0.5   0.000%   0.000%   0.006%   0.624%   3.546%   0.000%   0.000%   0.000%   0.000%   0.250%
  103   23.1  0.5  0.5   0.000%   0.000%   0.141%   0.000%   0.000%   4.022%   0.000%   0.000%   0.028%   0.000%
  104   24.1  0.5  0.5   0.000%   0.000%   2.385%   0.018%   0.000%   1.762%   0.000%   0.000%   0.025%   0.000%
  105    1.1  0.5 -0.5   0.000%   0.000%   0.000%   0.000%   0.000%   0.000%   0.000%   0.000%   0.000%   0.000%
  106    2.1  0.5 -0.5   0.000%   0.000%   0.000%   0.000%   0.000%   0.000%   0.000%   0.000%   0.000%   0.000%
  107    3.1  0.5 -0.5   0.000%   0.000%   0.000%   0.000%   0.000%   0.000%   0.000%   0.000%   0.001%   0.000%
  108    4.1  0.5 -0.5   0.000%   0.000%   0.000%   0.000%   0.000%   0.000%   0.000%   0.000%   0.000%   0.003%
  109    5.1  0.5 -0.5   0.000%   0.000%   0.000%   0.000%   0.000%   0.000%   0.000%   0.000%   0.000%   0.006%
  110    6.1  0.5 -0.5   0.000%   0.000%   0.000%   0.000%   0.000%   0.000%   0.000%   0.000%   0.001%   0.000%
  111    7.1  0.5 -0.5   0.000%   0.000%   0.000%   0.000%   0.000%   0.000%   0.000%   0.000%   0.000%   0.003%
  112    8.1  0.5 -0.5  13.714%   0.005%   0.000%   0.000%   0.000%   0.000%   0.000%   0.000%   0.000%   0.000%
  113    9.1  0.5 -0.5   4.449%   0.024%   0.000%   0.000%   0.000%   0.000%   0.000%   0.000%   0.000%   0.000%
  114   10.1  0.5 -0.5   3.316%   2.955%   0.000%   0.000%   0.000%   0.000%   0.000%   0.000%   0.000%   0.000%
  115   11.1  0.5 -0.5  19.255%   0.733%   0.000%   0.000%   0.000%   0.000%   0.000%   0.000%   0.000%   0.000%
  116   12.1  0.5 -0.5   0.040%   0.360%   0.000%   0.000%   0.000%   0.000%   0.000%   0.000%   0.000%   0.000%
  117   13.1  0.5 -0.5   9.047%   0.078%   0.000%   0.000%   0.000%   0.000%   0.000%   0.000%   0.000%   0.000%
  118   14.1  0.5 -0.5   0.150%   1.340%   0.000%   0.000%   0.000%   0.000%   0.000%   0.000%   0.000%   0.000%
  119   15.1  0.5 -0.5   0.003%   0.022%   0.000%   0.000%   0.000%   0.000%   0.000%   0.000%   0.000%   0.000%
  120   16.1  0.5 -0.5   0.009%  44.438%   0.000%   0.000%   0.000%   0.000%   0.000%   0.000%   0.000%   0.000%
  121   17.1  0.5 -0.5   0.000%   0.000%   0.362%  54.831%   1.910%   0.003%   5.587%  27.205%   0.000%   0.000%
  122   18.1  0.5 -0.5   0.000%   0.000%   6.362%   0.003%   0.124%  50.604%  28.592%   4.217%   0.000%   0.000%
  123   19.1  0.5 -0.5   0.000%   0.000%   0.042%  24.042%  32.857%   0.148%   4.232%  28.573%   0.000%   0.000%
  124   20.1  0.5 -0.5   0.000%   0.000%   3.530%   0.021%   0.000%   0.624%   0.000%   0.000%  48.160%   0.217%
  125   21.1  0.5 -0.5   0.000%   0.000%   3.682%   0.022%   0.000%   0.468%   0.000%   0.000%  50.537%   0.221%
  126   22.1  0.5 -0.5   0.000%   0.000%   0.624%   0.006%   0.000%   3.546%   0.000%   0.000%   0.250%   0.000%
  127   23.1  0.5 -0.5   0.000%   0.000%   0.000%   0.141%   4.022%   0.000%   0.000%   0.000%   0.000%   0.028%
  128   24.1  0.5 -0.5   0.000%   0.000%   0.018%   2.385%   1.762%   0.000%   0.000%   0.000%   0.000%   0.025%

   Nr   State  S   Sz     121      122      123      124      125      126      127      128

    1    1.1  1.5  1.5   0.006%   0.000%   0.026%   0.000%   0.000%   0.005%   0.000%   0.009%
    2    2.1  1.5  1.5   0.000%   0.024%   0.000%   0.001%   0.002%   0.000%   0.014%   0.000%
    3    3.1  1.5  1.5   0.000%   0.001%   0.000%   0.020%   0.068%   0.000%   0.000%   0.000%
    4    4.1  1.5  1.5   0.022%   0.000%   0.008%   0.000%   0.000%   0.002%   0.000%   0.026%
    5    5.1  1.5  1.5   0.000%   0.019%   0.000%   0.005%   0.020%   0.000%   0.009%   0.000%
    6    6.1  1.5  1.5   0.000%   0.006%   0.000%   0.016%   0.049%   0.000%   0.005%   0.000%
    7    7.1  1.5  1.5   0.028%   0.000%   0.000%   0.000%   0.000%   0.000%   0.000%   0.035%
    8    8.1  1.5  1.5   0.000%   0.000%   0.000%   0.001%   0.002%   0.000%   0.000%   0.000%
    9    9.1  1.5  1.5   0.000%   0.000%   0.000%   0.001%   0.003%   0.000%   0.000%   0.000%
   10   10.1  1.5  1.5   0.000%   0.000%   0.002%   0.000%   0.000%   0.000%   0.000%   0.000%
   11   11.1  1.5  1.5   0.000%   0.001%   0.000%   0.000%   0.001%   0.000%   0.000%   0.000%
   12   12.1  1.5  1.5   0.000%   0.001%   0.000%   0.000%   0.000%   0.000%   0.001%   0.000%
   13   13.1  1.5  1.5   0.001%   0.000%   0.000%   0.000%   0.000%   0.000%   0.000%   0.002%
   14   14.1  1.5  1.5   0.001%   0.000%   0.000%   0.000%   0.000%   0.000%   0.000%   0.002%
   15   15.1  1.5  1.5   0.000%   0.015%   0.000%   0.000%   0.000%   0.000%   0.070%   0.000%
   16   16.1  1.5  1.5   0.000%   0.000%   0.117%   0.000%   0.000%   0.211%   0.000%   0.000%
   17   17.1  1.5  1.5   0.000%   0.015%   0.000%   0.000%   0.000%   0.000%   0.070%   0.000%
   18   18.1  1.5  1.5   0.000%   0.006%   0.000%   0.000%   0.000%   0.000%   0.002%   0.000%
   19   19.1  1.5  1.5   0.000%   0.006%   0.000%   0.000%   0.000%   0.000%   0.002%   0.000%
   20   20.1  1.5  1.5   0.000%   0.000%   0.046%   0.000%   0.000%   0.005%   0.000%   0.000%
   21    1.1  1.5  0.5   0.000%   0.017%   0.000%   0.001%   0.007%   0.000%   0.048%   0.000%
   22    2.1  1.5  0.5   0.001%   0.000%   0.022%   0.000%   0.000%   0.015%   0.000%   0.039%
   23    3.1  1.5  0.5   0.000%   0.000%   0.000%   0.000%   0.000%   0.000%   0.000%   0.001%
   24    4.1  1.5  0.5   0.000%   0.005%   0.000%   0.003%   0.028%   0.000%   0.014%   0.000%
   25    5.1  1.5  0.5   0.000%   0.000%   0.017%   0.000%   0.000%   0.009%   0.000%   0.031%
   26    6.1  1.5  0.5   0.000%   0.000%   0.006%   0.000%   0.000%   0.003%   0.000%   0.012%
   27    7.1  1.5  0.5   0.000%   0.000%   0.000%   0.005%   0.035%   0.000%   0.000%   0.000%
   28    8.1  1.5  0.5   0.000%   0.000%   0.000%   0.000%   0.000%   0.000%   0.000%   0.001%
   29    9.1  1.5  0.5   0.000%   0.000%   0.000%   0.000%   0.000%   0.000%   0.000%   0.000%
   30   10.1  1.5  0.5   0.000%   0.001%   0.000%   0.000%   0.000%   0.000%   0.003%   0.000%
   31   11.1  1.5  0.5   0.000%   0.000%   0.001%   0.000%   0.000%   0.000%   0.000%   0.001%
   32   12.1  1.5  0.5   0.000%   0.000%   0.001%   0.000%   0.000%   0.001%   0.000%   0.002%
   33   13.1  1.5  0.5   0.000%   0.000%   0.000%   0.000%   0.002%   0.000%   0.000%   0.000%
   34   14.1  1.5  0.5   0.000%   0.000%   0.000%   0.000%   0.002%   0.000%   0.000%   0.000%
   35   15.1  1.5  0.5   0.040%   0.000%   0.092%   0.000%   0.000%   0.075%   0.000%   0.089%
   36   16.1  1.5  0.5   0.000%   0.177%   0.000%   0.000%   0.000%   0.000%   0.023%   0.000%
   37   17.1  1.5  0.5   0.048%   0.000%   0.085%   0.000%   0.000%   0.065%   0.000%   0.099%
   38   18.1  1.5  0.5   0.016%   0.000%   0.036%   0.000%   0.000%   0.002%   0.000%   0.002%
   39   19.1  1.5  0.5   0.019%   0.000%   0.033%   0.000%   0.000%   0.001%   0.000%   0.002%
   40   20.1  1.5  0.5   0.000%   0.069%   0.000%   0.000%   0.000%   0.000%   0.001%   0.000%
   41    1.1  1.5 -0.5   0.017%   0.000%   0.001%   0.000%   0.000%   0.007%   0.000%   0.048%
   42    2.1  1.5 -0.5   0.000%   0.001%   0.000%   0.022%   0.015%   0.000%   0.039%   0.000%
   43    3.1  1.5 -0.5   0.000%   0.000%   0.000%   0.000%   0.000%   0.000%   0.001%   0.000%
   44    4.1  1.5 -0.5   0.005%   0.000%   0.003%   0.000%   0.000%   0.028%   0.000%   0.014%
   45    5.1  1.5 -0.5   0.000%   0.000%   0.000%   0.017%   0.009%   0.000%   0.031%   0.000%
   46    6.1  1.5 -0.5   0.000%   0.000%   0.000%   0.006%   0.003%   0.000%   0.012%   0.000%
   47    7.1  1.5 -0.5   0.000%   0.000%   0.005%   0.000%   0.000%   0.035%   0.000%   0.000%
   48    8.1  1.5 -0.5   0.000%   0.000%   0.000%   0.000%   0.000%   0.000%   0.001%   0.000%
   49    9.1  1.5 -0.5   0.000%   0.000%   0.000%   0.000%   0.000%   0.000%   0.000%   0.000%
   50   10.1  1.5 -0.5   0.001%   0.000%   0.000%   0.000%   0.000%   0.000%   0.000%   0.003%
   51   11.1  1.5 -0.5   0.000%   0.000%   0.000%   0.001%   0.000%   0.000%   0.001%   0.000%
   52   12.1  1.5 -0.5   0.000%   0.000%   0.000%   0.001%   0.001%   0.000%   0.002%   0.000%
   53   13.1  1.5 -0.5   0.000%   0.000%   0.000%   0.000%   0.000%   0.002%   0.000%   0.000%
   54   14.1  1.5 -0.5   0.000%   0.000%   0.000%   0.000%   0.000%   0.002%   0.000%   0.000%
   55   15.1  1.5 -0.5   0.000%   0.040%   0.000%   0.092%   0.075%   0.000%   0.089%   0.000%
   56   16.1  1.5 -0.5   0.177%   0.000%   0.000%   0.000%   0.000%   0.000%   0.000%   0.023%
   57   17.1  1.5 -0.5   0.000%   0.048%   0.000%   0.085%   0.065%   0.000%   0.099%   0.000%
   58   18.1  1.5 -0.5   0.000%   0.016%   0.000%   0.036%   0.002%   0.000%   0.002%   0.000%
   59   19.1  1.5 -0.5   0.000%   0.019%   0.000%   0.033%   0.001%   0.000%   0.002%   0.000%
   60   20.1  1.5 -0.5   0.069%   0.000%   0.000%   0.000%   0.000%   0.000%   0.000%   0.001%
   61    1.1  1.5 -1.5   0.000%   0.006%   0.000%   0.026%   0.005%   0.000%   0.009%   0.000%
   62    2.1  1.5 -1.5   0.024%   0.000%   0.001%   0.000%   0.000%   0.002%   0.000%   0.014%
   63    3.1  1.5 -1.5   0.001%   0.000%   0.020%   0.000%   0.000%   0.068%   0.000%   0.000%
   64    4.1  1.5 -1.5   0.000%   0.022%   0.000%   0.008%   0.002%   0.000%   0.026%   0.000%
   65    5.1  1.5 -1.5   0.019%   0.000%   0.005%   0.000%   0.000%   0.020%   0.000%   0.009%
   66    6.1  1.5 -1.5   0.006%   0.000%   0.016%   0.000%   0.000%   0.049%   0.000%   0.005%
   67    7.1  1.5 -1.5   0.000%   0.028%   0.000%   0.000%   0.000%   0.000%   0.035%   0.000%
   68    8.1  1.5 -1.5   0.000%   0.000%   0.001%   0.000%   0.000%   0.002%   0.000%   0.000%
   69    9.1  1.5 -1.5   0.000%   0.000%   0.001%   0.000%   0.000%   0.003%   0.000%   0.000%
   70   10.1  1.5 -1.5   0.000%   0.000%   0.000%   0.002%   0.000%   0.000%   0.000%   0.000%
   71   11.1  1.5 -1.5   0.001%   0.000%   0.000%   0.000%   0.000%   0.001%   0.000%   0.000%
   72   12.1  1.5 -1.5   0.001%   0.000%   0.000%   0.000%   0.000%   0.000%   0.000%   0.001%
   73   13.1  1.5 -1.5   0.000%   0.001%   0.000%   0.000%   0.000%   0.000%   0.002%   0.000%
   74   14.1  1.5 -1.5   0.000%   0.001%   0.000%   0.000%   0.000%   0.000%   0.002%   0.000%
   75   15.1  1.5 -1.5   0.015%   0.000%   0.000%   0.000%   0.000%   0.000%   0.000%   0.070%
   76   16.1  1.5 -1.5   0.000%   0.000%   0.000%   0.117%   0.211%   0.000%   0.000%   0.000%
   77   17.1  1.5 -1.5   0.015%   0.000%   0.000%   0.000%   0.000%   0.000%   0.000%   0.070%
   78   18.1  1.5 -1.5   0.006%   0.000%   0.000%   0.000%   0.000%   0.000%   0.000%   0.002%
   79   19.1  1.5 -1.5   0.006%   0.000%   0.000%   0.000%   0.000%   0.000%   0.000%   0.002%
   80   20.1  1.5 -1.5   0.000%   0.000%   0.000%   0.046%   0.005%   0.000%   0.000%   0.000%
   81    1.1  0.5  0.5   0.000%   0.006%   0.000%   0.000%   0.000%   0.000%   0.000%   0.000%
   82    2.1  0.5  0.5   0.004%   0.000%   0.002%   0.000%   0.000%   0.000%   0.000%   0.000%
   83    3.1  0.5  0.5   0.000%   0.000%   0.000%   0.005%   0.000%   0.000%   0.000%   0.000%
   84    4.1  0.5  0.5   0.002%   0.000%   0.001%   0.000%   0.000%   0.000%   0.000%   0.000%
   85    5.1  0.5  0.5   0.000%   0.000%   0.000%   0.000%   0.000%   0.000%   0.000%   0.000%
   86    6.1  0.5  0.5   0.000%   0.000%   0.000%   0.005%   0.000%   0.000%   0.000%   0.000%
   87    7.1  0.5  0.5   0.002%   0.000%   0.001%   0.000%   0.000%   0.000%   0.000%   0.000%
   88    8.1  0.5  0.5   0.000%   0.000%   0.000%   0.000%   0.000%   0.000%   0.000%   0.000%
   89    9.1  0.5  0.5   0.000%   0.000%   0.000%   0.000%   0.000%   0.000%   0.000%   0.000%
   90   10.1  0.5  0.5   0.000%   0.000%   0.000%   0.000%   0.000%   0.000%   0.000%   0.000%
   91   11.1  0.5  0.5   0.000%   0.000%   0.000%   0.000%   0.000%   0.000%   0.000%   0.000%
   92   12.1  0.5  0.5   0.000%   0.000%   0.000%   0.000%   0.000%   0.000%   0.000%   0.000%
   93   13.1  0.5  0.5   0.000%   0.000%   0.000%   0.000%   0.000%   0.000%   0.000%   0.000%
   94   14.1  0.5  0.5   0.000%   0.000%   0.000%   0.000%   0.000%   0.000%   0.000%   0.000%
   95   15.1  0.5  0.5   0.000%   0.000%   0.000%   0.000%   0.000%   0.000%   0.000%   0.000%
   96   16.1  0.5  0.5   0.000%   0.000%   0.000%   0.000%   0.000%   0.000%   0.000%   0.000%
   97   17.1  0.5  0.5   0.000%   0.000%   0.000%   0.000%   0.000%   5.262%   0.000%   1.503%
   98   18.1  0.5  0.5   0.000%   0.000%   0.000%   0.000%   0.007%   0.018%   6.731%   0.006%
   99   19.1  0.5  0.5   0.000%   0.000%   0.000%   0.000%   0.000%   4.863%   0.024%   1.879%
  100   20.1  0.5  0.5   0.000%   0.122%   0.000%  11.206%  35.361%   0.000%   0.288%   0.000%
  101   21.1  0.5  0.5   0.000%   0.101%   0.000%   8.843%  35.556%   0.000%   0.097%   0.000%
  102   22.1  0.5  0.5   0.000%  59.526%   0.000%   0.010%   0.347%   0.000%  35.219%   0.000%
  103   23.1  0.5  0.5  18.104%   0.000%  41.426%   0.000%   0.000%   7.967%   0.000%  27.840%
  104   24.1  0.5  0.5  21.586%   0.000%  37.954%   0.000%   0.000%  10.003%   0.000%  25.797%
  105    1.1  0.5 -0.5   0.006%   0.000%   0.000%   0.000%   0.000%   0.000%   0.000%   0.000%
  106    2.1  0.5 -0.5   0.000%   0.004%   0.000%   0.002%   0.000%   0.000%   0.000%   0.000%
  107    3.1  0.5 -0.5   0.000%   0.000%   0.005%   0.000%   0.000%   0.000%   0.000%   0.000%
  108    4.1  0.5 -0.5   0.000%   0.002%   0.000%   0.001%   0.000%   0.000%   0.000%   0.000%
  109    5.1  0.5 -0.5   0.000%   0.000%   0.000%   0.000%   0.000%   0.000%   0.000%   0.000%
  110    6.1  0.5 -0.5   0.000%   0.000%   0.005%   0.000%   0.000%   0.000%   0.000%   0.000%
  111    7.1  0.5 -0.5   0.000%   0.002%   0.000%   0.001%   0.000%   0.000%   0.000%   0.000%
  112    8.1  0.5 -0.5   0.000%   0.000%   0.000%   0.000%   0.000%   0.000%   0.000%   0.000%
  113    9.1  0.5 -0.5   0.000%   0.000%   0.000%   0.000%   0.000%   0.000%   0.000%   0.000%
  114   10.1  0.5 -0.5   0.000%   0.000%   0.000%   0.000%   0.000%   0.000%   0.000%   0.000%
  115   11.1  0.5 -0.5   0.000%   0.000%   0.000%   0.000%   0.000%   0.000%   0.000%   0.000%
  116   12.1  0.5 -0.5   0.000%   0.000%   0.000%   0.000%   0.000%   0.000%   0.000%   0.000%
  117   13.1  0.5 -0.5   0.000%   0.000%   0.000%   0.000%   0.000%   0.000%   0.000%   0.000%
  118   14.1  0.5 -0.5   0.000%   0.000%   0.000%   0.000%   0.000%   0.000%   0.000%   0.000%
  119   15.1  0.5 -0.5   0.000%   0.000%   0.000%   0.000%   0.000%   0.000%   0.000%   0.000%
  120   16.1  0.5 -0.5   0.000%   0.000%   0.000%   0.000%   0.000%   0.000%   0.000%   0.000%
  121   17.1  0.5 -0.5   0.000%   0.000%   0.000%   0.000%   5.262%   0.000%   1.503%   0.000%
  122   18.1  0.5 -0.5   0.000%   0.000%   0.000%   0.000%   0.018%   0.007%   0.006%   6.731%
  123   19.1  0.5 -0.5   0.000%   0.000%   0.000%   0.000%   4.863%   0.000%   1.879%   0.024%
  124   20.1  0.5 -0.5   0.122%   0.000%  11.206%   0.000%   0.000%  35.361%   0.000%   0.288%
  125   21.1  0.5 -0.5   0.101%   0.000%   8.843%   0.000%   0.000%  35.556%   0.000%   0.097%
  126   22.1  0.5 -0.5  59.526%   0.000%   0.010%   0.000%   0.000%   0.347%   0.000%  35.219%
  127   23.1  0.5 -0.5   0.000%  18.104%   0.000%  41.426%   7.967%   0.000%  27.840%   0.000%
  128   24.1  0.5 -0.5   0.000%  21.586%   0.000%  37.954%  10.003%   0.000%  25.797%   0.000%


 Property matrices transformed in SO basis (not sym. adapted)
 ============================================================

 No matrix element <i|DMX|i> larger than 5E-7
 No matrix element <i|DMX|1> larger than 5E-7

 No matrix element <i|DMY|i> larger than 5E-7
 No matrix element <i|DMY|1> larger than 5E-7

 No matrix element <i|DMZ|i> larger than 5E-7
 No matrix element <i|DMZ|1> larger than 5E-7


 **********************************************************************************************************************************
 DATASETS  * FILE   NREC   LENGTH (MB)   RECORD NAMES
              1      24      163.76       500      610      700      900      950      970     1000      129      960     1700   
                                          VAR    BASINP    GEOM    SYMINP    ZMAT    AOBASIS   BASIS     P2S    ABASIS    OPER   
                                         1101     1401     1411     1412     1650     1100     1400     1410     1200     1210   
                                          SR      EKINR    POTR     PVPR    MOLCAS      S      EKIN      POT      H0       H01  
                                         1080     1600     1380     1700(1)
                                         AOSYM     SMH     JKOP     OPER   

              2       7     1418.87       700     1000      520     2100     2140     5101     5102   
                                         GEOM     BASIS   MCVARS     RHF     MCSCF    MRCI     MRCI   

 PROGRAMS   *        TOTAL        CI     LSINT        CI        CI     MULTI   RHF-SCF       INT
 CPU TIMES  *     76077.94  66706.33      5.51   6858.59   2501.07      4.65      0.71      0.85
 REAL TIME  *     78972.28 SEC
 DISK USED  *         1.42 GB (local),       14.54 GB (total)
 SF USED    *         8.24 GB
 GA USED    *         0.00 MB       (max)       0.00 MB       (current)
 **********************************************************************************************************************************

 CI/cc-pWCVTZ-DK energy=  -1392.482662837299

              CI              CI           MULTI         RHF-SCF
  -1392.40816292  -1392.42281800  -1391.75826530  -1391.87897316
 **********************************************************************************************************************************
 Molpro calculation terminated
