
 Working directory              : /wrk/irikura/molpro.QVM2Kz64vQ/
 Global scratch directory       : /wrk/irikura/molpro.QVM2Kz64vQ/
 Wavefunction directory         : /home/irikura/wfu/
 Main file repository           : /wrk/irikura/molpro.QVM2Kz64vQ/

 id        : nistki

 Nodes            nprocs
 pn125343.nist.gov   10
 GA implementation: MPI file
 GA implementation (serial work in mppx): MPI file

 Using customized tuning parameters: mindgm=1; mindgv=20; mindgc=4; mindgr=1; noblas=0; minvec=7
 default implementation of scratch files=sf  


 Variables initialized (1025), CPU time= 0.00 sec
 ***,Co atom
                                                                                 ! 4F + 4F + 4P + 4P  + 2F + 2G + 2D + 2P
 memory,2000,M;
 
 gprint,orbitals,civector
 
 symmetry,xyz
 geometry={Co}
 
 basis=cc-pwCV5Z-DK
 
 set,dkho=101
 
 {rhf,so-sci;wf,nelec=27,sym=1, spin=3}
 
                                                                                 ! weights to avoid skipping terms
 {multi
     closed,2,3
     wf,nelec=27,sym=1,spin=3; state,20;
       weight,1,1,1,1,1,1,1, 5,5,5, 5,5,5,5,5,5,5, 1,1,1
     wf,nelec=27,sym=1,spin=1; state,24;
     expec2,lxx,lyy,lzz;
  }
 table, energy, ll
 title, Energies and LL values
 
 {ci;wf,sym=1,spin=3; state,20;save,5101.2}
 hlsdiag = energd4
 {ci;option,nstati=27;wf,sym=1,spin=1;state,24;save,5102.2}
 hlsdiag(21) = energd4
 
 table, hlsdiag
 
                                                                                 !compute and diagonalize SO matrix
 lsint
 {ci;hlsmat,ls,5101.2,5102.2;print,vls=0,hls=0}
 
 Commands initialized (840), CPU time= 0.01 sec, 684 directives.
 Default parameters read. Elapsed time= 0.09 sec

 Checking input...
 Passed
1


                                         ***  PROGRAM SYSTEM MOLPRO  ***
                                       Copyright, TTI GmbH Stuttgart, 2015
                                    Version 2022.3 linked Wed Nov 30 06:40:34 2022


 **********************************************************************************************************************************
 LABEL *   Co ato                                                                        
  64 bit mpp version                                                                     DATE: 06-Feb-24          TIME: 16:55:26  
 **********************************************************************************************************************************

 SHA1:             e31ec9a5ea85254ab76f59d122cbdd51c71cf98b
 **********************************************************************************************************************************

 Memory per process:      2000 MW
 Total memory per node:  20000 MW

 GA preallocation disabled
 GA check disabled

 Variable memory set to 2000.0 MW


 ZSYMEL=XYZ

 SETTING BASIS          =    CC-PWCV5Z-DK
 SETTING DKHO           =       101.00000000                                  


 Recomputing integrals since basis changed


 Using spherical harmonics

 Library entry CO     S cc-pwCV5Z-DK         selected for orbital group  1
 Library entry CO     P cc-pwCV5Z-DK         selected for orbital group  1
 Library entry CO     D cc-pwCV5Z-DK         selected for orbital group  1
 Library entry CO     F cc-pwCV5Z-DK         selected for orbital group  1
 Library entry CO     G cc-pwCV5Z-DK         selected for orbital group  1
 Library entry CO     H cc-pwCV5Z-DK         selected for orbital group  1
 Library entry CO     I cc-pwCV5Z-DK         selected for orbital group  1


 PROGRAM * SEWARD (Integral evaluation for generally contracted gaussian basis sets)     Author: Roland Lindh, 1990

 Geometry written to block  1 of record 700

 Orientation using atomic masses  
 Molecule type: Atom
 User-specified symmetry elements: XYZ
 Symmetry elements: XYZ
 Rotational constants:       0.0000000      0.0000000      0.0000000 GHz  (calculated with average atomic masses)

 Point group  Ci  



 ATOMIC COORDINATES

 NR  ATOM    CHARGE       X              Y              Z

   1  CO     27.00    0.000000000    0.000000000    0.000000000

 NUCLEAR CHARGE:                   27
 NUMBER OF PRIMITIVE AOS:         409
 NUMBER OF SYMMETRY AOS:          296
 NUMBER OF CONTRACTIONS:          211   (  113Ag  +   98Au  )
 NUMBER OF INNER CORE ORBITALS:     5   (    2Ag  +    3Au  )
 NUMBER OF OUTER CORE ORBITALS:     4   (    1Ag  +    3Au  )
 NUMBER OF VALENCE ORBITALS:        6   (    6Ag  +    0Au  )


 NUCLEAR REPULSION ENERGY    0.00000000

 One-electron integrals computed with SEWARD

 eXact-2-Component (X2C) method activated

 Computing Douglas-Kroll / X2C integrals

 AO integral compression algorithm  1   Integral accuracy      1.0D-11

     187.433 MB (compressed) written to integral file ( 12.2%)

     Node minimum: 7.864 MB, node maximum: 29.098 MB


 NUMBER OF SORTED TWO-ELECTRON INTEGRALS:   12627105.     BUFFER LENGTH:  32768
 NUMBER OF SEGMENTS:   1  SEGMENT LENGTH:   12627105      RECORD LENGTH: 524288

 Memory used in sort:      13.18 MW

 SORT1 READ   191636194. AND WROTE     2035231. INTEGRALS IN      6 RECORDS. CPU TIME:     0.74 SEC, REAL TIME:     0.78 SEC
 SORT2 READ    20393719. AND WROTE   126250860. INTEGRALS IN    660 RECORDS. CPU TIME:     0.19 SEC, REAL TIME:     0.21 SEC

 Node minimum:    12618073.  Node maximum:    12647559. integrals

 OPERATOR DM      FOR CENTER  0  COORDINATES:    0.000000    0.000000    0.000000

 EXTRA SYMMETRY OF AOS IN SYMMETRY 1:   1 1 1 1 1 1 1 1 1 1   1 2 3 4 5 6 2 3 4 5   6 2 3 4 5 6 2 3 4 5   6 2 3 4 5 6 2 3 4 5
                                        6 2 3 4 5 6 2 3 4 5   6 7 8 9101112131415   7 8 9101112131415 7   8 9101112131415 7 8
                                        9101112131415161718  19202122232425262728  16171819202122232425  262728
 EXTRA SYMMETRY OF AOS IN SYMMETRY 2:   1 2 3 1 2 3 1 2 3 1   2 3 1 2 3 1 2 3 1 2   3 1 2 3 1 2 3 1 2 3   4 5 6 7 8 910 4 5 6
                                        7 8 910 4 5 6 7 8 9  10 4 5 6 7 8 910 4 5   6 7 8 9101112131415  16171819202111121314
                                       15161718192021111213  1415161718192021

 Eigenvalues of metric

         1 0.325E-04 0.425E-03 0.603E-02 0.900E-02 0.900E-02 0.900E-02 0.900E-02 0.900E-02
         2 0.653E-04 0.653E-04 0.653E-04 0.192E-03 0.192E-03 0.192E-03 0.512E-01 0.512E-01


 **********************************************************************************************************************************
 DATASETS  * FILE   NREC   LENGTH (MB)   RECORD NAMES
              1      22       30.40       500      610      700      900      950      970     1000      129      960     1700   
                                          VAR    BASINP    GEOM    SYMINP    ZMAT    AOBASIS   BASIS     P2S    ABASIS    OPER   
                                         1101     1401     1411     1412     1650     1100     1400     1410     1200     1210   
                                          SR      EKINR    POTR     PVPR    MOLCAS      S      EKIN      POT      H0       H01  
                                         1080     1600   
                                         AOSYM     SMH  

 PROGRAMS   *        TOTAL       INT
 CPU TIMES  *         4.55      4.38
 REAL TIME  *         5.48 SEC
 DISK USED  *        30.74 MB (local),      706.51 MB (total)
 GA USED    *         0.00 MB       (max)       0.00 MB       (current)
 **********************************************************************************************************************************


 Program * Restricted Hartree-Fock

 Orbital guess generated from atomic densities. Full valence occupancy:    9   6

 Initial alpha occupancy:   9   6
 Initial beta  occupancy:   6   6
 
 SO-SCI SOLVER WITH NELEC=27 SYM=1 MS2=3 THRE=1.0D-08 THRG=3.2D-06
 
 Authors: D.A. Kreplin, H.-J. Werner (2022)
 
 Number of closed-shell orbitals:                12   (    6    6)
 Number of singly occupied active orbitals:       3   (    3    0)
 Number of virtual orbitals:                    196   (  104   92)
 
 ITER.  MIC  NCI          ENERGY    ENERGY CHANGE          GRAD      ORB GRAD        CI RES  NQN        STEP      TIME
    1    1    0   -1391.68224254   -1391.68224254    1.16094457    1.16094457    0.00000000    0    0.30E+00      0.23
    2    1    0   -1391.67578176       0.00646077    1.30226399    1.30226399    0.00000000    0    0.24E+00      0.44
    3    1    0   -1391.72105821      -0.04527645    1.15547109    1.15547109    0.00000000    0    0.21E+00      0.66
    4    1    0   -1391.72186226      -0.00080405    1.06895758    1.06895758    0.00000000    0    0.23E+00      0.88
    5    1    0   -1391.71643626       0.00542599    1.12627570    1.12627570    0.00000000    0    0.21E+00      1.10
    6    2    0   -1391.73546260      -0.01902634    1.00294838    1.00294838    0.00000000    1    0.94E-01      1.31
    7    2    0   -1391.79895639      -0.06349379    0.18421896    0.18421896    0.00000000    2    0.37E+00      1.54
    8    2    0   -1391.80586431      -0.00690793    0.16343437    0.16343437    0.00000000    2    0.37E+00      1.87
    9    2    0   -1391.81025688      -0.00439257    0.16933446    0.16933446    0.00000000    2    0.36E+00      2.14
   10    2    0   -1391.81209648      -0.00183959    0.15047224    0.15047224    0.00000000    3    0.43E+00      2.35
   11    2    0   -1391.81121960       0.00087687    0.18228757    0.18228757    0.00000000    0    0.42E-01      2.56
   12    2    0   -1391.81372297      -0.00250337    0.03749055    0.03749055    0.00000000    1    0.31E-01      2.77
   13    2    0   -1391.81401767      -0.00029470    0.03532525    0.03532525    0.00000000    2    0.31E-01      2.98
   14    2    0   -1391.81416108      -0.00014341    0.00912231    0.00912231    0.00000000    3    0.37E-02      3.18
   15    2    0   -1391.81416857      -0.00000749    0.00098912    0.00098912    0.00000000    4    0.50E-03      3.39
   16    2    0   -1391.81416868      -0.00000010    0.00015839    0.00015839    0.00000000    5    0.19E-03      3.60
   17    2    0   -1391.81416868      -0.00000000    0.00005501    0.00005501    0.00000000    6    0.59E-04      3.82
   18    2    0   -1391.81416868      -0.00000000    0.00001600    0.00001600    0.00000000    7    0.12E-04      4.02

 CONVERGENCE REACHED!  Final gradient:     0.00000250 ( 0.25E-05)
                       Final energy:   -1391.81416868
 

 Final alpha occupancy:   9   6
 Final beta  occupancy:   6   6

 !RHF STATE 1.1 Energy              -1391.814168680489
  RHF One-electron energy           -1932.555420138855
  RHF Two-electron energy             540.741251458366
  RHF Kinetic energy                 1453.507015117000
  RHF Nuclear energy                    0.000000000000
  RHF Virial quotient                  -0.957555866057

 !RHF STATE 1.1 Dipole moment           0.00000000     0.00000000     0.00000000
 Dipole moment /Debye                   0.00000000     0.00000000     0.00000000

 ELECTRON ORBITALS
 =================

  Orbital  Occupation    Energy    Cen Mu Typ  Coefficients
    1.1     2.00000  -285.57323     1  1  s    0.95454    1  2  s   -0.25587
    2.1     2.00000   -35.23785     1  2  s    1.01605
    3.1     2.00000    -4.40328     1  3  s    0.98493
    4.1     2.00000    -0.40447     1  1  d2- -0.28671    1  1  d1+  0.56512    1  1  d2+  0.76222
    5.1     2.00000    -0.40447     1  1  d2-  0.76157    1  1  d2+  0.28607    1  1  d1- -0.57487
    6.1     2.00000    -0.40447     1  1  d0   0.99396
    7.1     1.00000    -0.48249     1  1  d1+  0.78873    1  1  d2+ -0.56014
    8.1     1.00000    -0.48249     1  1  d2-  0.56666    1  1  d1-  0.78401
    9.1     1.00000    -0.23835     1  4  s    0.98364
    1.2     2.00000   -30.01128     1  1  px   0.98781
    2.2     2.00000   -30.01128     1  1  py   0.98856
    3.2     2.00000   -30.01128     1  1  pz   0.99910
    4.2     2.00000    -2.82440     1  2  pz   0.99948
    5.2     2.00000    -2.82440     1  2  px   0.96634    1  2  py  -0.25574
    6.2     2.00000    -2.82440     1  2  px   0.25566    1  2  py   0.96624


 HOMO      9.1    -0.238355 =      -6.4860eV
 LUMO      7.2     0.039552 =       1.0763eV
 LUMO-HOMO         0.277907 =       7.5622eV

 Orbitals saved in record  2100.2


 **********************************************************************************************************************************
 DATASETS  * FILE   NREC   LENGTH (MB)   RECORD NAMES
              1      23       32.29       500      610      700      900      950      970     1000      129      960     1700   
                                          VAR    BASINP    GEOM    SYMINP    ZMAT    AOBASIS   BASIS     P2S    ABASIS    OPER   
                                         1101     1401     1411     1412     1650     1100     1400     1410     1200     1210   
                                          SR      EKINR    POTR     PVPR    MOLCAS      S      EKIN      POT      H0       H01  
                                         1080     1600     1380   
                                         AOSYM     SMH     JKOP   

              2       4        0.99       700     1000      520     2100   
                                         GEOM     BASIS   MCVARS     RHF  

 PROGRAMS   *        TOTAL   RHF-SCF       INT
 CPU TIMES  *         8.53      3.98      4.38
 REAL TIME  *         9.78 SEC
 DISK USED  *        33.36 MB (local),      732.73 MB (total)
 SF USED    *         8.15 MB
 GA USED    *         0.00 MB       (max)       0.00 MB       (current)
 **********************************************************************************************************************************

 PROGRAM * MULTI (Direct Multiconfiguration SCF)       Authors: P.J. Knowles, H.-J. Werner (1984)
                                                                D.A. Kreplin, P.J. Knowles, H.-J. Werner (2019)

 Number of closed-shell orbitals:   5 (    2    3)
 Number of active  orbitals:       10 (    7    3)
 Number of external orbitals:     196 (  104   92)

 State symmetry 1

 Number of active electrons:  17    Spin symmetry=Quartet   Space symmetry=1
 Number of states:            20
 Number of CSFs:              56   (56 determinants, 120 intermediate states)

 State symmetry 2

 Number of active electrons:  17    Spin symmetry=Doublet   Space symmetry=1
 Number of states:            24
 Number of CSFs:             175   (231 determinants, 450 intermediate states)

 Molecular orbitals read from record     2100.2  Type=RHF/CANONICAL (state 1.1)
 *** IN SYMMETRY 1 ORBITAL  2 SYMMETRY CONTAMINATION OF 0.234D-03 HAS BEEN REMOVED
 *** IN SYMMETRY 1 ORBITAL  3 SYMMETRY CONTAMINATION OF 0.275D-02 HAS BEEN REMOVED
 *** IN SYMMETRY 1 ORBITAL  4 SYMMETRY CONTAMINATION OF 0.575D+00 HAS BEEN REMOVED
 *** IN SYMMETRY 1 ORBITAL  5 SYMMETRY CONTAMINATION OF 0.557D+00 HAS BEEN REMOVED
 *** IN SYMMETRY 1 ORBITAL  6 SYMMETRY CONTAMINATION OF 0.151D+00 HAS BEEN REMOVED
 *** IN SYMMETRY 1 ORBITAL  7 SYMMETRY CONTAMINATION OF 0.539D+00 HAS BEEN REMOVED
 *** IN SYMMETRY 1 ORBITAL  8 SYMMETRY CONTAMINATION OF 0.541D+00 HAS BEEN REMOVED
 *** IN SYMMETRY 1 ORBITAL  9 SYMMETRY CONTAMINATION OF 0.367D-02 HAS BEEN REMOVED

 EXTRA SYMMETRY OF MOS IN SYMMETRY 1:   1 1 1 5 3 2 4 6 1 1   6 4 5 3 2 1 6 4 5 3   2 1 4 6 5 3 2 11415  11 912 81013 7 4 6 5
                                        3 21411 915 8121013   7 1 4 6 5 3 21411 9  15 8121013 719241820  232625172116282722 4
                                        6 5 3 2 11411 915 8  121013 7192418202326  25172116282722 4 6 3   5 2 1
 *** IN SYMMETRY 2 ORBITAL  1 SYMMETRY CONTAMINATION OF 0.161D+00 HAS BEEN REMOVED
 *** IN SYMMETRY 2 ORBITAL  2 SYMMETRY CONTAMINATION OF 0.138D+00 HAS BEEN REMOVED
 *** IN SYMMETRY 2 ORBITAL  3 SYMMETRY CONTAMINATION OF 0.405D-01 HAS BEEN REMOVED
 *** IN SYMMETRY 2 ORBITAL  4 SYMMETRY CONTAMINATION OF 0.361D-01 HAS BEEN REMOVED
 *** IN SYMMETRY 2 ORBITAL  5 SYMMETRY CONTAMINATION OF 0.221D+00 HAS BEEN REMOVED
 *** IN SYMMETRY 2 ORBITAL  6 SYMMETRY CONTAMINATION OF 0.229D+00 HAS BEEN REMOVED
 EXTRA SYMMETRY OF MOS IN SYMMETRY 2:   1 2 3 3 1 2 1 2 3 1   2 3 1 2 3 6 810 9 4   5 7 1 2 3 6 810 9 4   5 7 3 1 21715142113
                                       161211201819 6 810 9   4 5 7 3 1 2 6 810 9   4 5 717151421131611  12201819 1 2 3 6 810
                                        9 4 5 7171514211316  1112201819 1 2 3

 Wavefunction dump at record             2140.2

 Convergence thresholds  0.10E-04 (gradient)  0.10E-05 (energy)

 Weight factors for state symmetry  1:    0.01190   0.01190   0.01190   0.01190   0.01190   0.01190   0.01190   0.05952
                                          0.05952   0.05952   0.05952   0.05952   0.05952   0.05952   0.05952   0.05952
                                          0.05952   0.01190   0.01190   0.01190
 Weight factors for state symmetry  2:    0.01190   0.01190   0.01190   0.01190   0.01190   0.01190   0.01190   0.01190
                                          0.01190   0.01190   0.01190   0.01190   0.01190   0.01190   0.01190   0.01190
                                          0.01190   0.01190   0.01190   0.01190   0.01190   0.01190   0.01190   0.01190
 
 Number of orbital rotations:  1511  ( 23 closed/active, 484 closed/virtual, 0 active/active, 1004 active/virtual )
 Total number of variables:    8175
 
 Second-order MCSCF: L-BFGS accelerated
 
 ITER  MIC  NCI  NEG     ENERGY(VAR)    ENERGY(PROJ) ENERGY CHANGE       GRAD(0)  GRAD(ORB)   GRAD(CI)      STEP      TIME
   1   14   24    0  -1391.75363790   -1391.82405997   -0.07042207    0.39483230 0.00336260 0.00000000  0.39E+00      1.91
   2    8   14    0  -1391.71091418   -1391.77536292   -0.06444874    1.07149551 0.00005102 0.00000000  0.13E+00      3.41
   3    8   14    0  -1391.77756045   -1391.77775726   -0.00019682    0.03776057 0.00000815 0.00000000  0.11E-01      4.90
   4    5   10    0  -1391.77775779   -1391.77775779   -0.00000000    0.00011898 0.00000073 0.00000000  0.57E-04      6.06
   5   20   40    0  -1391.77775779   -1391.77775779    0.00000000    0.00000009 0.00000014 0.00000000  0.11E-06      8.36

 CONVERGENCE REACHED!  Final gradient:    0.00000018 ( 0.18E-06)
                       Final energy:  -1391.77775779
 
 Results for state 1.1 Quartet
 =============================
 !MCSCF STATE 1.1 Quartet Energy             -1391.842694080345
 Nuclear energy                                  0.00000000
 Kinetic energy                               1449.86539891
 One electron energy                         -1921.40896691
 Two electron energy                           529.56627283
 Virial ratio                                    1.95998063
 
 !MCSCF STATE 1.1 Quartet Dipole moment          0.00000000     0.00000000     0.00000000
 Dipole moment /Debye                            0.00000000     0.00000000     0.00000000
 
 Results for state 2.1 Quartet
 =============================
 !MCSCF STATE 2.1 Quartet Energy             -1391.842694080318
 Nuclear energy                                  0.00000000
 Kinetic energy                               1449.86539898
 One electron energy                         -1921.40896700
 Two electron energy                           529.56627292
 Virial ratio                                    1.95998063
 
 !MCSCF STATE 2.1 Quartet Dipole moment          0.00000000     0.00000000     0.00000000
 Dipole moment /Debye                            0.00000000     0.00000000     0.00000000
 
 Results for state 3.1 Quartet
 =============================
 !MCSCF STATE 3.1 Quartet Energy             -1391.842694079795
 Nuclear energy                                  0.00000000
 Kinetic energy                               1449.86539895
 One electron energy                         -1921.40896695
 Two electron energy                           529.56627287
 Virial ratio                                    1.95998063
 
 !MCSCF STATE 3.1 Quartet Dipole moment          0.00000000     0.00000000     0.00000000
 Dipole moment /Debye                            0.00000000     0.00000000     0.00000000
 
 Results for state 4.1 Quartet
 =============================
 !MCSCF STATE 4.1 Quartet Energy             -1391.842694076512
 Nuclear energy                                  0.00000000
 Kinetic energy                               1449.86539866
 One electron energy                         -1921.40896649
 Two electron energy                           529.56627241
 Virial ratio                                    1.95998063
 
 !MCSCF STATE 4.1 Quartet Dipole moment          0.00000000     0.00000000     0.00000000
 Dipole moment /Debye                            0.00000000     0.00000000     0.00000000
 
 Results for state 5.1 Quartet
 =============================
 !MCSCF STATE 5.1 Quartet Energy             -1391.842694076325
 Nuclear energy                                  0.00000000
 Kinetic energy                               1449.86539866
 One electron energy                         -1921.40896648
 Two electron energy                           529.56627240
 Virial ratio                                    1.95998063
 
 !MCSCF STATE 5.1 Quartet Dipole moment          0.00000000     0.00000000     0.00000000
 Dipole moment /Debye                            0.00000000     0.00000000     0.00000000
 
 Results for state 6.1 Quartet
 =============================
 !MCSCF STATE 6.1 Quartet Energy             -1391.842694072526
 Nuclear energy                                  0.00000000
 Kinetic energy                               1449.86539841
 One electron energy                         -1921.40896606
 Two electron energy                           529.56627199
 Virial ratio                                    1.95998063
 
 !MCSCF STATE 6.1 Quartet Dipole moment          0.00000000     0.00000000     0.00000000
 Dipole moment /Debye                            0.00000000     0.00000000     0.00000000
 
 Results for state 7.1 Quartet
 =============================
 !MCSCF STATE 7.1 Quartet Energy             -1391.842694070159
 Nuclear energy                                  0.00000000
 Kinetic energy                               1449.86539825
 One electron energy                         -1921.40896579
 Two electron energy                           529.56627172
 Virial ratio                                    1.95998063
 
 !MCSCF STATE 7.1 Quartet Dipole moment          0.00000000     0.00000000     0.00000000
 Dipole moment /Debye                            0.00000000     0.00000000     0.00000000
 
 Results for state 8.1 Quartet
 =============================
 !MCSCF STATE 8.1 Quartet Energy             -1391.785616212457
 Nuclear energy                                  0.00000000
 Kinetic energy                               1456.60847250
 One electron energy                         -1937.68750610
 Two electron energy                           545.90188988
 Virial ratio                                    1.95549741
 
 !MCSCF STATE 8.1 Quartet Dipole moment          0.00000000     0.00000000     0.00000000
 Dipole moment /Debye                            0.00000000     0.00000000     0.00000000
 
 Results for state 9.1 Quartet
 =============================
 !MCSCF STATE 9.1 Quartet Energy             -1391.785616211871
 Nuclear energy                                  0.00000000
 Kinetic energy                               1456.60847253
 One electron energy                         -1937.68750615
 Two electron energy                           545.90188994
 Virial ratio                                    1.95549741
 
 !MCSCF STATE 9.1 Quartet Dipole moment          0.00000000     0.00000000     0.00000000
 Dipole moment /Debye                            0.00000000     0.00000000     0.00000000
 
 Results for state 10.1 Quartet
 ==============================
 !MCSCF STATE 10.1 Quartet Energy            -1391.785616209437
 Nuclear energy                                  0.00000000
 Kinetic energy                               1456.60847256
 One electron energy                         -1937.68750619
 Two electron energy                           545.90188998
 Virial ratio                                    1.95549741
 
 !MCSCF STATE 10.1 Quartet Dipole moment         0.00000000     0.00000000     0.00000000
 Dipole moment /Debye                            0.00000000     0.00000000     0.00000000
 
 Results for state 11.1 Quartet
 ==============================
 !MCSCF STATE 11.1 Quartet Energy            -1391.785616204208
 Nuclear energy                                  0.00000000
 Kinetic energy                               1456.60847282
 One electron energy                         -1937.68750662
 Two electron energy                           545.90189041
 Virial ratio                                    1.95549741
 
 !MCSCF STATE 11.1 Quartet Dipole moment         0.00000000     0.00000000     0.00000000
 Dipole moment /Debye                            0.00000000     0.00000000     0.00000000
 
 Results for state 12.1 Quartet
 ==============================
 !MCSCF STATE 12.1 Quartet Energy            -1391.785616204130
 Nuclear energy                                  0.00000000
 Kinetic energy                               1456.60847281
 One electron energy                         -1937.68750661
 Two electron energy                           545.90189040
 Virial ratio                                    1.95549741
 
 !MCSCF STATE 12.1 Quartet Dipole moment         0.00000000     0.00000000     0.00000000
 Dipole moment /Debye                            0.00000000     0.00000000     0.00000000
 
 Results for state 13.1 Quartet
 ==============================
 !MCSCF STATE 13.1 Quartet Energy            -1391.785616199303
 Nuclear energy                                  0.00000000
 Kinetic energy                               1456.60847306
 One electron energy                         -1937.68750704
 Two electron energy                           545.90189084
 Virial ratio                                    1.95549741
 
 !MCSCF STATE 13.1 Quartet Dipole moment         0.00000000     0.00000000     0.00000000
 Dipole moment /Debye                            0.00000000     0.00000000     0.00000000
 
 Results for state 14.1 Quartet
 ==============================
 !MCSCF STATE 14.1 Quartet Energy            -1391.785616195868
 Nuclear energy                                  0.00000000
 Kinetic energy                               1456.60847322
 One electron energy                         -1937.68750730
 Two electron energy                           545.90189111
 Virial ratio                                    1.95549740
 
 !MCSCF STATE 14.1 Quartet Dipole moment         0.00000000     0.00000000     0.00000000
 Dipole moment /Debye                            0.00000000     0.00000000     0.00000000
 
 Results for state 15.1 Quartet
 ==============================
 !MCSCF STATE 15.1 Quartet Energy            -1391.770804980664
 Nuclear energy                                  0.00000000
 Kinetic energy                               1449.85800544
 One electron energy                         -1921.39251115
 Two electron energy                           529.62170617
 Virial ratio                                    1.95993594
 
 !MCSCF STATE 15.1 Quartet Dipole moment         0.00000000     0.00000000     0.00000000
 Dipole moment /Debye                            0.00000000     0.00000000     0.00000000
 
 Results for state 16.1 Quartet
 ==============================
 !MCSCF STATE 16.1 Quartet Energy            -1391.770804978687
 Nuclear energy                                  0.00000000
 Kinetic energy                               1449.85800499
 One electron energy                         -1921.39251042
 Two electron energy                           529.62170544
 Virial ratio                                    1.95993594
 
 !MCSCF STATE 16.1 Quartet Dipole moment         0.00000000     0.00000000     0.00000000
 Dipole moment /Debye                            0.00000000     0.00000000     0.00000000
 
 Results for state 17.1 Quartet
 ==============================
 !MCSCF STATE 17.1 Quartet Energy            -1391.770804978613
 Nuclear energy                                  0.00000000
 Kinetic energy                               1449.85800504
 One electron energy                         -1921.39251051
 Two electron energy                           529.62170553
 Virial ratio                                    1.95993594
 
 !MCSCF STATE 17.1 Quartet Dipole moment         0.00000000     0.00000000     0.00000000
 Dipole moment /Debye                            0.00000000     0.00000000     0.00000000
 
 Results for state 18.1 Quartet
 ==============================
 !MCSCF STATE 18.1 Quartet Energy            -1391.714262684755
 Nuclear energy                                  0.00000000
 Kinetic energy                               1456.59992349
 One electron energy                         -1937.66846847
 Two electron energy                           545.95420579
 Virial ratio                                    1.95545403
 
 !MCSCF STATE 18.1 Quartet Dipole moment         0.00000000     0.00000000     0.00000000
 Dipole moment /Debye                            0.00000000     0.00000000     0.00000000
 
 Results for state 19.1 Quartet
 ==============================
 !MCSCF STATE 19.1 Quartet Energy            -1391.714262674182
 Nuclear energy                                  0.00000000
 Kinetic energy                               1456.59992388
 One electron energy                         -1937.66846911
 Two electron energy                           545.95420644
 Virial ratio                                    1.95545403
 
 !MCSCF STATE 19.1 Quartet Dipole moment         0.00000000     0.00000000     0.00000000
 Dipole moment /Debye                            0.00000000     0.00000000     0.00000000
 
 Results for state 20.1 Quartet
 ==============================
 !MCSCF STATE 20.1 Quartet Energy            -1391.714262672283
 Nuclear energy                                  0.00000000
 Kinetic energy                               1456.59992394
 One electron energy                         -1937.66846920
 Two electron energy                           545.95420653
 Virial ratio                                    1.95545403
 
 !MCSCF STATE 20.1 Quartet Dipole moment         0.00000000     0.00000000     0.00000000
 Dipole moment /Debye                            0.00000000     0.00000000     0.00000000
 
 Results for state 1.1 Doublet
 =============================
 !MCSCF STATE 1.1 Doublet Energy             -1391.766107778363
 Nuclear energy                                  0.00000000
 Kinetic energy                               1449.87830928
 One electron energy                         -1921.43403330
 Two electron energy                           529.66792552
 Virial ratio                                    1.95991926
 
 !MCSCF STATE 1.1 Doublet Dipole moment          0.00000000     0.00000000     0.00000000
 Dipole moment /Debye                            0.00000000     0.00000000     0.00000000
 
 Results for state 2.1 Doublet
 =============================
 !MCSCF STATE 2.1 Doublet Energy             -1391.766107778303
 Nuclear energy                                  0.00000000
 Kinetic energy                               1449.87830928
 One electron energy                         -1921.43403329
 Two electron energy                           529.66792551
 Virial ratio                                    1.95991926
 
 !MCSCF STATE 2.1 Doublet Dipole moment          0.00000000     0.00000000     0.00000000
 Dipole moment /Debye                            0.00000000     0.00000000     0.00000000
 
 Results for state 3.1 Doublet
 =============================
 !MCSCF STATE 3.1 Doublet Energy             -1391.766107778093
 Nuclear energy                                  0.00000000
 Kinetic energy                               1449.87830930
 One electron energy                         -1921.43403332
 Two electron energy                           529.66792554
 Virial ratio                                    1.95991926
 
 !MCSCF STATE 3.1 Doublet Dipole moment          0.00000000     0.00000000     0.00000000
 Dipole moment /Debye                            0.00000000     0.00000000     0.00000000
 
 Results for state 4.1 Doublet
 =============================
 !MCSCF STATE 4.1 Doublet Energy             -1391.766107776977
 Nuclear energy                                  0.00000000
 Kinetic energy                               1449.87830926
 One electron energy                         -1921.43403326
 Two electron energy                           529.66792549
 Virial ratio                                    1.95991926
 
 !MCSCF STATE 4.1 Doublet Dipole moment          0.00000000     0.00000000     0.00000000
 Dipole moment /Debye                            0.00000000     0.00000000     0.00000000
 
 Results for state 5.1 Doublet
 =============================
 !MCSCF STATE 5.1 Doublet Energy             -1391.766107775483
 Nuclear energy                                  0.00000000
 Kinetic energy                               1449.87830923
 One electron energy                         -1921.43403321
 Two electron energy                           529.66792543
 Virial ratio                                    1.95991926
 
 !MCSCF STATE 5.1 Doublet Dipole moment          0.00000000     0.00000000     0.00000000
 Dipole moment /Debye                            0.00000000     0.00000000     0.00000000
 
 Results for state 6.1 Doublet
 =============================
 !MCSCF STATE 6.1 Doublet Energy             -1391.766107775117
 Nuclear energy                                  0.00000000
 Kinetic energy                               1449.87830923
 One electron energy                         -1921.43403320
 Two electron energy                           529.66792542
 Virial ratio                                    1.95991926
 
 !MCSCF STATE 6.1 Doublet Dipole moment          0.00000000     0.00000000     0.00000000
 Dipole moment /Debye                            0.00000000     0.00000000     0.00000000
 
 Results for state 7.1 Doublet
 =============================
 !MCSCF STATE 7.1 Doublet Energy             -1391.766107774544
 Nuclear energy                                  0.00000000
 Kinetic energy                               1449.87830920
 One electron energy                         -1921.43403316
 Two electron energy                           529.66792538
 Virial ratio                                    1.95991926
 
 !MCSCF STATE 7.1 Doublet Dipole moment          0.00000000     0.00000000     0.00000000
 Dipole moment /Debye                            0.00000000     0.00000000     0.00000000
 
 Results for state 8.1 Doublet
 =============================
 !MCSCF STATE 8.1 Doublet Energy             -1391.766107773428
 Nuclear energy                                  0.00000000
 Kinetic energy                               1449.87830909
 One electron energy                         -1921.43403299
 Two electron energy                           529.66792521
 Virial ratio                                    1.95991926
 
 !MCSCF STATE 8.1 Doublet Dipole moment          0.00000000     0.00000000     0.00000000
 Dipole moment /Debye                            0.00000000     0.00000000     0.00000000
 
 Results for state 9.1 Doublet
 =============================
 !MCSCF STATE 9.1 Doublet Energy             -1391.766107773255
 Nuclear energy                                  0.00000000
 Kinetic energy                               1449.87830910
 One electron energy                         -1921.43403300
 Two electron energy                           529.66792522
 Virial ratio                                    1.95991926
 
 !MCSCF STATE 9.1 Doublet Dipole moment          0.00000000     0.00000000     0.00000000
 Dipole moment /Debye                            0.00000000     0.00000000     0.00000000
 
 Results for state 10.1 Doublet
 ==============================
 !MCSCF STATE 10.1 Doublet Energy            -1391.761917475739
 Nuclear energy                                  0.00000000
 Kinetic energy                               1456.60082692
 One electron energy                         -1937.65348424
 Two electron energy                           545.89156677
 Virial ratio                                    1.95548615
 
 !MCSCF STATE 10.1 Doublet Dipole moment         0.00000000     0.00000000     0.00000000
 Dipole moment /Debye                            0.00000000     0.00000000     0.00000000
 
 Results for state 11.1 Doublet
 ==============================
 !MCSCF STATE 11.1 Doublet Energy            -1391.761917475033
 Nuclear energy                                  0.00000000
 Kinetic energy                               1456.60082696
 One electron energy                         -1937.65348429
 Two electron energy                           545.89156682
 Virial ratio                                    1.95548615
 
 !MCSCF STATE 11.1 Doublet Dipole moment         0.00000000     0.00000000     0.00000000
 Dipole moment /Debye                            0.00000000     0.00000000     0.00000000
 
 Results for state 12.1 Doublet
 ==============================
 !MCSCF STATE 12.1 Doublet Energy            -1391.761917472606
 Nuclear energy                                  0.00000000
 Kinetic energy                               1456.60082698
 One electron energy                         -1937.65348432
 Two electron energy                           545.89156685
 Virial ratio                                    1.95548615
 
 !MCSCF STATE 12.1 Doublet Dipole moment         0.00000000     0.00000000     0.00000000
 Dipole moment /Debye                            0.00000000     0.00000000     0.00000000
 
 Results for state 13.1 Doublet
 ==============================
 !MCSCF STATE 13.1 Doublet Energy            -1391.761917466414
 Nuclear energy                                  0.00000000
 Kinetic energy                               1456.60082724
 One electron energy                         -1937.65348475
 Two electron energy                           545.89156728
 Virial ratio                                    1.95548615
 
 !MCSCF STATE 13.1 Doublet Dipole moment         0.00000000     0.00000000     0.00000000
 Dipole moment /Debye                            0.00000000     0.00000000     0.00000000
 
 Results for state 14.1 Doublet
 ==============================
 !MCSCF STATE 14.1 Doublet Energy            -1391.761917466368
 Nuclear energy                                  0.00000000
 Kinetic energy                               1456.60082723
 One electron energy                         -1937.65348474
 Two electron energy                           545.89156727
 Virial ratio                                    1.95548615
 
 !MCSCF STATE 14.1 Doublet Dipole moment         0.00000000     0.00000000     0.00000000
 Dipole moment /Debye                            0.00000000     0.00000000     0.00000000
 
 Results for state 15.1 Doublet
 ==============================
 !MCSCF STATE 15.1 Doublet Energy            -1391.761917460557
 Nuclear energy                                  0.00000000
 Kinetic energy                               1456.60082748
 One electron energy                         -1937.65348517
 Two electron energy                           545.89156771
 Virial ratio                                    1.95548615
 
 !MCSCF STATE 15.1 Doublet Dipole moment         0.00000000     0.00000000     0.00000000
 Dipole moment /Debye                            0.00000000     0.00000000     0.00000000
 
 Results for state 16.1 Doublet
 ==============================
 !MCSCF STATE 16.1 Doublet Energy            -1391.761917456543
 Nuclear energy                                  0.00000000
 Kinetic energy                               1456.60082764
 One electron energy                         -1937.65348544
 Two electron energy                           545.89156798
 Virial ratio                                    1.95548615
 
 !MCSCF STATE 16.1 Doublet Dipole moment         0.00000000     0.00000000     0.00000000
 Dipole moment /Debye                            0.00000000     0.00000000     0.00000000
 
 Results for state 17.1 Doublet
 ==============================
 !MCSCF STATE 17.1 Doublet Energy            -1391.758113591887
 Nuclear energy                                  0.00000000
 Kinetic energy                               1449.99559303
 One electron energy                         -1921.67337367
 Two electron energy                           529.91526008
 Virial ratio                                    1.95983610
 
 !MCSCF STATE 17.1 Doublet Dipole moment         0.00000000     0.00000000     0.00000000
 Dipole moment /Debye                            0.00000000     0.00000000     0.00000000
 
 Results for state 18.1 Doublet
 ==============================
 !MCSCF STATE 18.1 Doublet Energy            -1391.758113591885
 Nuclear energy                                  0.00000000
 Kinetic energy                               1449.99559304
 One electron energy                         -1921.67337369
 Two electron energy                           529.91526009
 Virial ratio                                    1.95983610
 
 !MCSCF STATE 18.1 Doublet Dipole moment         0.00000000     0.00000000     0.00000000
 Dipole moment /Debye                            0.00000000     0.00000000     0.00000000
 
 Results for state 19.1 Doublet
 ==============================
 !MCSCF STATE 19.1 Doublet Energy            -1391.758113591379
 Nuclear energy                                  0.00000000
 Kinetic energy                               1449.99559297
 One electron energy                         -1921.67337361
 Two electron energy                           529.91526002
 Virial ratio                                    1.95983610
 
 !MCSCF STATE 19.1 Doublet Dipole moment         0.00000000     0.00000000     0.00000000
 Dipole moment /Debye                            0.00000000     0.00000000     0.00000000
 
 Results for state 20.1 Doublet
 ==============================
 !MCSCF STATE 20.1 Doublet Energy            -1391.745726627594
 Nuclear energy                                  0.00000000
 Kinetic energy                               1450.18616666
 One electron energy                         -1922.13694028
 Two electron energy                           530.39121365
 Virial ratio                                    1.95970142
 
 !MCSCF STATE 20.1 Doublet Dipole moment         0.00000000     0.00000000     0.00000000
 Dipole moment /Debye                            0.00000000     0.00000000     0.00000000
 
 Results for state 21.1 Doublet
 ==============================
 !MCSCF STATE 21.1 Doublet Energy            -1391.745726627198
 Nuclear energy                                  0.00000000
 Kinetic energy                               1450.18616666
 One electron energy                         -1922.13694030
 Two electron energy                           530.39121367
 Virial ratio                                    1.95970142
 
 !MCSCF STATE 21.1 Doublet Dipole moment         0.00000000     0.00000000     0.00000000
 Dipole moment /Debye                            0.00000000     0.00000000     0.00000000
 
 Results for state 22.1 Doublet
 ==============================
 !MCSCF STATE 22.1 Doublet Energy            -1391.745726624917
 Nuclear energy                                  0.00000000
 Kinetic energy                               1450.18616669
 One electron energy                         -1922.13694049
 Two electron energy                           530.39121387
 Virial ratio                                    1.95970142
 
 !MCSCF STATE 22.1 Doublet Dipole moment         0.00000000     0.00000000     0.00000000
 Dipole moment /Debye                            0.00000000     0.00000000     0.00000000
 
 Results for state 23.1 Doublet
 ==============================
 !MCSCF STATE 23.1 Doublet Energy            -1391.745726624534
 Nuclear energy                                  0.00000000
 Kinetic energy                               1450.18616669
 One electron energy                         -1922.13694052
 Two electron energy                           530.39121389
 Virial ratio                                    1.95970142
 
 !MCSCF STATE 23.1 Doublet Dipole moment         0.00000000     0.00000000     0.00000000
 Dipole moment /Debye                            0.00000000     0.00000000     0.00000000
 
 Results for state 24.1 Doublet
 ==============================
 !MCSCF STATE 24.1 Doublet Energy            -1391.745726624420
 Nuclear energy                                  0.00000000
 Kinetic energy                               1450.18616668
 One electron energy                         -1922.13694050
 Two electron energy                           530.39121388
 Virial ratio                                    1.95970142
 
 !MCSCF STATE 24.1 Doublet Dipole moment         0.00000000     0.00000000     0.00000000
 Dipole moment /Debye                            0.00000000     0.00000000     0.00000000
 
 State-averaged charge density matrix saved on record 2140.2 (density set 1)
 
 No non-zero expectation values
 
 Expectation values for two-electron operators:
 
 !MCSCF expec      <1.1 Quartet|LXLX|1.1 Quartet>     6.086522922273
 !MCSCF expec      <2.1 Quartet|LXLX|2.1 Quartet>     1.177433172773
 !MCSCF expec      <3.1 Quartet|LXLX|3.1 Quartet>     2.023282260873
 !MCSCF expec      <4.1 Quartet|LXLX|4.1 Quartet>     8.822620221422
 !MCSCF expec      <5.1 Quartet|LXLX|5.1 Quartet>     1.976760215001
 !MCSCF expec      <6.1 Quartet|LXLX|6.1 Quartet>     4.000000000000
 !MCSCF expec      <7.1 Quartet|LXLX|7.1 Quartet>     3.913490520722
 !MCSCF expec      <8.1 Quartet|LXLX|8.1 Quartet>     1.004047132737
 !MCSCF expec      <9.1 Quartet|LXLX|9.1 Quartet>     1.742848385778
 !MCSCF expec    <10.1 Quartet|LXLX|10.1 Quartet>     5.896731080037
 !MCSCF expec    <11.1 Quartet|LXLX|11.1 Quartet>     2.257125509354
 !MCSCF expec    <12.1 Quartet|LXLX|12.1 Quartet>     8.995942232924
 !MCSCF expec    <13.1 Quartet|LXLX|13.1 Quartet>     4.000000000174
 !MCSCF expec    <14.1 Quartet|LXLX|14.1 Quartet>     4.103232127286
 !MCSCF expec    <15.1 Quartet|LXLX|15.1 Quartet>     0.999999996602
 !MCSCF expec    <16.1 Quartet|LXLX|16.1 Quartet>     0.000002281191
 !MCSCF expec    <17.1 Quartet|LXLX|17.1 Quartet>     0.999995549237
 !MCSCF expec    <18.1 Quartet|LXLX|18.1 Quartet>     0.999999998515
 !MCSCF expec    <19.1 Quartet|LXLX|19.1 Quartet>     0.999999999325
 !MCSCF expec    <20.1 Quartet|LXLX|20.1 Quartet>     0.000000001711
 !MCSCF expec      <1.1 Doublet|LXLX|1.1 Doublet>     7.287356777148
 !MCSCF expec      <2.1 Doublet|LXLX|2.1 Doublet>     4.385456152072
 !MCSCF expec      <3.1 Doublet|LXLX|3.1 Doublet>     7.957139654492
 !MCSCF expec      <4.1 Doublet|LXLX|4.1 Doublet>     8.354033528376
 !MCSCF expec      <5.1 Doublet|LXLX|5.1 Doublet>     5.614514500626
 !MCSCF expec      <6.1 Doublet|LXLX|6.1 Doublet>    12.712646859894
 !MCSCF expec      <7.1 Doublet|LXLX|7.1 Doublet>     8.991276833250
 !MCSCF expec      <8.1 Doublet|LXLX|8.1 Doublet>     1.646007998866
 !MCSCF expec      <9.1 Doublet|LXLX|9.1 Doublet>     3.052016214870
 !MCSCF expec    <10.1 Doublet|LXLX|10.1 Doublet>     1.008591161276
 !MCSCF expec    <11.1 Doublet|LXLX|11.1 Doublet>     1.758802834717
 !MCSCF expec    <12.1 Doublet|LXLX|12.1 Doublet>     5.916431395660
 !MCSCF expec    <13.1 Doublet|LXLX|13.1 Doublet>     2.241947667934
 !MCSCF expec    <14.1 Doublet|LXLX|14.1 Doublet>     8.990613506699
 !MCSCF expec    <15.1 Doublet|LXLX|15.1 Doublet>     3.999999999965
 !MCSCF expec    <16.1 Doublet|LXLX|16.1 Doublet>     4.083648814548
 !MCSCF expec    <17.1 Doublet|LXLX|17.1 Doublet>     0.999572096455
 !MCSCF expec    <18.1 Doublet|LXLX|18.1 Doublet>     0.000104806625
 !MCSCF expec    <19.1 Doublet|LXLX|19.1 Doublet>     0.999999989116
 !MCSCF expec    <20.1 Doublet|LXLX|20.1 Doublet>     1.000000000323
 !MCSCF expec    <21.1 Doublet|LXLX|21.1 Doublet>     0.722673409189
 !MCSCF expec    <22.1 Doublet|LXLX|22.1 Doublet>     3.277307287122
 !MCSCF expec    <23.1 Doublet|LXLX|23.1 Doublet>     1.000000456875
 !MCSCF expec    <24.1 Doublet|LXLX|24.1 Doublet>     3.999999978909
 
 !MCSCF expec      <1.1 Quartet|LYLY|1.1 Quartet>     5.912962237528
 !MCSCF expec      <2.1 Quartet|LYLY|2.1 Quartet>     3.048151744790
 !MCSCF expec      <3.1 Quartet|LYLY|3.1 Quartet>     1.115641914822
 !MCSCF expec      <4.1 Quartet|LYLY|4.1 Quartet>     0.951909867237
 !MCSCF expec      <5.1 Quartet|LYLY|5.1 Quartet>     8.884339221423
 !MCSCF expec      <6.1 Quartet|LYLY|6.1 Quartet>     4.000000000000
 !MCSCF expec      <7.1 Quartet|LYLY|7.1 Quartet>     4.087011368460
 !MCSCF expec      <8.1 Quartet|LYLY|8.1 Quartet>     2.586583272441
 !MCSCF expec      <9.1 Quartet|LYLY|9.1 Quartet>     1.287739506587
 !MCSCF expec    <10.1 Quartet|LYLY|10.1 Quartet>     6.102562661840
 !MCSCF expec    <11.1 Quartet|LYLY|11.1 Quartet>     8.712276174752
 !MCSCF expec    <12.1 Quartet|LYLY|12.1 Quartet>     1.413429981797
 !MCSCF expec    <13.1 Quartet|LYLY|13.1 Quartet>     4.000000000050
 !MCSCF expec    <14.1 Quartet|LYLY|14.1 Quartet>     3.897473610116
 !MCSCF expec    <15.1 Quartet|LYLY|15.1 Quartet>     0.999999996107
 !MCSCF expec    <16.1 Quartet|LYLY|16.1 Quartet>     0.999997724443
 !MCSCF expec    <17.1 Quartet|LYLY|17.1 Quartet>     0.000004452383
 !MCSCF expec    <18.1 Quartet|LYLY|18.1 Quartet>     0.999999999979
 !MCSCF expec    <19.1 Quartet|LYLY|19.1 Quartet>     0.000000000682
 !MCSCF expec    <20.1 Quartet|LYLY|20.1 Quartet>     0.999999999368
 !MCSCF expec      <1.1 Doublet|LYLY|1.1 Doublet>     3.996409238467
 !MCSCF expec      <2.1 Doublet|LYLY|2.1 Doublet>     6.769855829274
 !MCSCF expec      <3.1 Doublet|LYLY|3.1 Doublet>     8.010714593981
 !MCSCF expec      <4.1 Doublet|LYLY|4.1 Doublet>     7.581713472351
 !MCSCF expec      <5.1 Doublet|LYLY|5.1 Doublet>    13.230185378313
 !MCSCF expec      <6.1 Doublet|LYLY|6.1 Doublet>     6.003589746718
 !MCSCF expec      <7.1 Doublet|LYLY|7.1 Doublet>     8.927391079542
 !MCSCF expec      <8.1 Doublet|LYLY|8.1 Doublet>     2.418227733083
 !MCSCF expec      <9.1 Doublet|LYLY|9.1 Doublet>     3.063179291626
 !MCSCF expec    <10.1 Doublet|LYLY|10.1 Doublet>     2.625775774112
 !MCSCF expec    <11.1 Doublet|LYLY|11.1 Doublet>     1.275883037957
 !MCSCF expec    <12.1 Doublet|LYLY|12.1 Doublet>     6.083105293891
 !MCSCF expec    <13.1 Doublet|LYLY|13.1 Doublet>     8.723302001733
 !MCSCF expec    <14.1 Doublet|LYLY|14.1 Doublet>     1.375041529610
 !MCSCF expec    <15.1 Doublet|LYLY|15.1 Doublet>     4.000000000151
 !MCSCF expec    <16.1 Doublet|LYLY|16.1 Doublet>     3.916815130998
 !MCSCF expec    <17.1 Doublet|LYLY|17.1 Doublet>     0.000428183362
 !MCSCF expec    <18.1 Doublet|LYLY|18.1 Doublet>     0.999895202374
 !MCSCF expec    <19.1 Doublet|LYLY|19.1 Doublet>     0.999999722397
 !MCSCF expec    <20.1 Doublet|LYLY|20.1 Doublet>     1.000000001115
 !MCSCF expec    <21.1 Doublet|LYLY|21.1 Doublet>     1.305873897072
 !MCSCF expec    <22.1 Doublet|LYLY|22.1 Doublet>     2.694149566080
 !MCSCF expec    <23.1 Doublet|LYLY|23.1 Doublet>     3.999999547634
 !MCSCF expec    <24.1 Doublet|LYLY|24.1 Doublet>     1.000000021046
 
 !MCSCF expec      <1.1 Quartet|LZLZ|1.1 Quartet>     0.000514840199
 !MCSCF expec      <2.1 Quartet|LZLZ|2.1 Quartet>     7.774415082437
 !MCSCF expec      <3.1 Quartet|LZLZ|3.1 Quartet>     8.861075824305
 !MCSCF expec      <4.1 Quartet|LZLZ|4.1 Quartet>     2.225469911341
 !MCSCF expec      <5.1 Quartet|LZLZ|5.1 Quartet>     1.138900563576
 !MCSCF expec      <6.1 Quartet|LZLZ|6.1 Quartet>     4.000000000000
 !MCSCF expec      <7.1 Quartet|LZLZ|7.1 Quartet>     3.999498110819
 !MCSCF expec      <8.1 Quartet|LZLZ|8.1 Quartet>     8.409369594822
 !MCSCF expec      <9.1 Quartet|LZLZ|9.1 Quartet>     8.969412107635
 !MCSCF expec    <10.1 Quartet|LZLZ|10.1 Quartet>     0.000706258123
 !MCSCF expec    <11.1 Quartet|LZLZ|11.1 Quartet>     1.030598315894
 !MCSCF expec    <12.1 Quartet|LZLZ|12.1 Quartet>     1.590627785279
 !MCSCF expec    <13.1 Quartet|LZLZ|13.1 Quartet>     3.999999999776
 !MCSCF expec    <14.1 Quartet|LZLZ|14.1 Quartet>     3.999294262597
 !MCSCF expec    <15.1 Quartet|LZLZ|15.1 Quartet>     0.000000007290
 !MCSCF expec    <16.1 Quartet|LZLZ|16.1 Quartet>     0.999999994366
 !MCSCF expec    <17.1 Quartet|LZLZ|17.1 Quartet>     0.999999998380
 !MCSCF expec    <18.1 Quartet|LZLZ|18.1 Quartet>     0.000000001506
 !MCSCF expec    <19.1 Quartet|LZLZ|19.1 Quartet>     0.999999999993
 !MCSCF expec    <20.1 Quartet|LZLZ|20.1 Quartet>     0.999999998922
 !MCSCF expec      <1.1 Doublet|LZLZ|1.1 Doublet>     8.716233984385
 !MCSCF expec      <2.1 Doublet|LZLZ|2.1 Doublet>     8.844688018654
 !MCSCF expec      <3.1 Doublet|LZLZ|3.1 Doublet>     4.032145751525
 !MCSCF expec      <4.1 Doublet|LZLZ|4.1 Doublet>     4.064252999270
 !MCSCF expec      <5.1 Doublet|LZLZ|5.1 Doublet>     1.155300121059
 !MCSCF expec      <6.1 Doublet|LZLZ|6.1 Doublet>     1.283763393387
 !MCSCF expec      <7.1 Doublet|LZLZ|7.1 Doublet>     2.081332087207
 !MCSCF expec      <8.1 Doublet|LZLZ|8.1 Doublet>    15.935764268051
 !MCSCF expec      <9.1 Doublet|LZLZ|9.1 Doublet>    13.884804493504
 !MCSCF expec    <10.1 Doublet|LZLZ|10.1 Doublet>     8.365633064612
 !MCSCF expec    <11.1 Doublet|LZLZ|11.1 Doublet>     8.965314127326
 !MCSCF expec    <12.1 Doublet|LZLZ|12.1 Doublet>     0.000463310448
 !MCSCF expec    <13.1 Doublet|LZLZ|13.1 Doublet>     1.034750330332
 !MCSCF expec    <14.1 Doublet|LZLZ|14.1 Doublet>     1.634344963691
 !MCSCF expec    <15.1 Doublet|LZLZ|15.1 Doublet>     3.999999999885
 !MCSCF expec    <16.1 Doublet|LZLZ|16.1 Doublet>     3.999536054455
 !MCSCF expec    <17.1 Doublet|LZLZ|17.1 Doublet>     0.999999720186
 !MCSCF expec    <18.1 Doublet|LZLZ|18.1 Doublet>     0.999999991004
 !MCSCF expec    <19.1 Doublet|LZLZ|19.1 Doublet>     0.000000288489
 !MCSCF expec    <20.1 Doublet|LZLZ|20.1 Doublet>     3.999999998569
 !MCSCF expec    <21.1 Doublet|LZLZ|21.1 Doublet>     3.971452693745
 !MCSCF expec    <22.1 Doublet|LZLZ|22.1 Doublet>     0.028543146799
 !MCSCF expec    <23.1 Doublet|LZLZ|23.1 Doublet>     0.999999995494
 !MCSCF expec    <24.1 Doublet|LZLZ|24.1 Doublet>     1.000000000049
 
 !MCSCF expec      <1.1 Quartet|L**2|1.1 Quartet>    12.000000000000
 !MCSCF expec      <2.1 Quartet|L**2|2.1 Quartet>    12.000000000000
 !MCSCF expec      <3.1 Quartet|L**2|3.1 Quartet>    12.000000000000
 !MCSCF expec      <4.1 Quartet|L**2|4.1 Quartet>    12.000000000000
 !MCSCF expec      <5.1 Quartet|L**2|5.1 Quartet>    12.000000000000
 !MCSCF expec      <6.1 Quartet|L**2|6.1 Quartet>    12.000000000000
 !MCSCF expec      <7.1 Quartet|L**2|7.1 Quartet>    12.000000000000
 !MCSCF expec      <8.1 Quartet|L**2|8.1 Quartet>    12.000000000000
 !MCSCF expec      <9.1 Quartet|L**2|9.1 Quartet>    12.000000000000
 !MCSCF expec    <10.1 Quartet|L**2|10.1 Quartet>    12.000000000000
 !MCSCF expec    <11.1 Quartet|L**2|11.1 Quartet>    12.000000000000
 !MCSCF expec    <12.1 Quartet|L**2|12.1 Quartet>    12.000000000000
 !MCSCF expec    <13.1 Quartet|L**2|13.1 Quartet>    12.000000000000
 !MCSCF expec    <14.1 Quartet|L**2|14.1 Quartet>    12.000000000000
 !MCSCF expec    <15.1 Quartet|L**2|15.1 Quartet>     2.000000000000
 !MCSCF expec    <16.1 Quartet|L**2|16.1 Quartet>     2.000000000000
 !MCSCF expec    <17.1 Quartet|L**2|17.1 Quartet>     2.000000000000
 !MCSCF expec    <18.1 Quartet|L**2|18.1 Quartet>     2.000000000000
 !MCSCF expec    <19.1 Quartet|L**2|19.1 Quartet>     2.000000000000
 !MCSCF expec    <20.1 Quartet|L**2|20.1 Quartet>     2.000000000000
 !MCSCF expec      <1.1 Doublet|L**2|1.1 Doublet>    20.000000000000
 !MCSCF expec      <2.1 Doublet|L**2|2.1 Doublet>    20.000000000000
 !MCSCF expec      <3.1 Doublet|L**2|3.1 Doublet>    19.999999999998
 !MCSCF expec      <4.1 Doublet|L**2|4.1 Doublet>    19.999999999998
 !MCSCF expec      <5.1 Doublet|L**2|5.1 Doublet>    19.999999999999
 !MCSCF expec      <6.1 Doublet|L**2|6.1 Doublet>    19.999999999999
 !MCSCF expec      <7.1 Doublet|L**2|7.1 Doublet>    19.999999999999
 !MCSCF expec      <8.1 Doublet|L**2|8.1 Doublet>    20.000000000000
 !MCSCF expec      <9.1 Doublet|L**2|9.1 Doublet>    20.000000000000
 !MCSCF expec    <10.1 Doublet|L**2|10.1 Doublet>    12.000000000000
 !MCSCF expec    <11.1 Doublet|L**2|11.1 Doublet>    12.000000000000
 !MCSCF expec    <12.1 Doublet|L**2|12.1 Doublet>    11.999999999999
 !MCSCF expec    <13.1 Doublet|L**2|13.1 Doublet>    12.000000000000
 !MCSCF expec    <14.1 Doublet|L**2|14.1 Doublet>    12.000000000000
 !MCSCF expec    <15.1 Doublet|L**2|15.1 Doublet>    12.000000000000
 !MCSCF expec    <16.1 Doublet|L**2|16.1 Doublet>    12.000000000000
 !MCSCF expec    <17.1 Doublet|L**2|17.1 Doublet>     2.000000000002
 !MCSCF expec    <18.1 Doublet|L**2|18.1 Doublet>     2.000000000002
 !MCSCF expec    <19.1 Doublet|L**2|19.1 Doublet>     2.000000000002
 !MCSCF expec    <20.1 Doublet|L**2|20.1 Doublet>     6.000000000006
 !MCSCF expec    <21.1 Doublet|L**2|21.1 Doublet>     6.000000000006
 !MCSCF expec    <22.1 Doublet|L**2|22.1 Doublet>     6.000000000001
 !MCSCF expec    <23.1 Doublet|L**2|23.1 Doublet>     6.000000000002
 !MCSCF expec    <24.1 Doublet|L**2|24.1 Doublet>     6.000000000003
 
 EXTRA SYMMETRY OF MOS IN SYMMETRY 1:   1 1 1 5 4 2 3 6 1 1   5 4 6 3 2 1 5 4 6 3   2 1 5 6 4 2 3 111 7   812 914151013 6 5 2
                                        4 311 7 8121415 913  10 1 6 2 5 3 411 7 8  121415 9131027172523  262124192818202216 6
                                        2 3 5 4 111 7 81215  14 91013271725262321  24191820282216 6 2 3   4 5 1
 EXTRA SYMMETRY OF MOS IN SYMMETRY 2:   3 2 1 1 3 2 2 3 1 3   2 1 3 2 1 6 5 410 8   9 7 3 2 1 510 6 4 8   9 7 3 2 11221191314
                                       161117152018 5 610 8   4 7 9 3 2 1 5 6 810   4 7 912211913161417  15112018 3 2 1 5 6 8
                                       10 4 7 9121921131416  1517112018 3 2 1
 
  NATURAL ORBITALS (STATE AVERAGED)
  =================================

  Orbital  Occupation    Energy    Cen Mu Typ  Coefficients
    1.1     2.00000  -285.66897     1  1  s    0.95452    1  2  s   -0.25591
    2.1     2.00000   -35.28849     1  2  s    1.01604
    3.1     1.99985    -4.55694     1  3  s    0.98592
    4.1     1.50821    -0.29615     1  1  d2+  1.00045
    5.1     1.50821    -0.29615     1  1  d1+  1.00045
    6.1     1.50821    -0.29615     1  1  d0   1.00045
    7.1     1.50821    -0.29615     1  1  d2-  1.00045
    8.1     1.50821    -0.29615     1  1  d1-  1.00045
    9.1     1.46104    -0.17174     1  4  s    1.00735
    1.2     2.00000   -30.04705     1  1  pz   0.99873
    2.2     2.00000   -30.04705     1  1  py   0.99873
    3.2     2.00000   -30.04705     1  1  px   0.99873
    4.2     1.99935    -2.98278     1  2  px   0.99939
    5.2     1.99935    -2.98278     1  2  pz   0.99939
    6.2     1.99935    -2.98278     1  2  py   0.99939
 
 Natural orbital dump (state averaged) at molpro section 2140.2 (Orbital set 2)
 
 Transform the CI vectors
 
 CI Coefficients of symmetry 1 (Quartet)
 =======================================

 State:                1               2               3               4               5               6               7
 2a2a22a 222     -0.00000000      0.00000000     -0.00000000      0.00000000     -0.00000000      0.00000000      0.00000000
 222aa2a 222      0.00000000      0.00000000      0.00000000      0.00000000     -0.00000000      0.00000000      0.00000000
 22a2aa2 222     -0.00000322      0.00000314      0.00000395      0.00000722      0.00000491      0.99952475      0.00000000
 2aa22a2 222     -0.01119878      0.00000527     -0.00000680     -0.00002150     -0.00004256     -0.00000004      0.99946201
 22a22aa 222      0.00000000      0.00000000      0.00000000     -0.00000000     -0.00000000     -0.00000000      0.00000000
 2a2aa22 222      0.89394532      0.00087454      0.00067973     -0.00001112     -0.00004498      0.00000287      0.01001648
 2a22a2a 222     -0.00000001     -0.00000000     -0.00000000      0.00000000      0.00000000     -0.00000000     -0.00000000
 22aa2a2 222     -0.44697265     -0.00043727     -0.00033986      0.00000556      0.00002249     -0.00000144     -0.00500824
 222aaa2 222     -0.00084273      0.86466059     -0.00028695      0.22715861      0.00019401     -0.00000436     -0.00000911
 2aa222a 222      0.00000000     -0.00000000      0.00000000      0.00000001      0.00000000     -0.00000000      0.00000000
 2aaa222 222      0.00043600     -0.43611046      0.00013907      0.78041454      0.00062902     -0.00000427      0.00002400
 222a2aa 222      0.00000000     -0.00000000      0.00000000     -0.00000000      0.00000000     -0.00000000      0.00000000
 22aa22a 222      0.00000000     -0.00000000      0.00000000     -0.00000000     -0.00000000      0.00000000      0.00000000
 2aa2a22 222      0.00003214     -0.00002058     -0.08330274      0.00050841     -0.62664204      0.00000340     -0.00002688
 2a22aa2 222      0.00023483     -0.24742351      0.00008538     -0.58172259     -0.00047518      0.00000498     -0.00000860
 22aaa22 222     -0.00056541      0.00024966      0.77274942     -0.00036021      0.44955270     -0.00000526      0.00001806
 2a222aa 222     -0.00000000      0.00000000      0.00000001      0.00000000     -0.00000000     -0.00000000     -0.00000000
 2222aaa 222     -0.00000000      0.00000001     -0.00000000      0.00000000      0.00000000     -0.00000000     -0.00000000
 22a2a2a 222      0.00000000     -0.00000000     -0.00000001      0.00000000     -0.00000000      0.00000000      0.00000000
 2a2a2a2 222      0.00050974     -0.00021402     -0.62846482     -0.00052037      0.63582324     -0.00000063      0.00002850
 
 Energy:      -1391.84269408  -1391.84269408  -1391.84269408  -1391.84269408  -1391.84269408  -1391.84269407  -1391.84269407

 State:                8               9              10              11              12              13              14
 2a2a22a 222     -0.00000156     -0.00000171     -0.00000300      0.00000556      0.00001416      0.99999913      0.00000427
 222aa2a 222     -0.00000258     -0.00000245      0.01328753      0.00002440      0.00000439     -0.00000423      0.99991085
 22a2aa2 222      0.00000000      0.00000000      0.00000000      0.00000000     -0.00000000      0.00000000     -0.00000000
 2aa22a2 222     -0.00000000      0.00000000     -0.00000000      0.00000000      0.00000000     -0.00000000      0.00000000
 22a22aa 222      0.00001063     -0.00007553      0.89434743     -0.00000934     -0.00000149      0.00000273     -0.01188473
 2a2aa22 222     -0.00000000     -0.00000000      0.00000000      0.00000000      0.00000000      0.00000000      0.00000000
 2a22a2a 222     -0.00000531      0.00003776     -0.44717377      0.00000467      0.00000075     -0.00000137      0.00594236
 22aa2a2 222      0.00000000     -0.00000000      0.00000002      0.00000000     -0.00000000      0.00000000      0.00000001
 222aaa2 222      0.00000001     -0.00000000      0.00000000      0.00000000      0.00000000     -0.00000000     -0.00000000
 2aa222a 222      0.82932743     -0.00005428     -0.00000928      0.00045134      0.33498432     -0.00000345      0.00000078
 2aaa222 222     -0.00000000      0.00000000      0.00000000      0.00000000      0.00000001     -0.00000000     -0.00000000
 222a2aa 222     -0.00000578     -0.03910739      0.00000308      0.63124408     -0.00084254     -0.00000356     -0.00001554
 22aa22a 222     -0.17184718      0.00000369      0.00000105     -0.00081374     -0.60866007      0.00000836      0.00000224
 2aa2a22 222     -0.00000000     -0.00000001      0.00000000      0.00000001     -0.00000000      0.00000000     -0.00000000
 2a22aa2 222      0.00000001     -0.00000000      0.00000000      0.00000000      0.00000001      0.00000000      0.00000000
 22aaa22 222     -0.00000000     -0.00000001     -0.00000000      0.00000000     -0.00000000      0.00000000     -0.00000000
 2a222aa 222      0.00005499      0.73962107      0.00005738     -0.50295020      0.00066137      0.00000405      0.00001332
 2222aaa 222     -0.53167925      0.00004790      0.00000747      0.00095810      0.71924607     -0.00001102     -0.00000466
 22a2a2a 222     -0.00004498     -0.67188506     -0.00006272     -0.59039690      0.00079795      0.00000212      0.00001359
 2a2a2a2 222      0.00000000      0.00000000      0.00000000      0.00000000     -0.00000000      0.00000000     -0.00000000
 
 Energy:      -1391.78561621  -1391.78561621  -1391.78561621  -1391.78561620  -1391.78561620  -1391.78561620  -1391.78561620

 State:               15              16              17              18              19              20
 2a2a22a 222     -0.00000000     -0.00000000      0.00000000     -0.00000000      0.00000000     -0.00000000
 222aa2a 222     -0.00000001      0.00000000      0.00000000      0.00000001     -0.00000000     -0.00000000
 22a2aa2 222     -0.00000000     -0.00000000      0.00000000      0.00000000      0.00000000     -0.00000000
 2aa22a2 222     -0.00000000     -0.00000000     -0.00000000      0.00000000      0.00000000     -0.00000000
 22a22aa 222     -0.00019673      0.00000001      0.00000001      0.44685032      0.00000205     -0.00001722
 2a2aa22 222      0.44668729     -0.00002599     -0.00002791      0.00020128      0.00000000     -0.00000001
 2a22a2a 222     -0.00039341      0.00000002      0.00000002      0.89370054      0.00000410     -0.00003444
 22aa2a2 222      0.89337460     -0.00005199     -0.00005582      0.00040254      0.00000000     -0.00000002
 222aaa2 222      0.00002787     -0.00067382      0.44668676     -0.00000000      0.00020126      0.00000001
 2aa222a 222     -0.00000001      0.00000030     -0.00019671     -0.00000205      0.44685020      0.00001161
 2aaa222 222      0.00002787     -0.00067382      0.44668678     -0.00000000      0.00020126      0.00000001
 222a2aa 222      0.00000002      0.00034070      0.00000051      0.00002982     -0.00002011      0.77396746
 22aa22a 222     -0.00000002      0.00000051     -0.00034070     -0.00000355      0.77396745      0.00002011
 2aa2a22 222      0.00004510      0.77368425      0.00116710     -0.00000001      0.00000001     -0.00034860
 2a22aa2 222      0.00004827     -0.00116710      0.77368424     -0.00000000      0.00034860      0.00000001
 22aaa22 222      0.00002604      0.44668676      0.00067382     -0.00000001      0.00000001     -0.00020127
 2a222aa 222      0.00000001      0.00019672      0.00000030      0.00001722     -0.00001161      0.44685021
 2222aaa 222     -0.00000001      0.00000030     -0.00019671     -0.00000205      0.44685024      0.00001161
 22a2a2a 222      0.00000001      0.00019671      0.00000030      0.00001722     -0.00001161      0.44685021
 2a2a2a2 222      0.00002604      0.44668677      0.00067382     -0.00000001      0.00000001     -0.00020126
 
 Energy:      -1391.77080498  -1391.77080498  -1391.77080498  -1391.71426268  -1391.71426267  -1391.71426267
 
 
 CI Coefficients of symmetry 1 (Doublet)
 =======================================

 State:                1               2               3               4               5               6               7
 2a2a22b 222      0.00000000     -0.00000000      0.00000009     -0.00000000     -0.00000000      0.00000000      0.00000000
 222aa2b 222      0.00000000     -0.00000000     -0.00000000     -0.00000004      0.00000000      0.00000000     -0.00000000
 22a22ab 222      0.00000000      0.00000000      0.00000000      0.00000003     -0.00000000     -0.00000000     -0.00000000
 2aa222b 222     -0.00000000      0.00000010      0.00000000     -0.00000000      0.00000009     -0.00000000     -0.00000000
 2a222ab 222     -0.00000007     -0.00000000      0.00000000      0.00000000     -0.00000000     -0.00000009      0.00000000
 2222aab 222      0.00000000     -0.00000013     -0.00000000      0.00000000      0.00000005     -0.00000000     -0.00000000
 2a20222 222      0.00009871     -0.00006225      0.58369415     -0.00002825     -0.00001652      0.00000107     -0.00131748
 22a2ba2 222      0.00009871     -0.00006225      0.58369368     -0.00002825     -0.00001652      0.00000107     -0.00131749
 2220a22 222      0.00003045      0.00021034      0.00002834      0.58311834     -0.00010456      0.00001012     -0.00000775
 2ba22a2 222      0.00003045      0.00021034      0.00002834      0.58311774     -0.00010456      0.00001012     -0.00000775
 202a222 222      0.00000103     -0.00000779      0.03257638      0.00000662      0.00001135     -0.00000001      0.19094789
 2a2ba22 222      0.00000000      0.00000000      0.00000000      0.00000001     -0.00000000      0.00000000     -0.00000000
 22a2a2b 222      0.00000015      0.00000000     -0.00000000     -0.00000000      0.00000000     -0.00000001      0.00000000
 222a022 222      0.00000103     -0.00000158     -0.01515594      0.00000430     -0.00000029      0.00001234      0.51307106
 222a2ab 222     -0.00000004     -0.00000000      0.00000000      0.00000000      0.00000000      0.00000003     -0.00000000
 2a2b2a2 222      0.49888923      0.00069929     -0.00008391     -0.00002339     -0.00003186     -0.08661332      0.00000068
 22aa22b 222     -0.00000000      0.00000002      0.00000000     -0.00000000     -0.00000006      0.00000000     -0.00000000
 22b2aa2 222     -0.00004847      0.00002437     -0.26363488      0.00001986      0.00001809     -0.00000055      0.16602435
 2aab222 222     -0.00069365      0.49397248      0.00004991     -0.00020029     -0.11128101      0.00003373      0.00000537
 22a2ab2 222     -0.00005024      0.00003788     -0.32005880      0.00000839     -0.00000157     -0.00000053     -0.16470685
 2b2aa22 222      0.00001599     -0.00003541      0.00000337     -0.03267652      0.00002087      0.00000170     -0.00000333
 2a2ab22 222     -0.00001599      0.00003541     -0.00000337      0.03267651     -0.00002087     -0.00000170      0.00000333
 2a22202 222     -0.00002378      0.00001420     -0.15904883      0.00001079      0.00000388      0.00001042      0.44466168
 222baa2 222      0.00062105     -0.44408485     -0.00005420      0.00011766     -0.24327172      0.00008136     -0.00000173
 2a02222 222     -0.00002557      0.00001693     -0.13279797      0.00000333      0.00000438     -0.00001096     -0.44400288
 22baa22 222      0.07638571      0.00010933     -0.00001351     -0.00001125      0.00014258      0.43997947     -0.00000906
 222aab2 222     -0.00013443      0.09814058      0.00002236      0.00004341      0.43564337     -0.00014222     -0.00000307
 22aba22 222     -0.43145621     -0.00060647      0.00007307      0.00002598     -0.00008304     -0.26502457      0.00000629
 22a2202 222     -0.00008382      0.05760533     -0.00000495     -0.00009542     -0.40940198      0.00013290      0.00000421
 2b2a22a 222      0.00000308     -0.00000194      0.01819875     -0.00000088     -0.00000052      0.00000003     -0.00004107
 2a2b22a 222     -0.00000308      0.00000194     -0.01819885      0.00000088      0.00000052     -0.00000003      0.00004107
 222ab2a 222     -0.00000095     -0.00000656     -0.00000088     -0.01818083      0.00000326     -0.00000032      0.00000024
 222ba2a 222      0.00000095      0.00000656      0.00000088      0.01818087     -0.00000326      0.00000032     -0.00000024
 2ab22a2 222     -0.00002908     -0.00007450     -0.00001709     -0.26326019      0.00003420     -0.00000653      0.00000675
 22022a2 222      0.07786494      0.00010718     -0.00001252      0.00000299     -0.00013267     -0.40603621      0.00000804
 2202a22 222     -0.00002146     -0.00002192     -0.00001000     -0.11748074      0.00000806     -0.00000400      0.00000482
 2aba222 222      0.00030381     -0.21454524     -0.00001235      0.00014940      0.39164641     -0.00012634     -0.00000543
 2a2a2b2 222     -0.23372948     -0.00032592      0.00003882      0.00000521      0.00012552      0.38050902     -0.00000719
 2222a02 222      0.00000624     -0.00008325     -0.00000417     -0.17407813      0.00004422     -0.00000106     -0.00000094
 2a22ab2 222     -0.00004191      0.02880266     -0.00000248     -0.00004771     -0.20470111      0.00006645      0.00000210
 2ab2a22 222      0.03893247      0.00005359     -0.00000626      0.00000150     -0.00006634     -0.20301820      0.00000402
 2a22a2b 222     -0.00000000     -0.00000000     -0.00000000     -0.00000002      0.00000000      0.00000000     -0.00000000
 22b22aa 222      0.00000110      0.00000757      0.00000102      0.02099337     -0.00000376      0.00000036     -0.00000028
 22a22ba 222     -0.00000110     -0.00000757     -0.00000102     -0.02099339      0.00000376     -0.00000036      0.00000028
 2aa22b2 222     -0.00000138     -0.00013584     -0.00001125     -0.31985755      0.00007036     -0.00000359      0.00000099
 20222a2 222      0.21016881      0.00029655     -0.00003592     -0.00001650      0.00011428      0.35603007     -0.00000765
 22aab22 222      0.35507050      0.00049713     -0.00005956     -0.00001473     -0.00005954     -0.17495490      0.00000277
 22202a2 222      0.03893250      0.00005359     -0.00000626      0.00000150     -0.00006634     -0.20301820      0.00000402
 22a0222 222     -0.00004191      0.02880267     -0.00000248     -0.00004771     -0.20470106      0.00006645      0.00000210
 22220a2 222     -0.32696630     -0.00045733      0.00005471      0.00001201      0.00008473      0.25302436     -0.00000441
 22a2022 222      0.00044239     -0.31399782     -0.00002634      0.00016335      0.26894912     -0.00008593     -0.00000520
 20a2222 222     -0.00031666      0.22758972      0.00003377     -0.00002022      0.34515390     -0.00011343     -0.00000111
 220a222 222      0.00001322     -0.00000430      0.07553879     -0.00000954     -0.00000792     -0.00000601     -0.35219949
 222a202 222     -0.00001528      0.00001367     -0.09295922     -0.00000139     -0.00000315     -0.00000632     -0.35181921
 222aba2 222     -0.00048663      0.34594427      0.00003184     -0.00016107     -0.19237164      0.00006085      0.00000480
 2b2a2a2 222     -0.26515975     -0.00037337      0.00004510      0.00001819     -0.00009366     -0.29389570      0.00000652
 2baa222 222      0.00038984     -0.27942724     -0.00003757      0.00005090     -0.28036540      0.00009261      0.00000006
 2ab222a 222     -0.00002884      0.02053513      0.00000207     -0.00000833     -0.00462616      0.00000140      0.00000022
 2ba222a 222      0.00002884     -0.02053523     -0.00000207      0.00000833      0.00462607     -0.00000140     -0.00000022
 22aa2b2 222      0.00000440      0.00003036      0.00000409      0.08416589     -0.00001509      0.00000146     -0.00000112
 22ba2a2 222     -0.00000440     -0.00003036     -0.00000409     -0.08416589      0.00001509     -0.00000146      0.00000112
 2a222ba 222     -0.02073954     -0.00002907      0.00000349      0.00000097      0.00000132      0.00360069     -0.00000003
 2b222aa 222      0.02073961      0.00002907     -0.00000349     -0.00000097     -0.00000132     -0.00360060      0.00000003
 2222aba 222      0.00002582     -0.01846122     -0.00000225      0.00000489     -0.01011319      0.00000338     -0.00000007
 2222baa 222     -0.00002582      0.01846135      0.00000225     -0.00000489      0.01011314     -0.00000338      0.00000007
 2a22022 222     -0.00004935      0.00003113     -0.29184697      0.00001413      0.00000826     -0.00000054      0.00065873
 2022a22 222     -0.00001523     -0.00010517     -0.00001417     -0.29155903      0.00005228     -0.00000506      0.00000387
 2aa2b22 222     -0.28803377     -0.00040373      0.00004845      0.00001351      0.00001839      0.05000622     -0.00000039
 2a22ba2 222      0.00040048     -0.28519511     -0.00002882      0.00011564      0.06424813     -0.00001948     -0.00000310
 22b2a2a 222      0.01793622      0.00002521     -0.00000304     -0.00000108      0.00000345      0.01101747     -0.00000026
 22a2b2a 222     -0.01793636     -0.00002521      0.00000304      0.00000108     -0.00000345     -0.01101746      0.00000026
 222a2ba 222     -0.00485543     -0.00000668      0.00000078     -0.00000019      0.00000827      0.02531930     -0.00000050
 222b2aa 222      0.00485547      0.00000668     -0.00000078      0.00000019     -0.00000827     -0.02531934      0.00000050
 2b22aa2 222     -0.00035857      0.25639245      0.00003129     -0.00006793      0.14045298     -0.00004698      0.00000100
 2ba2a22 222      0.24910130      0.00035014     -0.00004219     -0.00001500      0.00004794      0.15301198     -0.00000363
 22ba22a 222     -0.00000523      0.00359211     -0.00000031     -0.00000595     -0.02552917      0.00000829      0.00000026
 22ab22a 222      0.00000523     -0.00359212      0.00000031      0.00000595      0.02552923     -0.00000829     -0.00000026
 2b22a2a 222     -0.00000100      0.00000221     -0.00000021      0.00203763     -0.00000130     -0.00000011      0.00000021
 2a22b2a 222      0.00000100     -0.00000221      0.00000021     -0.00203761      0.00000130      0.00000011     -0.00000021
 22ab2a2 222     -0.00000000     -0.00000000     -0.00000000      0.00000000     -0.00000000     -0.00000000      0.00000000
 202222a 222     -0.00000001     -0.00000014      0.00137960      0.00000000      0.00000029     -0.00000046     -0.01443341
 222202a 222     -0.00000001      0.00000025     -0.00159686     -0.00000014     -0.00000043      0.00000031      0.00565331
 222022a 222     -0.00000008      0.00000035     -0.00065177     -0.00000041     -0.00000041     -0.00000046     -0.02634042
 222220a 222     -0.00000350      0.00000201     -0.02057960      0.00000129      0.00000087      0.00000027      0.01760770
 220222a 222      0.00000361     -0.00000247      0.02144863     -0.00000074     -0.00000032      0.00000035      0.01751283
 
 Energy:      -1391.76610778  -1391.76610778  -1391.76610778  -1391.76610778  -1391.76610778  -1391.76610778  -1391.76610777

 State:                8               9              10              11              12              13              14
 2a2a22b 222     -0.00000000     -0.00000000      0.00000246      0.00000115     -0.00000026      0.00000030      0.00000585
 222aa2b 222      0.00000000      0.00000000      0.00000713      0.00000819      0.00877378      0.00001255      0.00000667
 22a22ab 222     -0.00000004     -0.00000000      0.00006303     -0.00009753      0.72932201      0.00000749      0.00000021
 2aa222b 222      0.00000000     -0.00000000      0.67905183      0.00026867     -0.00005883      0.00280205      0.26618222
 2a222ab 222      0.00000000     -0.00000000     -0.00023291      0.60477131      0.00008507     -0.40768322      0.00427538
 2222aab 222      0.00000000     -0.00000000     -0.42750697     -0.00015800      0.00003667      0.00620671      0.59090736
 2a20222 222      0.00001324     -0.03401167      0.00000000     -0.00000000      0.00000000     -0.00000000      0.00000000
 22a2ba2 222      0.00001324     -0.03401165      0.00000000     -0.00000000     -0.00000000      0.00000000      0.00000000
 2220a22 222     -0.04278364     -0.00001458     -0.00000000     -0.00000000     -0.00000003     -0.00000000     -0.00000000
 2ba22a2 222     -0.04278359     -0.00001458     -0.00000000      0.00000000     -0.00000002     -0.00000000     -0.00000000
 202a222 222     -0.00011087      0.55166552      0.00000000     -0.00000000      0.00000000     -0.00000000      0.00000000
 2a2ba22 222      0.00000003      0.00000000      0.00000224     -0.00000347      0.02592595      0.00000027      0.00000001
 22a2a2b 222     -0.00000000     -0.00000000      0.00021627     -0.54595202     -0.00006792     -0.48361422      0.00509023
[...]
   82    2.1  0.5  0.5   0.000%   0.000%   0.000%   0.000%   0.000%   0.000%   0.000%   0.000%   0.000%   0.000%
   83    3.1  0.5  0.5   0.000%   0.000%   0.000%   0.000%   0.000%   0.000%   0.000%   0.000%   0.000%   0.000%
   84    4.1  0.5  0.5   0.000%   0.000%   0.000%   0.000%   0.000%   0.000%   0.000%   0.000%   0.000%   0.005%
   85    5.1  0.5  0.5   0.000%   0.000%   0.000%   0.000%   0.000%   0.000%   0.000%   0.000%   0.000%   0.004%
   86    6.1  0.5  0.5   0.000%   0.000%   0.000%   0.000%   0.000%   0.000%   0.000%   0.000%   0.003%   0.000%
   87    7.1  0.5  0.5   0.000%   0.000%   0.000%   0.000%   0.000%   0.000%   0.000%   0.000%   0.000%   0.000%
   88    8.1  0.5  0.5   0.004%   2.502%   0.000%   0.000%   0.000%   0.000%   0.000%   0.000%   0.000%   0.000%
   89    9.1  0.5  0.5   0.001%   9.128%   0.000%   0.000%   0.000%   0.000%   0.000%   0.000%   0.000%   0.000%
   90   10.1  0.5  0.5   0.000%   0.010%   0.000%   0.000%   0.000%   0.000%   0.000%   0.000%   0.000%   0.000%
   91   11.1  0.5  0.5   2.003%   0.002%   0.000%   0.000%   0.000%   0.000%   0.000%   0.000%   0.000%   0.000%
   92   12.1  0.5  0.5   9.511%   0.003%   0.000%   0.000%   0.000%   0.000%   0.000%   0.000%   0.000%   0.000%
   93   13.1  0.5  0.5   0.013%  32.962%   0.000%   0.000%   0.000%   0.000%   0.000%   0.000%   0.000%   0.000%
   94   14.1  0.5  0.5   0.515%   0.002%   0.000%   0.000%   0.000%   0.000%   0.000%   0.000%   0.000%   0.000%
   95   15.1  0.5  0.5   8.883%   0.027%   0.000%   0.000%   0.000%   0.000%   0.000%   0.000%   0.000%   0.000%
   96   16.1  0.5  0.5  34.356%   0.013%   0.000%   0.000%   0.000%   0.000%   0.000%   0.000%   0.000%   0.000%
   97   17.1  0.5  0.5   0.000%   0.000%   7.305%   0.024%   0.076%  48.884%  32.759%   0.007%   0.000%   0.000%
   98   18.1  0.5  0.5   0.000%   0.000%   0.039%  23.247%  32.993%   0.008%   0.006%  32.761%   0.000%   0.000%
   99   19.1  0.5  0.5   0.000%   0.000%   0.012%  53.805%   2.426%   0.046%   0.002%  32.763%   0.000%   0.000%
  100   20.1  0.5  0.5   0.000%   0.000%   2.631%   0.000%   0.006%   1.942%   0.000%   0.000%  20.124%   0.000%
  101   21.1  0.5  0.5   0.000%   0.000%   1.946%   0.003%   0.002%   2.629%   0.000%   0.000%  39.603%   0.002%
  102   22.1  0.5  0.5   0.000%   0.000%   3.968%   0.003%   0.000%   0.593%   0.000%   0.000%  27.869%   0.002%
  103   23.1  0.5  0.5   0.000%   0.000%   0.002%   1.040%   3.517%   0.004%   0.000%   0.000%   0.002%   8.657%
  104   24.1  0.5  0.5   0.000%   0.000%   0.000%   1.831%   2.723%   0.008%   0.000%   0.000%   0.001%   3.186%
  105    1.1  0.5 -0.5   0.000%   0.000%   0.000%   0.000%   0.000%   0.000%   0.000%   0.000%   0.000%   0.000%
  106    2.1  0.5 -0.5   0.000%   0.000%   0.000%   0.000%   0.000%   0.000%   0.000%   0.000%   0.000%   0.000%
  107    3.1  0.5 -0.5   0.000%   0.000%   0.000%   0.000%   0.000%   0.000%   0.000%   0.000%   0.000%   0.000%
  108    4.1  0.5 -0.5   0.000%   0.000%   0.000%   0.000%   0.000%   0.000%   0.000%   0.000%   0.005%   0.000%
  109    5.1  0.5 -0.5   0.000%   0.000%   0.000%   0.000%   0.000%   0.000%   0.000%   0.000%   0.004%   0.000%
  110    6.1  0.5 -0.5   0.000%   0.000%   0.000%   0.000%   0.000%   0.000%   0.000%   0.000%   0.000%   0.003%
  111    7.1  0.5 -0.5   0.000%   0.000%   0.000%   0.000%   0.000%   0.000%   0.000%   0.000%   0.000%   0.000%
  112    8.1  0.5 -0.5   2.502%   0.004%   0.000%   0.000%   0.000%   0.000%   0.000%   0.000%   0.000%   0.000%
  113    9.1  0.5 -0.5   9.128%   0.001%   0.000%   0.000%   0.000%   0.000%   0.000%   0.000%   0.000%   0.000%
  114   10.1  0.5 -0.5   0.010%   0.000%   0.000%   0.000%   0.000%   0.000%   0.000%   0.000%   0.000%   0.000%
  115   11.1  0.5 -0.5   0.002%   2.003%   0.000%   0.000%   0.000%   0.000%   0.000%   0.000%   0.000%   0.000%
  116   12.1  0.5 -0.5   0.003%   9.511%   0.000%   0.000%   0.000%   0.000%   0.000%   0.000%   0.000%   0.000%
  117   13.1  0.5 -0.5  32.962%   0.013%   0.000%   0.000%   0.000%   0.000%   0.000%   0.000%   0.000%   0.000%
  118   14.1  0.5 -0.5   0.002%   0.515%   0.000%   0.000%   0.000%   0.000%   0.000%   0.000%   0.000%   0.000%
  119   15.1  0.5 -0.5   0.027%   8.883%   0.000%   0.000%   0.000%   0.000%   0.000%   0.000%   0.000%   0.000%
  120   16.1  0.5 -0.5   0.013%  34.356%   0.000%   0.000%   0.000%   0.000%   0.000%   0.000%   0.000%   0.000%
  121   17.1  0.5 -0.5   0.000%   0.000%   0.024%   7.305%  48.884%   0.076%   0.007%  32.759%   0.000%   0.000%
  122   18.1  0.5 -0.5   0.000%   0.000%  23.247%   0.039%   0.008%  32.993%  32.761%   0.006%   0.000%   0.000%
  123   19.1  0.5 -0.5   0.000%   0.000%  53.805%   0.012%   0.046%   2.426%  32.763%   0.002%   0.000%   0.000%
  124   20.1  0.5 -0.5   0.000%   0.000%   0.000%   2.631%   1.942%   0.006%   0.000%   0.000%   0.000%  20.124%
  125   21.1  0.5 -0.5   0.000%   0.000%   0.003%   1.946%   2.629%   0.002%   0.000%   0.000%   0.002%  39.603%
  126   22.1  0.5 -0.5   0.000%   0.000%   0.003%   3.968%   0.593%   0.000%   0.000%   0.000%   0.002%  27.869%
  127   23.1  0.5 -0.5   0.000%   0.000%   1.040%   0.002%   0.004%   3.517%   0.000%   0.000%   8.657%   0.002%
  128   24.1  0.5 -0.5   0.000%   0.000%   1.831%   0.000%   0.008%   2.723%   0.000%   0.000%   3.186%   0.001%

   Nr   State  S   Sz     121      122      123      124      125      126      127      128

    1    1.1  1.5  1.5   0.001%   0.000%   0.000%   0.014%   0.000%   0.066%   0.000%   0.000%
    2    2.1  1.5  1.5   0.000%   0.000%   0.029%   0.000%   0.007%   0.000%   0.000%   0.000%
    3    3.1  1.5  1.5   0.001%   0.000%   0.000%   0.017%   0.000%   0.069%   0.001%   0.000%
    4    4.1  1.5  1.5   0.021%   0.000%   0.000%   0.005%   0.000%   0.005%   0.013%   0.001%
    5    5.1  1.5  1.5   0.000%   0.028%   0.001%   0.000%   0.000%   0.000%   0.002%   0.033%
    6    6.1  1.5  1.5   0.028%   0.000%   0.000%   0.002%   0.000%   0.002%   0.013%   0.001%
    7    7.1  1.5  1.5   0.000%   0.028%   0.000%   0.000%   0.000%   0.000%   0.002%   0.033%
    8    8.1  1.5  1.5   0.000%   0.001%   0.000%   0.000%   0.000%   0.000%   0.000%   0.001%
    9    9.1  1.5  1.5   0.000%   0.001%   0.000%   0.000%   0.000%   0.000%   0.000%   0.001%
   10   10.1  1.5  1.5   0.001%   0.000%   0.000%   0.001%   0.000%   0.001%   0.000%   0.000%
   11   11.1  1.5  1.5   0.000%   0.000%   0.000%   0.001%   0.000%   0.003%   0.000%   0.000%
   12   12.1  1.5  1.5   0.001%   0.000%   0.000%   0.000%   0.000%   0.002%   0.000%   0.000%
   13   13.1  1.5  1.5   0.001%   0.000%   0.000%   0.000%   0.000%   0.000%   0.000%   0.000%
   14   14.1  1.5  1.5   0.000%   0.000%   0.001%   0.000%   0.000%   0.000%   0.000%   0.000%
   15   15.1  1.5  1.5   0.006%   0.000%   0.000%   0.023%   0.000%   0.000%   0.076%   0.005%
   16   16.1  1.5  1.5   0.031%   0.000%   0.000%   0.023%   0.000%   0.000%   0.076%   0.005%
   17   17.1  1.5  1.5   0.000%   0.000%   0.111%   0.000%   0.242%   0.000%   0.000%   0.001%
   18   18.1  1.5  1.5   0.007%   0.000%   0.000%   0.005%   0.000%   0.000%   0.001%   0.000%
   19   19.1  1.5  1.5   0.001%   0.000%   0.000%   0.005%   0.000%   0.000%   0.001%   0.000%
   20   20.1  1.5  1.5   0.000%   0.000%   0.026%   0.000%   0.003%   0.000%   0.000%   0.000%
   21    1.1  1.5  0.5   0.000%   0.001%   0.012%   0.000%   0.002%   0.000%   0.000%   0.003%
   22    2.1  1.5  0.5   0.022%   0.000%   0.000%   0.000%   0.000%   0.002%   0.058%   0.003%
   23    3.1  1.5  0.5   0.000%   0.000%   0.008%   0.000%   0.000%   0.000%   0.000%   0.001%
   24    4.1  1.5  0.5   0.000%   0.000%   0.013%   0.000%   0.016%   0.000%   0.002%   0.034%
   25    5.1  1.5  0.5   0.001%   0.000%   0.000%   0.015%   0.000%   0.034%   0.002%   0.000%
   26    6.1  1.5  0.5   0.000%   0.002%   0.017%   0.000%   0.011%   0.000%   0.003%   0.043%
   27    7.1  1.5  0.5   0.000%   0.000%   0.000%   0.000%   0.000%   0.036%   0.000%   0.000%
   28    8.1  1.5  0.5   0.000%   0.000%   0.000%   0.000%   0.000%   0.001%   0.000%   0.000%
   29    9.1  1.5  0.5   0.000%   0.000%   0.000%   0.001%   0.000%   0.001%   0.000%   0.000%
   30   10.1  1.5  0.5   0.000%   0.000%   0.000%   0.000%   0.000%   0.000%   0.000%   0.001%
   31   11.1  1.5  0.5   0.000%   0.000%   0.000%   0.000%   0.000%   0.000%   0.000%   0.000%
   32   12.1  1.5  0.5   0.000%   0.000%   0.001%   0.000%   0.000%   0.000%   0.000%   0.001%
   33   13.1  1.5  0.5   0.000%   0.000%   0.001%   0.000%   0.001%   0.000%   0.000%   0.001%
   34   14.1  1.5  0.5   0.001%   0.000%   0.000%   0.000%   0.000%   0.000%   0.002%   0.000%
   35   15.1  1.5  0.5   0.000%   0.041%   0.084%   0.000%   0.067%   0.000%   0.008%   0.114%
   36   16.1  1.5  0.5   0.000%   0.055%   0.084%   0.000%   0.095%   0.000%   0.005%   0.090%
   37   17.1  1.5  0.5   0.192%   0.000%   0.000%   0.000%   0.000%   0.000%   0.025%   0.001%
   38   18.1  1.5  0.5   0.000%   0.013%   0.020%   0.000%   0.001%   0.000%   0.000%   0.001%
   39   19.1  1.5  0.5   0.000%   0.010%   0.020%   0.000%   0.001%   0.000%   0.000%   0.001%
   40   20.1  1.5  0.5   0.045%   0.000%   0.000%   0.000%   0.000%   0.000%   0.000%   0.000%
   41    1.1  1.5 -0.5   0.001%   0.000%   0.000%   0.012%   0.000%   0.002%   0.003%   0.000%
   42    2.1  1.5 -0.5   0.000%   0.022%   0.000%   0.000%   0.002%   0.000%   0.003%   0.058%
   43    3.1  1.5 -0.5   0.000%   0.000%   0.000%   0.008%   0.000%   0.000%   0.001%   0.000%
   44    4.1  1.5 -0.5   0.000%   0.000%   0.000%   0.013%   0.000%   0.016%   0.034%   0.002%
   45    5.1  1.5 -0.5   0.000%   0.001%   0.015%   0.000%   0.034%   0.000%   0.000%   0.002%
   46    6.1  1.5 -0.5   0.002%   0.000%   0.000%   0.017%   0.000%   0.011%   0.043%   0.003%
   47    7.1  1.5 -0.5   0.000%   0.000%   0.000%   0.000%   0.036%   0.000%   0.000%   0.000%
   48    8.1  1.5 -0.5   0.000%   0.000%   0.000%   0.000%   0.001%   0.000%   0.000%   0.000%
   49    9.1  1.5 -0.5   0.000%   0.000%   0.001%   0.000%   0.001%   0.000%   0.000%   0.000%
   50   10.1  1.5 -0.5   0.000%   0.000%   0.000%   0.000%   0.000%   0.000%   0.001%   0.000%
   51   11.1  1.5 -0.5   0.000%   0.000%   0.000%   0.000%   0.000%   0.000%   0.000%   0.000%
   52   12.1  1.5 -0.5   0.000%   0.000%   0.000%   0.001%   0.000%   0.000%   0.001%   0.000%
   53   13.1  1.5 -0.5   0.000%   0.000%   0.000%   0.001%   0.000%   0.001%   0.001%   0.000%
   54   14.1  1.5 -0.5   0.000%   0.001%   0.000%   0.000%   0.000%   0.000%   0.000%   0.002%
   55   15.1  1.5 -0.5   0.041%   0.000%   0.000%   0.084%   0.000%   0.067%   0.114%   0.008%
   56   16.1  1.5 -0.5   0.055%   0.000%   0.000%   0.084%   0.000%   0.095%   0.090%   0.005%
   57   17.1  1.5 -0.5   0.000%   0.192%   0.000%   0.000%   0.000%   0.000%   0.001%   0.025%
   58   18.1  1.5 -0.5   0.013%   0.000%   0.000%   0.020%   0.000%   0.001%   0.001%   0.000%
   59   19.1  1.5 -0.5   0.010%   0.000%   0.000%   0.020%   0.000%   0.001%   0.001%   0.000%
   60   20.1  1.5 -0.5   0.000%   0.045%   0.000%   0.000%   0.000%   0.000%   0.000%   0.000%
   61    1.1  1.5 -1.5   0.000%   0.001%   0.014%   0.000%   0.066%   0.000%   0.000%   0.000%
   62    2.1  1.5 -1.5   0.000%   0.000%   0.000%   0.029%   0.000%   0.007%   0.000%   0.000%
   63    3.1  1.5 -1.5   0.000%   0.001%   0.017%   0.000%   0.069%   0.000%   0.000%   0.001%
   64    4.1  1.5 -1.5   0.000%   0.021%   0.005%   0.000%   0.005%   0.000%   0.001%   0.013%
   65    5.1  1.5 -1.5   0.028%   0.000%   0.000%   0.001%   0.000%   0.000%   0.033%   0.002%
   66    6.1  1.5 -1.5   0.000%   0.028%   0.002%   0.000%   0.002%   0.000%   0.001%   0.013%
   67    7.1  1.5 -1.5   0.028%   0.000%   0.000%   0.000%   0.000%   0.000%   0.033%   0.002%
   68    8.1  1.5 -1.5   0.001%   0.000%   0.000%   0.000%   0.000%   0.000%   0.001%   0.000%
   69    9.1  1.5 -1.5   0.001%   0.000%   0.000%   0.000%   0.000%   0.000%   0.001%   0.000%
   70   10.1  1.5 -1.5   0.000%   0.001%   0.001%   0.000%   0.001%   0.000%   0.000%   0.000%
   71   11.1  1.5 -1.5   0.000%   0.000%   0.001%   0.000%   0.003%   0.000%   0.000%   0.000%
   72   12.1  1.5 -1.5   0.000%   0.001%   0.000%   0.000%   0.002%   0.000%   0.000%   0.000%
   73   13.1  1.5 -1.5   0.000%   0.001%   0.000%   0.000%   0.000%   0.000%   0.000%   0.000%
   74   14.1  1.5 -1.5   0.000%   0.000%   0.000%   0.001%   0.000%   0.000%   0.000%   0.000%
   75   15.1  1.5 -1.5   0.000%   0.006%   0.023%   0.000%   0.000%   0.000%   0.005%   0.076%
   76   16.1  1.5 -1.5   0.000%   0.031%   0.023%   0.000%   0.000%   0.000%   0.005%   0.076%
   77   17.1  1.5 -1.5   0.000%   0.000%   0.000%   0.111%   0.000%   0.242%   0.001%   0.000%
   78   18.1  1.5 -1.5   0.000%   0.007%   0.005%   0.000%   0.000%   0.000%   0.000%   0.001%
   79   19.1  1.5 -1.5   0.000%   0.001%   0.005%   0.000%   0.000%   0.000%   0.000%   0.001%
   80   20.1  1.5 -1.5   0.000%   0.000%   0.000%   0.026%   0.000%   0.003%   0.000%   0.000%
   81    1.1  0.5  0.5   0.000%   0.003%   0.002%   0.000%   0.000%   0.000%   0.000%   0.000%
   82    2.1  0.5  0.5   0.000%   0.003%   0.002%   0.000%   0.000%   0.000%   0.000%   0.000%
   83    3.1  0.5  0.5   0.005%   0.000%   0.000%   0.000%   0.000%   0.000%   0.000%   0.000%
   84    4.1  0.5  0.5   0.000%   0.000%   0.000%   0.000%   0.000%   0.000%   0.000%   0.000%
   85    5.1  0.5  0.5   0.000%   0.001%   0.000%   0.000%   0.000%   0.000%   0.000%   0.000%
   86    6.1  0.5  0.5   0.000%   0.000%   0.000%   0.002%   0.000%   0.000%   0.000%   0.000%
   87    7.1  0.5  0.5   0.000%   0.000%   0.000%   0.005%   0.000%   0.000%   0.000%   0.000%
   88    8.1  0.5  0.5   0.000%   0.000%   0.000%   0.000%   0.000%   0.000%   0.000%   0.000%
   89    9.1  0.5  0.5   0.000%   0.000%   0.000%   0.000%   0.000%   0.000%   0.000%   0.000%
   90   10.1  0.5  0.5   0.000%   0.000%   0.000%   0.000%   0.000%   0.000%   0.000%   0.000%
   91   11.1  0.5  0.5   0.000%   0.000%   0.000%   0.000%   0.000%   0.000%   0.000%   0.000%
   92   12.1  0.5  0.5   0.000%   0.000%   0.000%   0.000%   0.000%   0.000%   0.000%   0.000%
   93   13.1  0.5  0.5   0.000%   0.000%   0.000%   0.000%   0.000%   0.000%   0.000%   0.000%
   94   14.1  0.5  0.5   0.000%   0.000%   0.000%   0.000%   0.000%   0.000%   0.000%   0.000%
   95   15.1  0.5  0.5   0.000%   0.000%   0.000%   0.000%   0.000%   0.000%   0.000%   0.000%
   96   16.1  0.5  0.5   0.000%   0.000%   0.000%   0.000%   0.000%   0.000%   0.000%   0.000%
   97   17.1  0.5  0.5   0.000%   0.000%   0.000%   0.000%   0.003%   0.040%   6.931%   0.417%
   98   18.1  0.5  0.5   0.000%   0.000%   0.000%   0.000%   5.770%   0.000%   0.071%   1.551%
   99   19.1  0.5  0.5   0.000%   0.000%   0.000%   0.000%   5.273%   0.001%   0.150%   1.968%
  100   20.1  0.5  0.5  39.637%   0.005%   0.000%   0.027%   0.007%  13.777%  19.983%   1.395%
  101   21.1  0.5  0.5  20.154%   0.001%   0.000%   0.035%   0.003%  21.378%  13.102%   0.678%
  102   22.1  0.5  0.5   0.473%   0.003%   0.004%  31.243%   0.004%  35.182%   0.175%   0.018%
  103   23.1  0.5  0.5   0.000%  16.798%  34.113%   0.007%  11.181%   0.001%   1.262%  22.950%
  104   24.1  0.5  0.5   0.002%  22.374%  34.015%   0.003%   6.702%   0.008%   1.797%  26.885%
  105    1.1  0.5 -0.5   0.003%   0.000%   0.000%   0.002%   0.000%   0.000%   0.000%   0.000%
  106    2.1  0.5 -0.5   0.003%   0.000%   0.000%   0.002%   0.000%   0.000%   0.000%   0.000%
  107    3.1  0.5 -0.5   0.000%   0.005%   0.000%   0.000%   0.000%   0.000%   0.000%   0.000%
  108    4.1  0.5 -0.5   0.000%   0.000%   0.000%   0.000%   0.000%   0.000%   0.000%   0.000%
  109    5.1  0.5 -0.5   0.001%   0.000%   0.000%   0.000%   0.000%   0.000%   0.000%   0.000%
  110    6.1  0.5 -0.5   0.000%   0.000%   0.002%   0.000%   0.000%   0.000%   0.000%   0.000%
  111    7.1  0.5 -0.5   0.000%   0.000%   0.005%   0.000%   0.000%   0.000%   0.000%   0.000%
  112    8.1  0.5 -0.5   0.000%   0.000%   0.000%   0.000%   0.000%   0.000%   0.000%   0.000%
  113    9.1  0.5 -0.5   0.000%   0.000%   0.000%   0.000%   0.000%   0.000%   0.000%   0.000%
  114   10.1  0.5 -0.5   0.000%   0.000%   0.000%   0.000%   0.000%   0.000%   0.000%   0.000%
  115   11.1  0.5 -0.5   0.000%   0.000%   0.000%   0.000%   0.000%   0.000%   0.000%   0.000%
  116   12.1  0.5 -0.5   0.000%   0.000%   0.000%   0.000%   0.000%   0.000%   0.000%   0.000%
  117   13.1  0.5 -0.5   0.000%   0.000%   0.000%   0.000%   0.000%   0.000%   0.000%   0.000%
  118   14.1  0.5 -0.5   0.000%   0.000%   0.000%   0.000%   0.000%   0.000%   0.000%   0.000%
  119   15.1  0.5 -0.5   0.000%   0.000%   0.000%   0.000%   0.000%   0.000%   0.000%   0.000%
  120   16.1  0.5 -0.5   0.000%   0.000%   0.000%   0.000%   0.000%   0.000%   0.000%   0.000%
  121   17.1  0.5 -0.5   0.000%   0.000%   0.000%   0.000%   0.040%   0.003%   0.417%   6.931%
  122   18.1  0.5 -0.5   0.000%   0.000%   0.000%   0.000%   0.000%   5.770%   1.551%   0.071%
  123   19.1  0.5 -0.5   0.000%   0.000%   0.000%   0.000%   0.001%   5.273%   1.968%   0.150%
  124   20.1  0.5 -0.5   0.005%  39.637%   0.027%   0.000%  13.777%   0.007%   1.395%  19.983%
  125   21.1  0.5 -0.5   0.001%  20.154%   0.035%   0.000%  21.378%   0.003%   0.678%  13.102%
  126   22.1  0.5 -0.5   0.003%   0.473%  31.243%   0.004%  35.182%   0.004%   0.018%   0.175%
  127   23.1  0.5 -0.5  16.798%   0.000%   0.007%  34.113%   0.001%  11.181%  22.950%   1.262%
  128   24.1  0.5 -0.5  22.374%   0.002%   0.003%  34.015%   0.008%   6.702%  26.885%   1.797%


 Property matrices transformed in SO basis (not sym. adapted)
 ============================================================

 No matrix element <i|DMX|i> larger than 5E-7
 No matrix element <i|DMX|1> larger than 5E-7

 No matrix element <i|DMY|i> larger than 5E-7
 No matrix element <i|DMY|1> larger than 5E-7

 No matrix element <i|DMZ|i> larger than 5E-7
 No matrix element <i|DMZ|1> larger than 5E-7


 **********************************************************************************************************************************
 DATASETS  * FILE   NREC   LENGTH (MB)   RECORD NAMES
              1      24     2209.97       500      610      700      900      950      970     1000      129      960     1700   
                                          VAR    BASINP    GEOM    SYMINP    ZMAT    AOBASIS   BASIS     P2S    ABASIS    OPER   
                                         1101     1401     1411     1412     1650     1100     1400     1410     1200     1210   
                                          SR      EKINR    POTR     PVPR    MOLCAS      S      EKIN      POT      H0       H01  
                                         1080     1600     1380     1700(1)
                                         AOSYM     SMH     JKOP     OPER   

              2       7     7053.46       700     1000      520     2100     2140     5101     5102   
                                         GEOM     BASIS   MCVARS     RHF     MCSCF    MRCI     MRCI   

 PROGRAMS   *        TOTAL        CI     LSINT        CI        CI     MULTI   RHF-SCF       INT
 CPU TIMES  *    356332.70 291804.11     33.29  46973.51  17505.63      7.59      3.98      4.38
 REAL TIME  *    362416.53 SEC
 DISK USED  *         6.95 GB (local),       73.86 GB (total)
 SF USED    *        39.09 GB
 GA USED    *         0.00 MB       (max)       0.00 MB       (current)
 **********************************************************************************************************************************

 CI/cc-pWCV5Z-DK energy=  -1392.548627839973

              CI              CI           MULTI         RHF-SCF
  -1392.46861142  -1392.48772335  -1391.76191748  -1391.81416868
 **********************************************************************************************************************************
 Molpro calculation terminated
