
 Working directory              : /wrk/irikura/molpro.idgcycA90i/
 Global scratch directory       : /wrk/irikura/molpro.idgcycA90i/
 Wavefunction directory         : /home/irikura/wfu/
 Main file repository           : /wrk/irikura/molpro.idgcycA90i/

 id        : nistki

 Nodes            nprocs
 pn112695.nist.gov   12
 GA implementation: MPI file
 GA implementation (serial work in mppx): MPI file

 Using customized tuning parameters: mindgm=1; mindgv=20; mindgc=4; mindgr=1; noblas=0; minvec=7
 default implementation of scratch files=sf  


 Variables initialized (1040), CPU time= 0.01 sec
 ***,Co atom, larger active space, smaller core
                                                                                 ! 4F + 4F + 4P + 4P + [missing 2F] + 2G + 2P + 2D
 memory,2000,M;
 
 gprint,orbitals,civector
 
 symmetry,xyz
 geometry={Co}
 
 basis=cc-pwCVTZ-DK
 
 set,dkho=101
 
                                                                                 ! Co anion orbitals to favor s2 (?)
 {rhf,so-sci;wf,nelec=28,sym=1, spin=2}
 
                                                                                 ! state-averaged casscf
 {multi
     closed,2,3
                                                                                 ! doublets
     wf,nelec=27,sym=1,spin=1; state,17;
                                                                                 ! quartets
     wf,nelec=27,sym=1,spin=3; state,20;
     expec2,lxx,lyy,lzz;
  }
 table, energy, ll
 title, Energies and &lt;L**2&gt; values
 
 {ci;option,nstati=20;wf,sym=1,spin=1;state,17;save,5102.2}
 hlsdiag = energd4
 {ci;wf,sym=1,spin=3; state,20;save,5101.2}
 hlsdiag(18) = energd4
 
 table, hlsdiag
 
                                                                                 !compute and diagonalize SO matrix
 lsint
 {ci;hlsmat,ls,5102.2,5101.2;print,vls=0,hls=0}
 
 Commands initialized (846), CPU time= 0.01 sec, 717 directives.
 Default parameters read. Elapsed time= 0.20 sec

 Checking input...
 Passed
1


                                         ***  PROGRAM SYSTEM MOLPRO  ***
                                       Copyright, TTI GmbH Stuttgart, 2015
                                    Version 2023.2 linked Fri Sep 22 03:27:09 2023


 **********************************************************************************************************************************
 LABEL *   Co atom, larger active space, smaller core                                                                                                                    
  (32 PROC) 64 bit mpp version                                                           DATE: 02-Feb-24          TIME: 08:26:43  
 **********************************************************************************************************************************

 SHA1:             3c61bfe44d37c8635c785372c339f5cbdd4e4b59
 **********************************************************************************************************************************

 Memory per process:      2000 MW
 Total memory per node:  24000 MW

 GA preallocation disabled
 GA check disabled

 Variable memory set to 2000.0 MW


 ZSYMEL=XYZ

 SETTING BASIS          =    CC-PWCVTZ-DK
 SETTING DKHO           =       101.00000000                                  


 Recomputing integrals since basis changed


 Using spherical harmonics

 Library entry CO     S cc-pwCVTZ-DK         selected for orbital group  1
 Library entry CO     P cc-pwCVTZ-DK         selected for orbital group  1
 Library entry CO     D cc-pwCVTZ-DK         selected for orbital group  1
 Library entry CO     F cc-pwCVTZ-DK         selected for orbital group  1
 Library entry CO     G cc-pwCVTZ-DK         selected for orbital group  1


 PROGRAM * SEWARD (Integral evaluation for generally contracted gaussian basis sets)     Author: Roland Lindh, 1990

 Geometry written to block  1 of record 700

 Orientation using atomic masses  
 Molecule type: Atom
 User-specified symmetry elements: XYZ
 Symmetry elements: XYZ
 Rotational constants:       0.0000000      0.0000000      0.0000000 GHz  (calculated with average atomic masses)

 Point group  Ci  



 ATOMIC COORDINATES

 NR  ATOM    CHARGE       X              Y              Z

   1  CO     27.00    0.000000000    0.000000000    0.000000000

 NUCLEAR CHARGE:                   27
 NUMBER OF PRIMITIVE AOS:         196
 NUMBER OF SYMMETRY AOS:          165
 NUMBER OF CONTRACTIONS:          102   (   57Ag  +   45Au  )
 NUMBER OF INNER CORE ORBITALS:     5   (    2Ag  +    3Au  )
 NUMBER OF OUTER CORE ORBITALS:     4   (    1Ag  +    3Au  )
 NUMBER OF VALENCE ORBITALS:        6   (    6Ag  +    0Au  )


 NUCLEAR REPULSION ENERGY    0.00000000

 One-electron integrals computed with SEWARD

 eXact-2-Component (X2C) method activated

 Computing Douglas-Kroll / X2C integrals

 AO integral compression algorithm  1   Integral accuracy      1.0D-11

     16.515 MB (compressed) written to integral file ( 16.0%)

     Node minimum: 0.524 MB, node maximum: 2.097 MB


 NUMBER OF SORTED TWO-ELECTRON INTEGRALS:     584802.     BUFFER LENGTH:  32768
 NUMBER OF SEGMENTS:   1  SEGMENT LENGTH:     584802      RECORD LENGTH: 524288

 Memory used in sort:       1.14 MW

 SORT1 READ    12883698. AND WROTE      111981. INTEGRALS IN      1 RECORDS. CPU TIME:     0.07 SEC, REAL TIME:     0.08 SEC
 SORT2 READ     1353984. AND WROTE     7035726. INTEGRALS IN     36 RECORDS. CPU TIME:     0.02 SEC, REAL TIME:     0.02 SEC

 Node minimum:      584356.  Node maximum:      590436. integrals

 OPERATOR DM      FOR CENTER  0  COORDINATES:    0.000000    0.000000    0.000000

 EXTRA SYMMETRY OF AOS IN SYMMETRY 1:   1 1 1 1 1 1 1 1 1 2   3 4 5 6 2 3 4 5 6 2   3 4 5 6 2 3 4 5 6 2   3 4 5 6 2 3 4 5 6 7
                                        8 9101112131415 7 8   9101112131415
 EXTRA SYMMETRY OF AOS IN SYMMETRY 2:   1 2 3 1 2 3 1 2 3 1   2 3 1 2 3 1 2 3 1 2   3 1 2 3 4 5 6 7 8 9  10 4 5 6 7 8 910 4 5
                                        6 7 8 910

 Eigenvalues of metric

         1 0.366E-03 0.267E-02 0.154E-01 0.154E-01 0.154E-01 0.154E-01 0.154E-01 0.248E-01
         2 0.242E-03 0.242E-03 0.242E-03 0.177E-02 0.177E-02 0.177E-02 0.125E+00 0.125E+00


 **********************************************************************************************************************************
 DATASETS  * FILE   NREC   LENGTH (MB)   RECORD NAMES
              1      22       29.09       500      610      700      900      950      970     1000      129      960     1700   
                                          VAR    BASINP    GEOM    SYMINP    ZMAT    AOBASIS   BASIS     P2S    ABASIS    OPER   
                                         1101     1401     1411     1412     1650     1100     1400     1410     1200     1210   
                                          SR      EKINR    POTR     PVPR    MOLCAS      S      EKIN      POT      H0       H01  
                                         1080     1600   
                                         AOSYM     SMH  

 PROGRAMS   *        TOTAL       INT
 CPU TIMES  *         1.20      0.88
 REAL TIME  *         2.34 SEC
 DISK USED  *        29.44 MB (local),      409.83 MB (total)
 GA USED    *         0.00 MB       (max)       0.00 MB       (current)
 **********************************************************************************************************************************


 Program * Restricted Hartree-Fock

 Orbital guess generated from atomic densities. Full valence occupancy:    9   6

 Initial alpha occupancy:   9   6
 Initial beta  occupancy:   7   6
 
 SO-SCI SOLVER WITH NELEC=28 SYM=1 MS2=2 THRE=1.0D-08 THRG=3.2D-06
 
 Authors: D.A. Kreplin, H.-J. Werner (2022)
 
 Number of closed-shell orbitals:                13   (    7    6)
 Number of singly occupied active orbitals:       2   (    2    0)
 Number of virtual orbitals:                     87   (   48   39)
 
 ITER.  MIC  NCI          ENERGY    ENERGY CHANGE          GRAD      ORB GRAD        CI RES  NQN        STEP      TIME
    1    1    0   -1390.91468015   -1390.91468015    2.40142143    2.40142143    0.00000000    0    0.56E+00      0.04
    2    1    0   -1391.18768599      -0.27300584    2.43340864    2.43340864    0.00000000    0    0.39E+00      0.07
    3    1    0   -1391.23684724      -0.04916126    2.29871091    2.29871091    0.00000000    0    0.45E+00      0.10
    4    1    0   -1391.15476700       0.08208024    2.43336158    2.43336158    0.00000000    0    0.40E+00      0.13
    5    2    0   -1391.30895201      -0.15418501    2.15333612    2.15333612    0.00000000    1    0.36E+00      0.21
    6    2    0   -1391.47506943      -0.16611742    1.39420641    1.39420641    0.00000000    1    0.37E+00      0.25
    7    1    0   -1391.60566770      -0.13059827    0.68512296    0.68512296    0.00000000    2    0.49E+00      0.28
    8    1    0   -1391.71553398      -0.10986628    0.37098330    0.37098330    0.00000000    3    0.30E+00      0.31
    9    1    0   -1391.76372146      -0.04818748    0.45742993    0.45742993    0.00000000    4    0.13E+00      0.34
   10    2    0   -1391.77736380      -0.01364234    0.38866873    0.38866873    0.00000000    5    0.62E-01      0.38
   11    2    0   -1391.78168067      -0.00431687    0.35205933    0.35205933    0.00000000    6    0.55E-01      0.41
   12    2    0   -1391.78526600      -0.00358533    0.29676127    0.29676127    0.00000000    7    0.53E-01      0.45
   13    2    0   -1391.79167508      -0.00640909    0.18400400    0.18400400    0.00000000    8    0.10E+00      0.48
   14    2    0   -1391.79584341      -0.00416833    0.09743636    0.09743636    0.00000000    9    0.13E+00      0.52
   15    2    0   -1391.79811859      -0.00227518    0.03993999    0.03993999    0.00000000   10    0.18E+00      0.55
   16    2    0   -1391.79867512      -0.00055653    0.03129168    0.03129168    0.00000000   10    0.87E-01      0.59
   17    2    0   -1391.79881051      -0.00013539    0.00843255    0.00843255    0.00000000   10    0.47E-02      0.62
   18    2    0   -1391.79882235      -0.00001185    0.00142573    0.00142573    0.00000000   10    0.35E-02      0.66
   19    2    0   -1391.79882331      -0.00000095    0.00094334    0.00094334    0.00000000   10    0.52E-02      0.70
   20    2    0   -1391.79882338      -0.00000008    0.00110658    0.00110658    0.00000000   10    0.37E-02      0.74
   21    2    0   -1391.79882346      -0.00000008    0.00031184    0.00031184    0.00000000   10    0.44E-03      0.77
   22    2    0   -1391.79882347      -0.00000001    0.00010132    0.00010132    0.00000000   10    0.22E-03      0.81
   23    2    0   -1391.79882347      -0.00000000    0.00003158    0.00003158    0.00000000   10    0.19E-03      0.84
   24    2    0   -1391.79882347      -0.00000000    0.00003996    0.00003996    0.00000000   10    0.11E-03      0.88
   25    2    0   -1391.79882347      -0.00000000    0.00000344    0.00000344    0.00000000   10    0.82E-05      0.91

 CONVERGENCE REACHED!  Final gradient:     0.00000068 ( 0.68E-06)
                       Final energy:   -1391.79882347
 

 Final alpha occupancy:   9   6
 Final beta  occupancy:   7   6

 !RHF STATE 1.1 Energy              -1391.798823473997
  RHF One-electron energy           -1938.323817688854
  RHF Two-electron energy             546.524994214857
  RHF Kinetic energy                 1454.671985550676
  RHF Nuclear energy                    0.000000000000
  RHF Virial quotient                  -0.956778460917

 !RHF STATE 1.1 Dipole moment           0.00000000     0.00000000     0.00000000
 Dipole moment /Debye                   0.00000000     0.00000000     0.00000000

 ELECTRON ORBITALS
 =================

  Orbital  Occupation    Energy    Cen Mu Typ  Coefficients
    1.1     2.00000  -285.35294     1  1  s    0.97812
    2.1     2.00000   -35.02558     1  2  s    0.99666
    3.1     2.00000    -4.19029     1  3  s    0.99060
    4.1     2.00000    -0.18856     1  1  d1+  0.99273
    5.1     2.00000    -0.18856     1  1  d2-  0.99145
    6.1     2.00000    -0.18856     1  1  d1-  0.98715
    7.1     2.00000    -0.00831     1  7  s    1.23323
    8.1     1.00000    -0.26742     1  1  d2+  0.99280
    9.1     1.00000    -0.26742     1  1  d0  -0.99098
    1.2     2.00000   -29.79843     1  1  py   0.76797    1  1  pz   0.63992
    2.2     2.00000   -29.79843     1  1  px   0.99852
    3.2     2.00000   -29.79843     1  1  py  -0.64043    1  1  pz   0.76657
    4.2     2.00000    -2.61047     1  2  py   0.71487    1  2  pz  -0.69447
    5.2     2.00000    -2.61047     1  2  py   0.66830    1  2  pz   0.71655
    6.2     2.00000    -2.61047     1  2  px   0.97508


 HOMO      9.1    -0.267420 =      -7.2769eV
 LUMO      7.2     0.209764 =       5.7080eV
 LUMO-HOMO         0.477185 =      12.9849eV

 Orbitals saved in record  2100.2


 **********************************************************************************************************************************
 DATASETS  * FILE   NREC   LENGTH (MB)   RECORD NAMES
              1      23       29.36       500      610      700      900      950      970     1000      129      960     1700   
                                          VAR    BASINP    GEOM    SYMINP    ZMAT    AOBASIS   BASIS     P2S    ABASIS    OPER   
                                         1101     1401     1411     1412     1650     1100     1400     1410     1200     1210   
                                          SR      EKINR    POTR     PVPR    MOLCAS      S      EKIN      POT      H0       H01  
                                         1080     1600     1380   
                                         AOSYM     SMH     JKOP   

              2       4        0.53       700     1000      520     2100   
                                         GEOM     BASIS   MCVARS     RHF  

 PROGRAMS   *        TOTAL   RHF-SCF       INT
 CPU TIMES  *         2.04      0.84      0.88
 REAL TIME  *         3.29 SEC
 DISK USED  *        29.97 MB (local),      416.28 MB (total)
 SF USED    *         1.28 MB
 GA USED    *         0.00 MB       (max)       0.00 MB       (current)
 **********************************************************************************************************************************

 PROGRAM * MULTI (Direct Multiconfiguration SCF)       Authors: P.J. Knowles, H.-J. Werner (1984)
                                                                D.A. Kreplin, P.J. Knowles, H.-J. Werner (2019)

 Number of closed-shell orbitals:   5 (    2    3)
 Number of active  orbitals:       10 (    7    3)
 Number of external orbitals:      87 (   48   39)

 State symmetry 1

 Number of active electrons:  17    Spin symmetry=Doublet   Space symmetry=1
 Number of states:            17
 Number of CSFs:             175   (231 determinants, 450 intermediate states)

 State symmetry 2

 Number of active electrons:  17    Spin symmetry=Quartet   Space symmetry=1
 Number of states:            20
 Number of CSFs:              56   (56 determinants, 120 intermediate states)

 Molecular orbitals read from record     2100.2  Type=RHF/CANONICAL (state 1.1)
 *** IN SYMMETRY 1 ORBITAL  2 SYMMETRY CONTAMINATION OF 0.224D-03 HAS BEEN REMOVED
 *** IN SYMMETRY 1 ORBITAL  3 SYMMETRY CONTAMINATION OF 0.151D-02 HAS BEEN REMOVED
 *** IN SYMMETRY 1 ORBITAL  4 SYMMETRY CONTAMINATION OF 0.233D-01 HAS BEEN REMOVED
 *** IN SYMMETRY 1 ORBITAL  5 SYMMETRY CONTAMINATION OF 0.618D-01 HAS BEEN REMOVED
 *** IN SYMMETRY 1 ORBITAL  6 SYMMETRY CONTAMINATION OF 0.166D+00 HAS BEEN REMOVED
 *** IN SYMMETRY 1 ORBITAL  7 SYMMETRY CONTAMINATION OF 0.161D-03 HAS BEEN REMOVED
 *** IN SYMMETRY 1 ORBITAL  8 SYMMETRY CONTAMINATION OF 0.116D+00 HAS BEEN REMOVED
 *** IN SYMMETRY 1 ORBITAL  9 SYMMETRY CONTAMINATION OF 0.136D+00 HAS BEEN REMOVED

 EXTRA SYMMETRY OF MOS IN SYMMETRY 1:   1 1 1 4 3 6 1 5 2 1   5 2 4 3 6 1 5 2 4 3   6 1 5 2 4 3 6 71113   9121014 815 1 5 2 4
                                        6 3 71113 91210 815  14 5 2 3 6 4 1
 *** IN SYMMETRY 2 ORBITAL  1 SYMMETRY CONTAMINATION OF 0.465D+00 HAS BEEN REMOVED
 *** IN SYMMETRY 2 ORBITAL  2 SYMMETRY CONTAMINATION OF 0.604D-01 HAS BEEN REMOVED
 *** IN SYMMETRY 2 ORBITAL  3 SYMMETRY CONTAMINATION OF 0.473D+00 HAS BEEN REMOVED
 *** IN SYMMETRY 2 ORBITAL  4 SYMMETRY CONTAMINATION OF 0.530D+00 HAS BEEN REMOVED
 *** IN SYMMETRY 2 ORBITAL  5 SYMMETRY CONTAMINATION OF 0.554D+00 HAS BEEN REMOVED
 *** IN SYMMETRY 2 ORBITAL  6 SYMMETRY CONTAMINATION OF 0.241D+00 HAS BEEN REMOVED
 EXTRA SYMMETRY OF MOS IN SYMMETRY 2:   2 1 3 2 3 1 3 1 2 2   1 3 2 1 3 6 9 710 4   5 8 2 1 3 9 7 610 4   5 8 2 1 3 9 6 710 4
                                        5 8 2 3 1

 Wavefunction dump at record             2140.2

 Convergence thresholds  0.10E-04 (gradient)  0.10E-05 (energy)

 Weight factors for state symmetry  1:    0.02703   0.02703   0.02703   0.02703   0.02703   0.02703   0.02703   0.02703
                                          0.02703   0.02703   0.02703   0.02703   0.02703   0.02703   0.02703   0.02703
                                          0.02703
 Weight factors for state symmetry  2:    0.02703   0.02703   0.02703   0.02703   0.02703   0.02703   0.02703   0.02703
                                          0.02703   0.02703   0.02703   0.02703   0.02703   0.02703   0.02703   0.02703
                                          0.02703   0.02703   0.02703   0.02703
 
 Number of orbital rotations:  689  ( 23 closed/active, 213 closed/virtual, 0 active/active, 453 active/virtual )
 Total number of variables:    5736
 
 Second-order MCSCF: L-BFGS accelerated
 
 ITER  MIC  NCI  NEG     ENERGY(VAR)    ENERGY(PROJ) ENERGY CHANGE       GRAD(0)  GRAD(ORB)   GRAD(CI)      STEP      TIME
   1   17   28    0  -1391.72385465   -1391.89978297   -0.17592832    0.26771452 0.00004952 0.00000000  0.58E+00      1.10
   2    9   16    0  -1391.66346875   -1391.77863668   -0.11516793    1.46704433 0.00003060 0.00000000  0.14E+00      1.86
   3    7   12    0  -1391.78195723   -1391.78225491   -0.00029768    0.05284392 0.00000338 0.00000000  0.10E-01      2.53
   4    5   10    0  -1391.78225570   -1391.78225571   -0.00000001    0.00017000 0.00000053 0.00000000  0.58E-04      3.07
   5   21   42    0  -1391.78225571   -1391.78225571    0.00000000    0.00000050 0.00000036 0.00000000  0.24E-06      4.47

 CONVERGENCE REACHED!  Final gradient:    0.00000114 ( 0.11E-05)
                       Final energy:  -1391.78225571
 
 Results for state 1.1 Doublet
 =============================
 !MCSCF STATE 1.1 Doublet Energy             -1391.789306422565
 Nuclear energy                                  0.00000000
 Kinetic energy                               1452.80304648
 One electron energy                         -1924.26500450
 Two electron energy                           532.47569807
 Virial ratio                                    1.95800274
 
 !MCSCF STATE 1.1 Doublet Dipole moment          0.00000000     0.00000000     0.00000000
 Dipole moment /Debye                            0.00000000     0.00000000     0.00000000
 
 Results for state 2.1 Doublet
 =============================
 !MCSCF STATE 2.1 Doublet Energy             -1391.789306422508
 Nuclear energy                                  0.00000000
 Kinetic energy                               1452.80304647
 One electron energy                         -1924.26500449
 Two electron energy                           532.47569807
 Virial ratio                                    1.95800274
 
 !MCSCF STATE 2.1 Doublet Dipole moment          0.00000000     0.00000000     0.00000000
 Dipole moment /Debye                            0.00000000     0.00000000     0.00000000
 
 Results for state 3.1 Doublet
 =============================
 !MCSCF STATE 3.1 Doublet Energy             -1391.789306422340
 Nuclear energy                                  0.00000000
 Kinetic energy                               1452.80304646
 One electron energy                         -1924.26500447
 Two electron energy                           532.47569805
 Virial ratio                                    1.95800274
 
 !MCSCF STATE 3.1 Doublet Dipole moment          0.00000000     0.00000000     0.00000000
 Dipole moment /Debye                            0.00000000     0.00000000     0.00000000
 
 Results for state 4.1 Doublet
 =============================
 !MCSCF STATE 4.1 Doublet Energy             -1391.789306421909
 Nuclear energy                                  0.00000000
 Kinetic energy                               1452.80304644
 One electron energy                         -1924.26500444
 Two electron energy                           532.47569802
 Virial ratio                                    1.95800274
 
 !MCSCF STATE 4.1 Doublet Dipole moment          0.00000000     0.00000000     0.00000000
 Dipole moment /Debye                            0.00000000     0.00000000     0.00000000
 
 Results for state 5.1 Doublet
 =============================
 !MCSCF STATE 5.1 Doublet Energy             -1391.789306421438
 Nuclear energy                                  0.00000000
 Kinetic energy                               1452.80304643
 One electron energy                         -1924.26500441
 Two electron energy                           532.47569799
 Virial ratio                                    1.95800274
 
 !MCSCF STATE 5.1 Doublet Dipole moment          0.00000000     0.00000000     0.00000000
 Dipole moment /Debye                            0.00000000     0.00000000     0.00000000
 
 Results for state 6.1 Doublet
 =============================
 !MCSCF STATE 6.1 Doublet Energy             -1391.789306421376
 Nuclear energy                                  0.00000000
 Kinetic energy                               1452.80304643
 One electron energy                         -1924.26500440
 Two electron energy                           532.47569798
 Virial ratio                                    1.95800275
 
 !MCSCF STATE 6.1 Doublet Dipole moment          0.00000000     0.00000000     0.00000000
 Dipole moment /Debye                            0.00000000     0.00000000     0.00000000
 
 Results for state 7.1 Doublet
 =============================
 !MCSCF STATE 7.1 Doublet Energy             -1391.789306421326
 Nuclear energy                                  0.00000000
 Kinetic energy                               1452.80304641
 One electron energy                         -1924.26500439
 Two electron energy                           532.47569797
 Virial ratio                                    1.95800275
 
 !MCSCF STATE 7.1 Doublet Dipole moment          0.00000000     0.00000000     0.00000000
 Dipole moment /Debye                            0.00000000     0.00000000     0.00000000
 
 Results for state 8.1 Doublet
 =============================
 !MCSCF STATE 8.1 Doublet Energy             -1391.789306421173
 Nuclear energy                                  0.00000000
 Kinetic energy                               1452.80304640
 One electron energy                         -1924.26500438
 Two electron energy                           532.47569796
 Virial ratio                                    1.95800275
 
 !MCSCF STATE 8.1 Doublet Dipole moment          0.00000000     0.00000000     0.00000000
 Dipole moment /Debye                            0.00000000     0.00000000     0.00000000
 
 Results for state 9.1 Doublet
 =============================
 !MCSCF STATE 9.1 Doublet Energy             -1391.789306420863
 Nuclear energy                                  0.00000000
 Kinetic energy                               1452.80304639
 One electron energy                         -1924.26500436
 Two electron energy                           532.47569794
 Virial ratio                                    1.95800275
 
 !MCSCF STATE 9.1 Doublet Dipole moment          0.00000000     0.00000000     0.00000000
 Dipole moment /Debye                            0.00000000     0.00000000     0.00000000
 
 Results for state 10.1 Doublet
 ==============================
 !MCSCF STATE 10.1 Doublet Energy            -1391.780669069192
 Nuclear energy                                  0.00000000
 Kinetic energy                               1452.81342674
 One electron energy                         -1924.27653133
 Two electron energy                           532.49586227
 Virial ratio                                    1.95798995
 
 !MCSCF STATE 10.1 Doublet Dipole moment         0.00000000     0.00000000     0.00000000
 Dipole moment /Debye                            0.00000000     0.00000000     0.00000000
 
 Results for state 11.1 Doublet
 ==============================
 !MCSCF STATE 11.1 Doublet Energy            -1391.780669069013
 Nuclear energy                                  0.00000000
 Kinetic energy                               1452.81342672
 One electron energy                         -1924.27653132
 Two electron energy                           532.49586225
 Virial ratio                                    1.95798995
 
 !MCSCF STATE 11.1 Doublet Dipole moment         0.00000000     0.00000000     0.00000000
 Dipole moment /Debye                            0.00000000     0.00000000     0.00000000
 
 Results for state 12.1 Doublet
 ==============================
 !MCSCF STATE 12.1 Doublet Energy            -1391.780669068933
 Nuclear energy                                  0.00000000
 Kinetic energy                               1452.81342671
 One electron energy                         -1924.27653130
 Two electron energy                           532.49586223
 Virial ratio                                    1.95798995
 
 !MCSCF STATE 12.1 Doublet Dipole moment         0.00000000     0.00000000     0.00000000
 Dipole moment /Debye                            0.00000000     0.00000000     0.00000000
 
 Results for state 13.1 Doublet
 ==============================
 !MCSCF STATE 13.1 Doublet Energy            -1391.767735786591
 Nuclear energy                                  0.00000000
 Kinetic energy                               1452.80345842
 One electron energy                         -1924.26288766
 Two electron energy                           532.49515187
 Virial ratio                                    1.95798763
 
 !MCSCF STATE 13.1 Doublet Dipole moment         0.00000000     0.00000000     0.00000000
 Dipole moment /Debye                            0.00000000     0.00000000     0.00000000
 
 Results for state 14.1 Doublet
 ==============================
 !MCSCF STATE 14.1 Doublet Energy            -1391.767735786556
 Nuclear energy                                  0.00000000
 Kinetic energy                               1452.80345835
 One electron energy                         -1924.26288754
 Two electron energy                           532.49515175
 Virial ratio                                    1.95798763
 
 !MCSCF STATE 14.1 Doublet Dipole moment         0.00000000     0.00000000     0.00000000
 Dipole moment /Debye                            0.00000000     0.00000000     0.00000000
 
 Results for state 15.1 Doublet
 ==============================
 !MCSCF STATE 15.1 Doublet Energy            -1391.767735786236
 Nuclear energy                                  0.00000000
 Kinetic energy                               1452.80345834
 One electron energy                         -1924.26288753
 Two electron energy                           532.49515175
 Virial ratio                                    1.95798763
 
 !MCSCF STATE 15.1 Doublet Dipole moment         0.00000000     0.00000000     0.00000000
 Dipole moment /Debye                            0.00000000     0.00000000     0.00000000
 
 Results for state 16.1 Doublet
 ==============================
 !MCSCF STATE 16.1 Doublet Energy            -1391.767735785928
 Nuclear energy                                  0.00000000
 Kinetic energy                               1452.80345835
 One electron energy                         -1924.26288757
 Two electron energy                           532.49515178
 Virial ratio                                    1.95798763
 
 !MCSCF STATE 16.1 Doublet Dipole moment         0.00000000     0.00000000     0.00000000
 Dipole moment /Debye                            0.00000000     0.00000000     0.00000000
 
 Results for state 17.1 Doublet
 ==============================
 !MCSCF STATE 17.1 Doublet Energy            -1391.767735785841
 Nuclear energy                                  0.00000000
 Kinetic energy                               1452.80345831
 One electron energy                         -1924.26288752
 Two electron energy                           532.49515173
 Virial ratio                                    1.95798763
 
 !MCSCF STATE 17.1 Doublet Dipole moment         0.00000000     0.00000000     0.00000000
 Dipole moment /Debye                            0.00000000     0.00000000     0.00000000
 
 Results for state 1.1 Quartet
 =============================
 !MCSCF STATE 1.1 Quartet Energy             -1391.868117566785
 Nuclear energy                                  0.00000000
 Kinetic energy                               1452.80112751
 One electron energy                         -1924.26255843
 Two electron energy                           532.39444086
 Virial ratio                                    1.95805826
 
 !MCSCF STATE 1.1 Quartet Dipole moment          0.00000000     0.00000000     0.00000000
 Dipole moment /Debye                            0.00000000     0.00000000     0.00000000
 
 Results for state 2.1 Quartet
 =============================
 !MCSCF STATE 2.1 Quartet Energy             -1391.868117566564
 Nuclear energy                                  0.00000000
 Kinetic energy                               1452.80112749
 One electron energy                         -1924.26255839
 Two electron energy                           532.39444082
 Virial ratio                                    1.95805826
 
 !MCSCF STATE 2.1 Quartet Dipole moment          0.00000000     0.00000000     0.00000000
 Dipole moment /Debye                            0.00000000     0.00000000     0.00000000
 
 Results for state 3.1 Quartet
 =============================
 !MCSCF STATE 3.1 Quartet Energy             -1391.868117566210
 Nuclear energy                                  0.00000000
 Kinetic energy                               1452.80112737
 One electron energy                         -1924.26255821
 Two electron energy                           532.39444064
 Virial ratio                                    1.95805826
 
 !MCSCF STATE 3.1 Quartet Dipole moment          0.00000000     0.00000000     0.00000000
 Dipole moment /Debye                            0.00000000     0.00000000     0.00000000
 
 Results for state 4.1 Quartet
 =============================
 !MCSCF STATE 4.1 Quartet Energy             -1391.868117566063
 Nuclear energy                                  0.00000000
 Kinetic energy                               1452.80112739
 One electron energy                         -1924.26255827
 Two electron energy                           532.39444070
 Virial ratio                                    1.95805826
 
 !MCSCF STATE 4.1 Quartet Dipole moment          0.00000000     0.00000000     0.00000000
 Dipole moment /Debye                            0.00000000     0.00000000     0.00000000
 
 Results for state 5.1 Quartet
 =============================
 !MCSCF STATE 5.1 Quartet Energy             -1391.868117565788
 Nuclear energy                                  0.00000000
 Kinetic energy                               1452.80112731
 One electron energy                         -1924.26255815
 Two electron energy                           532.39444058
 Virial ratio                                    1.95805826
 
 !MCSCF STATE 5.1 Quartet Dipole moment          0.00000000     0.00000000     0.00000000
 Dipole moment /Debye                            0.00000000     0.00000000     0.00000000
 
 Results for state 6.1 Quartet
 =============================
 !MCSCF STATE 6.1 Quartet Energy             -1391.868117565678
 Nuclear energy                                  0.00000000
 Kinetic energy                               1452.80112725
 One electron energy                         -1924.26255801
 Two electron energy                           532.39444045
 Virial ratio                                    1.95805826
 
 !MCSCF STATE 6.1 Quartet Dipole moment          0.00000000     0.00000000     0.00000000
 Dipole moment /Debye                            0.00000000     0.00000000     0.00000000
 
 Results for state 7.1 Quartet
 =============================
 !MCSCF STATE 7.1 Quartet Energy             -1391.868117565180
 Nuclear energy                                  0.00000000
 Kinetic energy                               1452.80112713
 One electron energy                         -1924.26255783
 Two electron energy                           532.39444027
 Virial ratio                                    1.95805826
 
 !MCSCF STATE 7.1 Quartet Dipole moment          0.00000000     0.00000000     0.00000000
 Dipole moment /Debye                            0.00000000     0.00000000     0.00000000
 
 Results for state 8.1 Quartet
 =============================
 !MCSCF STATE 8.1 Quartet Energy             -1391.794437439728
 Nuclear energy                                  0.00000000
 Kinetic energy                               1452.79366499
 One electron energy                         -1924.24613459
 Two electron energy                           532.45169715
 Virial ratio                                    1.95801246
 
 !MCSCF STATE 8.1 Quartet Dipole moment          0.00000000     0.00000000     0.00000000
 Dipole moment /Debye                            0.00000000     0.00000000     0.00000000
 
 Results for state 9.1 Quartet
 =============================
 !MCSCF STATE 9.1 Quartet Energy             -1391.794437439399
 Nuclear energy                                  0.00000000
 Kinetic energy                               1452.79366493
 One electron energy                         -1924.24613450
 Two electron energy                           532.45169706
 Virial ratio                                    1.95801246
 
 !MCSCF STATE 9.1 Quartet Dipole moment          0.00000000     0.00000000     0.00000000
 Dipole moment /Debye                            0.00000000     0.00000000     0.00000000
 
 Results for state 10.1 Quartet
 ==============================
 !MCSCF STATE 10.1 Quartet Energy            -1391.794437438567
 Nuclear energy                                  0.00000000
 Kinetic energy                               1452.79366483
 One electron energy                         -1924.24613442
 Two electron energy                           532.45169698
 Virial ratio                                    1.95801246
 
 !MCSCF STATE 10.1 Quartet Dipole moment         0.00000000     0.00000000     0.00000000
 Dipole moment /Debye                            0.00000000     0.00000000     0.00000000
 
 Results for state 11.1 Quartet
 ==============================
 !MCSCF STATE 11.1 Quartet Energy            -1391.741827363914
 Nuclear energy                                  0.00000000
 Kinetic energy                               1459.67466908
 One electron energy                         -1940.71474906
 Two electron energy                           548.97292169
 Virial ratio                                    1.95346029
 
 !MCSCF STATE 11.1 Quartet Dipole moment         0.00000000     0.00000000     0.00000000
 Dipole moment /Debye                            0.00000000     0.00000000     0.00000000
 
 Results for state 12.1 Quartet
 ==============================
 !MCSCF STATE 12.1 Quartet Energy            -1391.741827363275
 Nuclear energy                                  0.00000000
 Kinetic energy                               1459.67466910
 One electron energy                         -1940.71474909
 Two electron energy                           548.97292173
 Virial ratio                                    1.95346029
 
 !MCSCF STATE 12.1 Quartet Dipole moment         0.00000000     0.00000000     0.00000000
 Dipole moment /Debye                            0.00000000     0.00000000     0.00000000
 
 Results for state 13.1 Quartet
 ==============================
 !MCSCF STATE 13.1 Quartet Energy            -1391.741827361246
 Nuclear energy                                  0.00000000
 Kinetic energy                               1459.67466920
 One electron energy                         -1940.71474922
 Two electron energy                           548.97292185
 Virial ratio                                    1.95346029
 
 !MCSCF STATE 13.1 Quartet Dipole moment         0.00000000     0.00000000     0.00000000
 Dipole moment /Debye                            0.00000000     0.00000000     0.00000000
 
 Results for state 14.1 Quartet
 ==============================
 !MCSCF STATE 14.1 Quartet Energy            -1391.741827359609
 Nuclear energy                                  0.00000000
 Kinetic energy                               1459.67466922
 One electron energy                         -1940.71474928
 Two electron energy                           548.97292192
 Virial ratio                                    1.95346029
 
 !MCSCF STATE 14.1 Quartet Dipole moment         0.00000000     0.00000000     0.00000000
 Dipole moment /Debye                            0.00000000     0.00000000     0.00000000
 
 Results for state 15.1 Quartet
 ==============================
 !MCSCF STATE 15.1 Quartet Energy            -1391.741827358647
 Nuclear energy                                  0.00000000
 Kinetic energy                               1459.67466927
 One electron energy                         -1940.71474934
 Two electron energy                           548.97292198
 Virial ratio                                    1.95346029
 
 !MCSCF STATE 15.1 Quartet Dipole moment         0.00000000     0.00000000     0.00000000
 Dipole moment /Debye                            0.00000000     0.00000000     0.00000000
 
 Results for state 16.1 Quartet
 ==============================
 !MCSCF STATE 16.1 Quartet Energy            -1391.741827355866
 Nuclear energy                                  0.00000000
 Kinetic energy                               1459.67466933
 One electron energy                         -1940.71474947
 Two electron energy                           548.97292212
 Virial ratio                                    1.95346029
 
 !MCSCF STATE 16.1 Quartet Dipole moment         0.00000000     0.00000000     0.00000000
 Dipole moment /Debye                            0.00000000     0.00000000     0.00000000
 
 Results for state 17.1 Quartet
 ==============================
 !MCSCF STATE 17.1 Quartet Energy            -1391.741827352585
 Nuclear energy                                  0.00000000
 Kinetic energy                               1459.67466946
 One electron energy                         -1940.71474965
 Two electron energy                           548.97292230
 Virial ratio                                    1.95346029
 
 !MCSCF STATE 17.1 Quartet Dipole moment         0.00000000     0.00000000     0.00000000
 Dipole moment /Debye                            0.00000000     0.00000000     0.00000000
 
 Results for state 18.1 Quartet
 ==============================
 !MCSCF STATE 18.1 Quartet Energy            -1391.668696813036
 Nuclear energy                                  0.00000000
 Kinetic energy                               1459.66605128
 One electron energy                         -1940.69578164
 Two electron energy                           549.02708483
 Virial ratio                                    1.95341581
 
 !MCSCF STATE 18.1 Quartet Dipole moment         0.00000000     0.00000000     0.00000000
 Dipole moment /Debye                            0.00000000     0.00000000     0.00000000
 
 Results for state 19.1 Quartet
 ==============================
 !MCSCF STATE 19.1 Quartet Energy            -1391.668696811648
 Nuclear energy                                  0.00000000
 Kinetic energy                               1459.66605135
 One electron energy                         -1940.69578173
 Two electron energy                           549.02708492
 Virial ratio                                    1.95341581
 
 !MCSCF STATE 19.1 Quartet Dipole moment         0.00000000     0.00000000     0.00000000
 Dipole moment /Debye                            0.00000000     0.00000000     0.00000000
 
 Results for state 20.1 Quartet
 ==============================
 !MCSCF STATE 20.1 Quartet Energy            -1391.668696811202
 Nuclear energy                                  0.00000000
 Kinetic energy                               1459.66605144
 One electron energy                         -1940.69578180
 Two electron energy                           549.02708499
 Virial ratio                                    1.95341581
 
 !MCSCF STATE 20.1 Quartet Dipole moment         0.00000000     0.00000000     0.00000000
 Dipole moment /Debye                            0.00000000     0.00000000     0.00000000
 
 State-averaged charge density matrix saved on record 2140.2 (density set 1)
 
 No non-zero expectation values
 
 Expectation values for two-electron operators:
 
 ? Warning
 ? Transition properties are only calculated between states of the same symmetry
 ? The problem occurs in mu_properties_expec2

 !MCSCF expec      <1.1 Doublet|LXLX|1.1 Doublet>     3.745454221353
 !MCSCF expec      <2.1 Doublet|LXLX|2.1 Doublet>     6.332841689922
 !MCSCF expec      <3.1 Doublet|LXLX|3.1 Doublet>     6.611585390214
 !MCSCF expec      <4.1 Doublet|LXLX|4.1 Doublet>     5.562463460698
 !MCSCF expec      <5.1 Doublet|LXLX|5.1 Doublet>     4.590370595924
 !MCSCF expec      <6.1 Doublet|LXLX|6.1 Doublet>     4.436795332263
 !MCSCF expec      <7.1 Doublet|LXLX|7.1 Doublet>    13.667020190130
 !MCSCF expec      <8.1 Doublet|LXLX|8.1 Doublet>     6.254464879666
 !MCSCF expec      <9.1 Doublet|LXLX|9.1 Doublet>     8.795485571836
 !MCSCF expec    <10.1 Doublet|LXLX|10.1 Doublet>     0.999999980684
 !MCSCF expec    <11.1 Doublet|LXLX|11.1 Doublet>     0.999999035745
 !MCSCF expec    <12.1 Doublet|LXLX|12.1 Doublet>     0.000001695152
 !MCSCF expec    <13.1 Doublet|LXLX|13.1 Doublet>     3.749792048209
 !MCSCF expec    <14.1 Doublet|LXLX|14.1 Doublet>     3.999997676659
 !MCSCF expec    <15.1 Doublet|LXLX|15.1 Doublet>     1.000000196765
 !MCSCF expec    <16.1 Doublet|LXLX|16.1 Doublet>     1.000000019713
 !MCSCF expec    <17.1 Doublet|LXLX|17.1 Doublet>     0.250101270502
 !MCSCF expec      <1.1 Quartet|LXLX|1.1 Quartet>     6.257913100282
 !MCSCF expec      <2.1 Quartet|LXLX|2.1 Quartet>     3.998394090082
 !MCSCF expec      <3.1 Quartet|LXLX|3.1 Quartet>     8.390912478530
 !MCSCF expec      <4.1 Quartet|LXLX|4.1 Quartet>     1.606352670429
 !MCSCF expec      <5.1 Quartet|LXLX|5.1 Quartet>     0.001608278099
 !MCSCF expec      <6.1 Quartet|LXLX|6.1 Quartet>     4.000000026318
 !MCSCF expec      <7.1 Quartet|LXLX|7.1 Quartet>     3.742101381897
 !MCSCF expec      <8.1 Quartet|LXLX|8.1 Quartet>     0.000000107667
 !MCSCF expec      <9.1 Quartet|LXLX|9.1 Quartet>     0.999999890642
 !MCSCF expec    <10.1 Quartet|LXLX|10.1 Quartet>     0.999999957866
 !MCSCF expec    <11.1 Quartet|LXLX|11.1 Quartet>     5.999882023479
 !MCSCF expec    <12.1 Quartet|LXLX|12.1 Quartet>     3.871031475102
 !MCSCF expec    <13.1 Quartet|LXLX|13.1 Quartet>     1.093269452651
 !MCSCF expec    <14.1 Quartet|LXLX|14.1 Quartet>     8.906729729968
 !MCSCF expec    <15.1 Quartet|LXLX|15.1 Quartet>     0.128973536669
 !MCSCF expec    <16.1 Quartet|LXLX|16.1 Quartet>     3.999999999572
 !MCSCF expec    <17.1 Quartet|LXLX|17.1 Quartet>     4.000120615676
 !MCSCF expec    <18.1 Quartet|LXLX|18.1 Quartet>     0.000000007247
 !MCSCF expec    <19.1 Quartet|LXLX|19.1 Quartet>     0.999999990611
 !MCSCF expec    <20.1 Quartet|LXLX|20.1 Quartet>     0.999999999804
 
 !MCSCF expec      <1.1 Doublet|LYLY|1.1 Doublet>     7.642984902611
 !MCSCF expec      <2.1 Doublet|LYLY|2.1 Doublet>     4.739515811842
 !MCSCF expec      <3.1 Doublet|LYLY|3.1 Doublet>     8.971778884194
 !MCSCF expec      <4.1 Doublet|LYLY|4.1 Doublet>     8.999501909535
 !MCSCF expec      <5.1 Doublet|LYLY|5.1 Doublet>     1.293478687644
 !MCSCF expec      <6.1 Doublet|LYLY|6.1 Doublet>     1.000563241169
 !MCSCF expec      <7.1 Doublet|LYLY|7.1 Doublet>     5.260512937413
 !MCSCF expec      <8.1 Doublet|LYLY|8.1 Doublet>    12.357120530036
 !MCSCF expec      <9.1 Doublet|LYLY|9.1 Doublet>     9.734392559902
 !MCSCF expec    <10.1 Doublet|LYLY|10.1 Doublet>     0.999996815404
 !MCSCF expec    <11.1 Doublet|LYLY|11.1 Doublet>     0.000004381620
 !MCSCF expec    <12.1 Doublet|LYLY|12.1 Doublet>     0.999998469685
 !MCSCF expec    <13.1 Doublet|LYLY|13.1 Doublet>     1.963949814941
 !MCSCF expec    <14.1 Doublet|LYLY|14.1 Doublet>     1.000007521808
 !MCSCF expec    <15.1 Doublet|LYLY|15.1 Doublet>     3.999999713377
 !MCSCF expec    <16.1 Doublet|LYLY|16.1 Doublet>     1.000000006588
 !MCSCF expec    <17.1 Doublet|LYLY|17.1 Doublet>     2.036265539615
 !MCSCF expec      <1.1 Quartet|LYLY|1.1 Quartet>     5.737568391318
 !MCSCF expec      <2.1 Quartet|LYLY|2.1 Quartet>     4.156005371156
 !MCSCF expec      <3.1 Quartet|LYLY|3.1 Quartet>     2.603308569527
 !MCSCF expec      <4.1 Quartet|LYLY|4.1 Quartet>     1.399150446942
 !MCSCF expec      <5.1 Quartet|LYLY|5.1 Quartet>     5.844169571342
 !MCSCF expec      <6.1 Quartet|LYLY|6.1 Quartet>     3.999999982024
 !MCSCF expec      <7.1 Quartet|LYLY|7.1 Quartet>     4.262415527582
 !MCSCF expec      <8.1 Quartet|LYLY|8.1 Quartet>     0.999999928181
 !MCSCF expec      <9.1 Quartet|LYLY|9.1 Quartet>     0.000000111153
 !MCSCF expec    <10.1 Quartet|LYLY|10.1 Quartet>     0.999999992094
 !MCSCF expec    <11.1 Quartet|LYLY|11.1 Quartet>     6.000117888061
 !MCSCF expec    <12.1 Quartet|LYLY|12.1 Quartet>     2.696217229270
 !MCSCF expec    <13.1 Quartet|LYLY|13.1 Quartet>     2.072599417088
 !MCSCF expec    <14.1 Quartet|LYLY|14.1 Quartet>     1.927402500403
 !MCSCF expec    <15.1 Quartet|LYLY|15.1 Quartet>     7.303805855186
 !MCSCF expec    <16.1 Quartet|LYLY|16.1 Quartet>     4.000000000303
 !MCSCF expec    <17.1 Quartet|LYLY|17.1 Quartet>     3.999879380674
 !MCSCF expec    <18.1 Quartet|LYLY|18.1 Quartet>     0.999999993485
 !MCSCF expec    <19.1 Quartet|LYLY|19.1 Quartet>     0.000000092026
 !MCSCF expec    <20.1 Quartet|LYLY|20.1 Quartet>     0.999999949663
 
 !MCSCF expec      <1.1 Doublet|LZLZ|1.1 Doublet>     8.611560876036
 !MCSCF expec      <2.1 Doublet|LZLZ|2.1 Doublet>     8.927642498236
 !MCSCF expec      <3.1 Doublet|LZLZ|3.1 Doublet>     4.416635725592
 !MCSCF expec      <4.1 Doublet|LZLZ|4.1 Doublet>     5.438034629767
 !MCSCF expec      <5.1 Doublet|LZLZ|5.1 Doublet>    14.116150716431
 !MCSCF expec      <6.1 Doublet|LZLZ|6.1 Doublet>    14.562641426568
 !MCSCF expec      <7.1 Doublet|LZLZ|7.1 Doublet>     1.072466872457
 !MCSCF expec      <8.1 Doublet|LZLZ|8.1 Doublet>     1.388414590299
 !MCSCF expec      <9.1 Doublet|LZLZ|9.1 Doublet>     1.470121868262
 !MCSCF expec    <10.1 Doublet|LZLZ|10.1 Doublet>     0.000003203912
 !MCSCF expec    <11.1 Doublet|LZLZ|11.1 Doublet>     0.999996582635
 !MCSCF expec    <12.1 Doublet|LZLZ|12.1 Doublet>     0.999999835163
 !MCSCF expec    <13.1 Doublet|LZLZ|13.1 Doublet>     0.286258136851
 !MCSCF expec    <14.1 Doublet|LZLZ|14.1 Doublet>     0.999994801533
 !MCSCF expec    <15.1 Doublet|LZLZ|15.1 Doublet>     1.000000089858
 !MCSCF expec    <16.1 Doublet|LZLZ|16.1 Doublet>     3.999999973698
 !MCSCF expec    <17.1 Doublet|LZLZ|17.1 Doublet>     3.713633189884
 !MCSCF expec      <1.1 Quartet|LZLZ|1.1 Quartet>     0.004518508401
 !MCSCF expec      <2.1 Quartet|LZLZ|2.1 Quartet>     3.845600538762
 !MCSCF expec      <3.1 Quartet|LZLZ|3.1 Quartet>     1.005778951943
 !MCSCF expec      <4.1 Quartet|LZLZ|4.1 Quartet>     8.994496882629
 !MCSCF expec      <5.1 Quartet|LZLZ|5.1 Quartet>     6.154222150558
 !MCSCF expec      <6.1 Quartet|LZLZ|6.1 Quartet>     3.999999991658
 !MCSCF expec      <7.1 Quartet|LZLZ|7.1 Quartet>     3.995483090520
 !MCSCF expec      <8.1 Quartet|LZLZ|8.1 Quartet>     0.999999964151
 !MCSCF expec      <9.1 Quartet|LZLZ|9.1 Quartet>     0.999999998205
 !MCSCF expec    <10.1 Quartet|LZLZ|10.1 Quartet>     0.000000050040
 !MCSCF expec    <11.1 Quartet|LZLZ|11.1 Quartet>     0.000000088459
 !MCSCF expec    <12.1 Quartet|LZLZ|12.1 Quartet>     5.432751295628
 !MCSCF expec    <13.1 Quartet|LZLZ|13.1 Quartet>     8.834131130260
 !MCSCF expec    <14.1 Quartet|LZLZ|14.1 Quartet>     1.165867769629
 !MCSCF expec    <15.1 Quartet|LZLZ|15.1 Quartet>     4.567220608145
 !MCSCF expec    <16.1 Quartet|LZLZ|16.1 Quartet>     4.000000000125
 !MCSCF expec    <17.1 Quartet|LZLZ|17.1 Quartet>     4.000000003650
 !MCSCF expec    <18.1 Quartet|LZLZ|18.1 Quartet>     0.999999999269
 !MCSCF expec    <19.1 Quartet|LZLZ|19.1 Quartet>     0.999999917363
 !MCSCF expec    <20.1 Quartet|LZLZ|20.1 Quartet>     0.000000050533
 
 !MCSCF expec      <1.1 Doublet|L**2|1.1 Doublet>    20.000000000000
 !MCSCF expec      <2.1 Doublet|L**2|2.1 Doublet>    20.000000000000
 !MCSCF expec      <3.1 Doublet|L**2|3.1 Doublet>    20.000000000000
 !MCSCF expec      <4.1 Doublet|L**2|4.1 Doublet>    20.000000000000
 !MCSCF expec      <5.1 Doublet|L**2|5.1 Doublet>    20.000000000000
 !MCSCF expec      <6.1 Doublet|L**2|6.1 Doublet>    20.000000000000
 !MCSCF expec      <7.1 Doublet|L**2|7.1 Doublet>    20.000000000000
 !MCSCF expec      <8.1 Doublet|L**2|8.1 Doublet>    20.000000000000
 !MCSCF expec      <9.1 Doublet|L**2|9.1 Doublet>    20.000000000000
 !MCSCF expec    <10.1 Doublet|L**2|10.1 Doublet>     2.000000000000
 !MCSCF expec    <11.1 Doublet|L**2|11.1 Doublet>     2.000000000000
 !MCSCF expec    <12.1 Doublet|L**2|12.1 Doublet>     2.000000000000
 !MCSCF expec    <13.1 Doublet|L**2|13.1 Doublet>     6.000000000000
 !MCSCF expec    <14.1 Doublet|L**2|14.1 Doublet>     6.000000000000
 !MCSCF expec    <15.1 Doublet|L**2|15.1 Doublet>     6.000000000000
 !MCSCF expec    <16.1 Doublet|L**2|16.1 Doublet>     6.000000000000
 !MCSCF expec    <17.1 Doublet|L**2|17.1 Doublet>     6.000000000000
 !MCSCF expec      <1.1 Quartet|L**2|1.1 Quartet>    12.000000000000
 !MCSCF expec      <2.1 Quartet|L**2|2.1 Quartet>    12.000000000000
 !MCSCF expec      <3.1 Quartet|L**2|3.1 Quartet>    12.000000000000
 !MCSCF expec      <4.1 Quartet|L**2|4.1 Quartet>    12.000000000000
 !MCSCF expec      <5.1 Quartet|L**2|5.1 Quartet>    12.000000000000
 !MCSCF expec      <6.1 Quartet|L**2|6.1 Quartet>    12.000000000000
 !MCSCF expec      <7.1 Quartet|L**2|7.1 Quartet>    12.000000000000
 !MCSCF expec      <8.1 Quartet|L**2|8.1 Quartet>     2.000000000000
 !MCSCF expec      <9.1 Quartet|L**2|9.1 Quartet>     2.000000000000
 !MCSCF expec    <10.1 Quartet|L**2|10.1 Quartet>     2.000000000000
 !MCSCF expec    <11.1 Quartet|L**2|11.1 Quartet>    12.000000000000
 !MCSCF expec    <12.1 Quartet|L**2|12.1 Quartet>    12.000000000000
 !MCSCF expec    <13.1 Quartet|L**2|13.1 Quartet>    12.000000000000
 !MCSCF expec    <14.1 Quartet|L**2|14.1 Quartet>    12.000000000000
 !MCSCF expec    <15.1 Quartet|L**2|15.1 Quartet>    12.000000000000
 !MCSCF expec    <16.1 Quartet|L**2|16.1 Quartet>    12.000000000000
 !MCSCF expec    <17.1 Quartet|L**2|17.1 Quartet>    12.000000000000
 !MCSCF expec    <18.1 Quartet|L**2|18.1 Quartet>     2.000000000000
 !MCSCF expec    <19.1 Quartet|L**2|19.1 Quartet>     2.000000000000
 !MCSCF expec    <20.1 Quartet|L**2|20.1 Quartet>     2.000000000000
 
 EXTRA SYMMETRY OF MOS IN SYMMETRY 1:   1 1 1 1 4 5 2 6 3 1   5 4 2 6 3 1 5 4 2 6   3 1 5 4 2 6 3111013   81415 712 9 1 5 6 3
                                        2 4111013 81514 712   9 3 6 5 2 4 1
 EXTRA SYMMETRY OF MOS IN SYMMETRY 2:   2 1 3 3 1 2 2 1 3 2   1 3 2 1 310 4 9 7 6   5 8 2 1 310 7 9 5 4   6 8 2 1 3 7 9 5 810
                                        6 4 2 3 1
 
  NATURAL ORBITALS (STATE AVERAGED)
  =================================

  Orbital  Occupation    Energy    Cen Mu Typ  Coefficients
    1.1     2.00000  -285.71973     1  1  s    0.97813
    2.1     2.00000   -35.35233     1  2  s    0.99623
    3.1     1.99964    -4.61758     1  3  s    0.98667
    4.1     1.72922    -0.22088     1  4  s    1.02053
    5.1     1.45485    -0.33003     1  1  d1+  1.00189
    6.1     1.45485    -0.33003     1  1  d2+  1.00189
    7.1     1.45484    -0.33002     1  1  d0  -1.00189
    8.1     1.45482    -0.33002     1  1  d1-  1.00189
    9.1     1.45482    -0.33001     1  1  d2-  1.00189
    1.2     2.00000   -30.11329     1  1  py   0.99900
    2.2     2.00000   -30.11329     1  1  px   0.99900
    3.2     2.00000   -30.11329     1  1  pz   0.99900
    4.2     1.99899    -3.03549     1  2  pz   0.99862
    5.2     1.99899    -3.03549     1  2  px   0.99862
    6.2     1.99899    -3.03549     1  2  py   0.99862
 
 Natural orbital dump (state averaged) at molpro section 2140.2 (Orbital set 2)
 
 Transform the CI vectors
 
 CI Coefficients of symmetry 1 (Doublet)
 =======================================

 State:                1               2               3               4               5               6               7
 222a022 222      0.00001807      0.00003869     -0.57469109      0.00001204      0.10676573     -0.00010015      0.00001264
 22a22ab 222     -0.00001807     -0.00003869      0.57469103     -0.00001204     -0.10676571      0.00010015     -0.00001264
 222ab2a 222      0.00000000     -0.00000000      0.00000000      0.00000000     -0.00000000     -0.00000001      0.00000000
 222202a 222      0.00044969      0.00003239     -0.00000537      0.54886539      0.00008966      0.20252350     -0.00057614
 22ab2a2 222     -0.00044969     -0.00003239      0.00000537     -0.54886530     -0.00008966     -0.20252346      0.00057614
 2222a20 222     -0.00005038     -0.00004372      0.08938874      0.00010726      0.53273436     -0.00047842     -0.00004283
 2220a22 222      0.00001957      0.00004182     -0.07733242     -0.00002232     -0.30269829      0.00029345      0.00007161
 22aab22 222      0.50175738     -0.00028339      0.00002318     -0.00039136      0.00004255      0.00006048      0.00002340
 222aba2 222      0.00027088      0.48882272      0.00003459     -0.00002310      0.00002400     -0.00039510     -0.13324516
 222a202 222      0.00003911      0.00002819      0.06625984     -0.00009590     -0.48805282      0.00043936      0.00003393
 22aa2b2 222      0.00015207      0.00003028     -0.00000271      0.14047527      0.00039951      0.46430018     -0.00129006
 22a2b2a 222     -0.00025517     -0.45475084     -0.00004763      0.00001193     -0.00005938     -0.00059441     -0.22339078
 2222aba 222      0.06199485     -0.00000888      0.00000082     -0.00006839     -0.00001028     -0.00066961     -0.00017590
 22a22ba 222     -0.00000791     -0.00001687     -0.22037367      0.00002535      0.31552727     -0.00030421     -0.00005570
 220a222 222     -0.00004815     -0.00004753      0.22108566      0.00008988      0.43466999     -0.00038929     -0.00004025
 22b2a2a 222      0.00006935      0.11751170      0.00002893      0.00000719      0.00005517      0.00118765      0.43109955
 2222baa 222     -0.42281418      0.00021920     -0.00001800      0.00034482     -0.00002420      0.00045685      0.00011437
 222ba2a 222     -0.00008404      0.00001627     -0.00000002     -0.15468068      0.00040955      0.41920074     -0.00115700
 222aa2b 222      0.00008404     -0.00001627      0.00000002      0.15468067     -0.00040955     -0.41920074      0.00115700
 22b22aa 222      0.00002599      0.00005556     -0.35431736     -0.00001331     -0.20876156      0.00020407      0.00006834
 222220a 222     -0.00003964     -0.00002219      0.00000136     -0.00325894     -0.00037709     -0.41366932      0.00114602
 22022a2 222     -0.00001814     -0.03934285      0.00001507      0.00001290      0.00004085      0.00114259      0.41180768
 22ba2a2 222      0.00029763      0.00000211     -0.00000267      0.40839003     -0.00030985     -0.26177672      0.00071392
 22a2202 222      0.09115575     -0.00007411      0.00000598     -0.00005375      0.00002119      0.00059736      0.00015909
 222aab2 222     -0.00010600     -0.19701282      0.00000152      0.00001887      0.00002738      0.00112121      0.40105099
 222a2ba 222     -0.04557787      0.00003706     -0.00000299      0.00002687     -0.00001059     -0.00029868     -0.00007954
 22ba22a 222      0.00000907      0.01967142     -0.00000753     -0.00000645     -0.00002043     -0.00057129     -0.20590386
 22baa22 222     -0.24619566      0.00015865     -0.00001290      0.00017700     -0.00003253     -0.00053748     -0.00014558
 2222a02 222      0.00001801      0.00000653     -0.08897767     -0.00004073     -0.09960769      0.00007803     -0.00001257
 22a0222 222      0.19853399     -0.00008950      0.00000740     -0.00017221      0.00000338     -0.00056244     -0.00014557
 2222aab 222      0.36081933     -0.00021032      0.00001718     -0.00027642      0.00003448      0.00021276      0.00006153
 22222a0 222      0.00016546      0.30189337      0.00001243     -0.00001979     -0.00000657     -0.00079941     -0.28283298
 22220a2 222     -0.00000907     -0.01967142      0.00000753      0.00000645      0.00002043      0.00057129      0.20590385
 22202a2 222     -0.00013825     -0.24287907     -0.00003503      0.00000044     -0.00005471     -0.00091448     -0.33487856
 220222a 222     -0.00018520      0.00000599      0.00000132     -0.27117371      0.00033226      0.31240760     -0.00085796
 22a2220 222     -0.33526765      0.00020067     -0.00001637      0.00025283     -0.00003516     -0.00033359     -0.00009306
 22a2022 222      0.04557788     -0.00003706      0.00000299     -0.00002687      0.00001059      0.00029868      0.00007954
 2202a22 222      0.00001280     -0.00000464      0.07692136     -0.00004421     -0.13042832      0.00010694     -0.00001622
 22a2a2b 222      0.00018582      0.33723914      0.00001871     -0.00001913      0.00000421     -0.00059324     -0.20770877
 222baa2 222     -0.00016487     -0.29180990     -0.00003610      0.00000423     -0.00005138     -0.00072611     -0.26780584
 22aba22 222     -0.25556171      0.00012474     -0.00001028      0.00021436     -0.00001001      0.00047701      0.00012217
 22b2aa2 222      0.00006491      0.00000468     -0.00000078      0.07922190      0.00001294      0.02923175     -0.00008316
 22a2ab2 222     -0.00006491     -0.00000468      0.00000078     -0.07922189     -0.00001294     -0.02923175      0.00008316
 222a2ab 222      0.28968975     -0.00016361      0.00001338     -0.00022595      0.00002456      0.00003492      0.00001351
 222a220 222     -0.00000904     -0.00001934      0.28734554     -0.00000602     -0.05338287      0.00005007     -0.00000632
 22aa22b 222     -0.00015639     -0.28222194     -0.00001997      0.00001334     -0.00001386      0.00022811      0.07692913
 222022a 222     -0.00022485     -0.00001620      0.00000269     -0.27443268     -0.00004483     -0.10126175      0.00028807
 22ab22a 222      0.00014732      0.26255051      0.00002750     -0.00000689      0.00003428      0.00034318      0.12897472
 222b2aa 222     -0.24411188      0.00012656     -0.00001039      0.00019908     -0.00001397      0.00026376      0.00006603
 22a2ba2 222      0.00000000      0.00000000      0.00000000     -0.00000000     -0.00000000     -0.00000000     -0.00000000
 
 Energy:      -1391.78930642  -1391.78930642  -1391.78930642  -1391.78930642  -1391.78930642  -1391.78930642  -1391.78930642

 State:                8               9              10              11              12              13              14
 222a022 222      0.00000129     -0.02451191     -0.00000000     -0.00000000     -0.00000000     -0.14285311     -0.00043887
 22a22ab 222     -0.00000129      0.02451190     -0.00000000     -0.00000000      0.00000000     -0.10033716     -0.00030825
 222ab2a 222     -0.00000000      0.00000000      0.55001115     -0.00098144      0.00007741     -0.00000000     -0.00000000
 222202a 222      0.00032807     -0.00004128     -0.00000001      0.00000000     -0.00000000      0.00003603     -0.00001667
 22ab2a2 222     -0.00032807      0.00004128      0.00000000     -0.00000000     -0.00000000      0.00002531     -0.00001171
 2222a20 222      0.00001473      0.22466232      0.00000000     -0.00000000     -0.00000000      0.51454482      0.00173730
 2220a22 222     -0.00001756      0.49463415      0.00000000     -0.00000000     -0.00000000      0.51454480      0.00173730
 22aab22 222     -0.07029557      0.00000728     -0.00012269     -0.06875135      0.00006749     -0.00000520     -0.00008821
 222aba2 222     -0.00008170     -0.00000172     -0.00000956      0.00006751      0.06875148     -0.00108967      0.32482513
 222a202 222     -0.00001308     -0.18843525      0.00000000     -0.00000000      0.00000000      0.22030223      0.00077202
 22aa2b2 222      0.00070249     -0.00002485      0.35724269     -0.00063747      0.00005028     -0.00001265      0.00000586
 22a2b2a 222     -0.00006308      0.00002736     -0.00000956      0.00006751      0.06875148     -0.00108967      0.32482510
 2222aba 222      0.44250810      0.00000751     -0.00049076     -0.27500541      0.00026998     -0.00000000      0.00000000
 22a22ba 222      0.00001585     -0.44062165      0.00000000     -0.00000000      0.00000000      0.36315530      0.00121089
 220a222 222      0.00001244      0.20069121     -0.00000000      0.00000000     -0.00000000     -0.40567130     -0.00134151
 22b2a2a 222      0.00016581     -0.00003476     -0.00003822      0.00027004      0.27500585     -0.00000000      0.00000000
 2222baa 222     -0.27915938     -0.00001110     -0.00012269     -0.06875137      0.00006749     -0.00000520     -0.00008821
 222ba2a 222      0.00062176     -0.00000487     -0.27500556      0.00049072     -0.00003870      0.00000000     -0.00000000
 222aa2b 222     -0.00062176      0.00000487     -0.27500559      0.00049072     -0.00003870      0.00000000      0.00000000
 22b22aa 222     -0.00001456      0.41610975     -0.00000000      0.00000000     -0.00000000     -0.26281814     -0.00090264
 222220a 222     -0.00062047      0.00001453      0.35724268     -0.00063747      0.00005028      0.00002338     -0.00001082
 22022a2 222      0.00016718     -0.00002961      0.00004965     -0.00035080     -0.35724309      0.00116227     -0.34646903
 22ba2a2 222     -0.00037442     -0.00001642     -0.35724269      0.00063747     -0.00005028     -0.00001265      0.00000586
 22a2202 222     -0.40351579     -0.00000441     -0.00063752     -0.35724251      0.00035071     -0.00000555     -0.00009408
 222aab2 222      0.00017201     -0.00002507     -0.00003822      0.00027004      0.27500584      0.00000000     -0.00000003
 222a2ba 222      0.20175791      0.00000220     -0.00042501     -0.23816171      0.00023381      0.00000601      0.00010185
 22ba22a 222     -0.00008359      0.00001480      0.00003310     -0.00023386     -0.23816208     -0.00125824      0.37507569
 22baa22 222      0.37288683      0.00000139     -0.00049076     -0.27500542      0.00026998     -0.00000000      0.00000000
 2222a02 222      0.00000160     -0.36318618      0.00000000      0.00000000      0.00000000     -0.11445857     -0.00036002
 22a0222 222      0.36293065      0.00000861      0.00063752      0.35724255     -0.00035071     -0.00000555     -0.00009408
 2222aab 222     -0.16334872      0.00000358      0.00061345      0.34375678     -0.00033747      0.00000520      0.00008821
 22222a0 222     -0.00013076      0.00001381     -0.00004965      0.00035080      0.35724313      0.00116227     -0.34646905
 22220a2 222      0.00008359     -0.00001480      0.00004965     -0.00035080     -0.35724312     -0.00009596      0.02860661
 22202a2 222     -0.00012001      0.00003060     -0.00004965      0.00035080      0.35724311      0.00116227     -0.34646902
 220222a 222      0.00045644      0.00000610     -0.35724270      0.00063747     -0.00005028      0.00002338     -0.00001082
 22a2220 222      0.24234309     -0.00000200      0.00063752      0.35724257     -0.00035071     -0.00000555     -0.00009408
 22a2022 222     -0.20175792     -0.00000220     -0.00063752     -0.35724256      0.00035071      0.00000046      0.00000777
 2202a22 222      0.00000123     -0.35611022      0.00000000      0.00000000      0.00000000      0.05933047      0.00017389
 22a2a2b 222     -0.00010273      0.00000740      0.00004778     -0.00033755     -0.34375733      0.00108967     -0.32482510
 222baa2 222     -0.00009031      0.00002679      0.00004778     -0.00033755     -0.34375732      0.00108967     -0.32482511
 22aba22 222     -0.30259126     -0.00000867      0.00061345      0.34375677     -0.00033747      0.00000520      0.00008821
 22b2aa2 222      0.00004735     -0.00000596      0.06875139     -0.00012268      0.00000968      0.00002192     -0.00001014
 22a2ab2 222     -0.00004735      0.00000596      0.06875141     -0.00012268      0.00000968     -0.00002192      0.00001014
 222a2ab 222     -0.04058516      0.00000420      0.00021251      0.11908086     -0.00011690     -0.00000300     -0.00005093
 222a220 222     -0.00000065      0.01225595     -0.00000000      0.00000000      0.00000000      0.05782119      0.00017764
 22aa22b 222      0.00004717      0.00000099     -0.00001655      0.00011693      0.11908105      0.00062912     -0.18753787
 222022a 222     -0.00016403      0.00002064      0.00000001     -0.00000000      0.00000000     -0.00001458      0.00000675
 22ab22a 222      0.00003642     -0.00001580     -0.00001655      0.00011693      0.11908103      0.00062912     -0.18753782
 222b2aa 222     -0.16117274     -0.00000641      0.00021251      0.11908084     -0.00011690     -0.00000300     -0.00005093
 22a2ba2 222     -0.00000000     -0.00000000     -0.13750280      0.00024536     -0.00001935     -0.00000000      0.00000000
 
 Energy:      -1391.78930642  -1391.78930642  -1391.78066907  -1391.78066907  -1391.78066907  -1391.76773579  -1391.76773579

 State:               15              16              17
 222a022 222     -0.00003149      0.00004042      0.51454779
 22a22ab 222     -0.00002212      0.00002839      0.36140807
 222ab2a 222      0.00000000      0.00000002     -0.00000000
 222202a 222      0.00008830      0.53400993     -0.00003196
 22ab2a2 222      0.00006202      0.37507790     -0.00002244
 2222a20 222     -0.00001813     -0.00002611      0.14285375
 2220a22 222     -0.00001813     -0.00002611      0.14285378
 22aab22 222     -0.32482697      0.00005371     -0.00002140
 222aba2 222     -0.00008819      0.00001023     -0.00002548
 222a202 222     -0.00003146      0.00001034      0.42073867
 22aa2b2 222     -0.00003101     -0.18753895      0.00001122
 22a2b2a 222     -0.00008819      0.00001023     -0.00002548
 2222aba 222      0.00000001     -0.00000000      0.00000000
 22a22ba 222      0.00000003     -0.00003008     -0.09380910
 220a222 222     -0.00000940      0.00004211      0.24694878
 22b2a2a 222     -0.00000000      0.00000000      0.00000000
 2222baa 222     -0.32482694      0.00005371     -0.00002140
 222ba2a 222     -0.00000000     -0.00000002      0.00000000
 222aa2b 222     -0.00000000      0.00000001      0.00000000
 22b22aa 222      0.00002208      0.00000169     -0.26759897
 222220a 222      0.00005729      0.34647098     -0.00002073
 22022a2 222      0.00009406     -0.00001091      0.00002717
 22ba2a2 222     -0.00003101     -0.18753895      0.00001122
 22a2202 222     -0.34647097      0.00005729     -0.00002283
 222aab2 222      0.00000000      0.00000000     -0.00000000
 222a2ba 222      0.37507778     -0.00006202      0.00002471
 22ba22a 222     -0.00010183      0.00001181     -0.00002942
 22baa22 222      0.00000003      0.00000000      0.00000000
 2222a02 222     -0.00001818      0.00002599      0.30533582
 22a0222 222     -0.34647095      0.00005729     -0.00002283
 2222aab 222      0.32482693     -0.00005371      0.00002140
 22222a0 222      0.00009406     -0.00001091      0.00002717
 22220a2 222     -0.00000777      0.00000090     -0.00000224
 22202a2 222      0.00009406     -0.00001091      0.00002717
 220222a 222      0.00005729      0.34647098     -0.00002073
 22a2220 222     -0.34647099      0.00005729     -0.00002283
 22a2022 222      0.02860675     -0.00000473      0.00000188
 2202a22 222      0.00002012     -0.00002319     -0.32064110
 22a2a2b 222      0.00008819     -0.00001023      0.00002548
 222baa2 222      0.00008819     -0.00001023      0.00002548
 22aba22 222      0.32482693     -0.00005371      0.00002140
 22b2aa2 222      0.00005371      0.32482689     -0.00001944
 22a2ab2 222     -0.00005371     -0.32482688      0.00001944
 222a2ab 222     -0.18753891      0.00003101     -0.00001236
 222a220 222      0.00001274     -0.00001636     -0.20826820
 22aa22b 222      0.00005091     -0.00000591      0.00001471
 222022a 222     -0.00003574     -0.21614569      0.00001293
 22ab22a 222      0.00005091     -0.00000591      0.00001471
 222b2aa 222     -0.18753887      0.00003101     -0.00001236
 22a2ba2 222     -0.00000000     -0.00000001      0.00000000
 
 Energy:      -1391.76773579  -1391.76773579  -1391.76773579
 
 
 CI Coefficients of symmetry 1 (Quartet)
 =======================================

 State:                1               2               3               4               5               6               7
 2a22a2a 222      0.00000000      0.00000000     -0.00000000     -0.00000000      0.00000000      0.00000000      0.00000000
 2a2aa22 222      0.00000000     -0.00000000      0.00000000      0.00000000     -0.00000000     -0.00000000      0.00000000
 22a22aa 222     -0.00005366      0.00034180      0.00005351     -0.00001278     -0.00037390      0.99950098      0.00002448
 22aa2a2 222     -0.03359040      0.00003306      0.00029579      0.00027040     -0.00025203     -0.00002639      0.99893640
 2aa22a2 222      0.00000000      0.00000000     -0.00000000     -0.00000000      0.00000000      0.00000000     -0.00000000
 222aaa2 222     -0.00018581      0.01791578      0.00057981     -0.00007992      0.89380114      0.00032818      0.00021852
 2a2a22a 222     -0.00000000     -0.00000000      0.00000000     -0.00000000     -0.00000000     -0.00000000      0.00000000
 222aa2a 222      0.89347582      0.00048588     -0.00014511      0.00011952      0.00016875      0.00004714      0.03004421
 22a2aa2 222     -0.44673790     -0.00024294      0.00007255     -0.00005976     -0.00008437     -0.00002357     -0.01502210
 2a2a2a2 222      0.00000000     -0.00000000     -0.00000000      0.00000000     -0.00000000     -0.00000000     -0.00000000
 2aa222a 222      0.00000000     -0.00000000      0.00000000     -0.00000000      0.00000000      0.00000000      0.00000000
 22a2a2a 222     -0.00041924      0.86094039     -0.00023136     -0.00005146     -0.24079709     -0.00038451     -0.00010327
 2aaa222 222      0.00000000      0.00000000      0.00000000      0.00000000     -0.00000000     -0.00000000     -0.00000000
 2a22aa2 222     -0.00000000      0.00000000      0.00000000     -0.00000000      0.00000000      0.00000000      0.00000000
 2aa2a22 222      0.00000000      0.00000000     -0.00000000     -0.00000000      0.00000000      0.00000000      0.00000000
 222a2aa 222      0.00010673      0.00005632      0.63191160      0.01698562     -0.00040945     -0.00003378     -0.00018823
 22aa22a 222      0.00034933     -0.50740785     -0.00020118      0.00007585     -0.37701207      0.00003252     -0.00006654
 22aaa22 222      0.00000114      0.00010664      0.52826099      0.72120878     -0.00028024     -0.00001919     -0.00035168
 2222aaa 222      0.00018373     -0.00000909      0.56624199     -0.69178882     -0.00042895     -0.00003931      0.00002566
 2a222aa 222      0.00000000      0.00000000      0.00000000     -0.00000000     -0.00000000     -0.00000000     -0.00000000
 
 Energy:      -1391.86811757  -1391.86811757  -1391.86811757  -1391.86811757  -1391.86811757  -1391.86811757  -1391.86811757

 State:                8               9              10              11              12              13              14
 2a22a2a 222     -0.00000000     -0.00000000      0.00000000     -0.00001523      0.00000611     -0.00003110      0.00003412
 2a2aa22 222      0.00000000     -0.00000000     -0.00000000      0.00001151      0.00005002     -0.00000140     -0.00000185
 22a22aa 222     -0.00000000      0.00000000     -0.00000000     -0.00000000     -0.00000000     -0.00000000      0.00000000
 22aa2a2 222      0.00000000      0.00000000     -0.00000000      0.00000000     -0.00000000     -0.00000000      0.00000000
 2aa22a2 222     -0.00000002     -0.00000000      0.00009723      0.89442630     -0.00009436      0.00004007      0.00004840
 222aaa2 222      0.44666201     -0.00011970      0.00008456      0.00000000      0.00000000      0.00000000     -0.00000000
 2a2a22a 222     -0.00000004     -0.00000001      0.00019448     -0.44721310      0.00004718     -0.00002004     -0.00002420
 222aa2a 222     -0.00008457     -0.00001893      0.44666201      0.00000000     -0.00000000      0.00000000      0.00000000
 22a2aa2 222     -0.00016914     -0.00003786      0.89332403      0.00000001     -0.00000000      0.00000000      0.00000000
 2a2a2a2 222     -0.00009724      0.00000003     -0.00000002      0.00009490      0.89209991     -0.00001946     -0.00000848
 2aa222a 222     -0.00009724      0.00000003     -0.00000002     -0.00002769     -0.16060402      0.00000271     -0.00002431
 22a2a2a 222      0.44666200     -0.00011970      0.00008456     -0.00000000     -0.00000000     -0.00000000      0.00000000
 2aaa222 222     -0.00000003     -0.00009724     -0.00000000     -0.00005870      0.00002217      0.77860465      0.44019675
 2a22aa2 222      0.00016842     -0.00000005      0.00000003      0.00003881      0.42232932     -0.00000967     -0.00001893
 2aa2a22 222     -0.00000005     -0.00016842     -0.00000001      0.00003795     -0.00000929     -0.09106824     -0.62586399
 222a2aa 222      0.00020733      0.77364129      0.00003282     -0.00000000     -0.00000000      0.00000000     -0.00000000
 22aa22a 222      0.77364127     -0.00020733      0.00014647      0.00000000     -0.00000000     -0.00000000      0.00000000
 22aaa22 222     -0.00011970     -0.44666201     -0.00001895      0.00000000     -0.00000000     -0.00000000     -0.00000000
 2222aaa 222     -0.00011970     -0.44666201     -0.00001895      0.00000000      0.00000000      0.00000000     -0.00000000
 2a222aa 222     -0.00000003     -0.00009724     -0.00000000     -0.00000703     -0.00000608     -0.62086982      0.64383154
 
 Energy:      -1391.79443744  -1391.79443744  -1391.79443744  -1391.74182736  -1391.74182736  -1391.74182736  -1391.74182736

 State:               15              16              17              18              19              20
 2a22a2a 222     -0.00000255      0.00001277      0.99999898      0.00000000     -0.00000000     -0.00000000
 2a2aa22 222      0.00000943      0.99999898     -0.00001277      0.00000000     -0.00000000      0.00000000
 22a22aa 222      0.00000000     -0.00000000      0.00000000      0.00000000     -0.00000000      0.00000000
 22aa2a2 222      0.00000000     -0.00000000      0.00000000      0.00000000      0.00000000      0.00000000
 2aa22a2 222      0.00001092     -0.00001029      0.00001362     -0.00001208      0.00012845      0.44683379
 222aaa2 222     -0.00000000     -0.00000000      0.00000000     -0.00010241      0.00000001     -0.00000000
 2a2a22a 222     -0.00000546      0.00000514     -0.00000681     -0.00002417      0.00025690      0.89366769
 222aa2a 222      0.00000000     -0.00000000     -0.00000000      0.00000000     -0.00000003     -0.00010240
 22a2aa2 222      0.00000000     -0.00000000     -0.00000000      0.00000001     -0.00000006     -0.00020480
 2a2a2a2 222     -0.06446808     -0.00004401     -0.00000562     -0.44683383      0.00003606     -0.00001210
 2aa222a 222      0.87988903     -0.00000027      0.00000322     -0.44683386      0.00003606     -0.00001210
 22a2a2a 222      0.00000000     -0.00000000     -0.00000000     -0.00010241      0.00000001     -0.00000000
 2aaa222 222      0.00001381      0.00000191      0.00000919      0.00003607      0.44683382     -0.00012845
 2a22aa2 222      0.47078352     -0.00002556     -0.00000138      0.77393894     -0.00006246      0.00002095
 2aa2a22 222     -0.00001871     -0.00000129      0.00001853      0.00006247      0.77393891     -0.00022248
 222a2aa 222     -0.00000000      0.00000000      0.00000000      0.00000001      0.00017737     -0.00000005
 22aa22a 222      0.00000000     -0.00000000     -0.00000000     -0.00017737      0.00000001     -0.00000000
 22aaa22 222      0.00000000     -0.00000000      0.00000000     -0.00000001     -0.00010240      0.00000003
 2222aaa 222     -0.00000000     -0.00000000     -0.00000000     -0.00000001     -0.00010241      0.00000003
 2a222aa 222      0.00001859      0.00000032     -0.00004128      0.00003607      0.44683382     -0.00012845
 
 Energy:      -1391.74182736  -1391.74182736  -1391.74182735  -1391.66869681  -1391.66869681  -1391.66869681
 


 **********************************************************************************************************************************
 DATASETS  * FILE   NREC   LENGTH (MB)   RECORD NAMES
              1      24       36.48       500      610      700      900      950      970     1000      129      960     1700   
                                          VAR    BASINP    GEOM    SYMINP    ZMAT    AOBASIS   BASIS     P2S    ABASIS    OPER   
                                         1101     1401     1411     1412     1650     1100     1400     1410     1200     1210   
                                          SR      EKINR    POTR     PVPR    MOLCAS      S      EKIN      POT      H0       H01  
                                         1080     1600     1380     1700(1)
                                         AOSYM     SMH     JKOP     OPER   

              2       5        0.83       700     1000      520     2100     2140   
                                         GEOM     BASIS   MCVARS     RHF     MCSCF   

 PROGRAMS   *        TOTAL     MULTI   RHF-SCF       INT
 CPU TIMES  *         6.45      4.40      0.84      0.88
 REAL TIME  *         9.28 SEC
 DISK USED  *        37.40 MB (local),      505.38 MB (total)
 SF USED    *        22.54 MB
 GA USED    *         0.00 MB       (max)       0.00 MB       (current)
 **********************************************************************************************************************************

 Energies and &lt;L**2&gt; values

          ENERGY     LL
    -1391.789306   20.0
    -1391.789306   20.0
    -1391.789306   20.0
    -1391.789306   20.0
    -1391.789306   20.0
    -1391.789306   20.0
    -1391.789306   20.0
    -1391.789306   20.0
    -1391.789306   20.0
    -1391.780669    2.0
    -1391.780669    2.0
    -1391.780669    2.0
    -1391.767736    6.0
    -1391.767736    6.0
    -1391.767736    6.0
    -1391.767736    6.0
    -1391.767736    6.0
    -1391.868118   12.0
    -1391.868118   12.0
    -1391.868118   12.0
    -1391.868118   12.0
    -1391.868118   12.0
    -1391.868118   12.0
    -1391.868118   12.0
    -1391.794437    2.0
    -1391.794437    2.0
    -1391.794437    2.0
    -1391.741827   12.0
    -1391.741827   12.0
    -1391.741827   12.0
    -1391.741827   12.0
    -1391.741827   12.0
    -1391.741827   12.0
    -1391.741827   12.0
    -1391.668697    2.0
    -1391.668697    2.0
    -1391.668697    2.0
                                                  


 PROGRAM * CI (Multireference internally contracted CI)     Authors: H.-J. Werner, P.J. Knowles, 1987


 Convergence thresholds:  THRVAR = 1.00D-08  THRDEN = 1.00D-06

[...]
   19    2.1  0.5 -0.5   0.000%   0.000%   0.000%   0.000%   0.000%   0.000%   0.000%   0.000%   0.000%   0.000%
   20    3.1  0.5 -0.5   0.000%   0.000%   0.000%   0.000%   0.000%   0.000%   0.000%   0.000%   0.000%   0.000%
   21    4.1  0.5 -0.5   0.000%   0.000%   0.000%   0.000%   0.000%   0.000%   0.000%   0.000%   0.000%   0.000%
   22    5.1  0.5 -0.5   0.000%   0.000%   0.000%   0.000%   0.000%   0.000%   0.000%   0.000%   0.000%   0.000%
   23    6.1  0.5 -0.5   0.000%   0.000%   0.000%   0.000%   0.000%   0.000%   0.000%   0.000%   0.000%   0.000%
   24    7.1  0.5 -0.5   0.000%   0.000%   0.000%   0.000%   0.000%   0.000%   0.000%   0.000%   0.000%   0.000%
   25    8.1  0.5 -0.5   0.000%   0.000%   0.000%   0.000%   0.000%   0.000%   0.000%   0.000%   0.000%   0.000%
   26    9.1  0.5 -0.5   0.000%   0.000%   0.000%   0.000%   0.000%   0.000%   0.000%   0.000%   0.000%   0.000%
   27   10.1  0.5 -0.5   0.009%   3.890%  31.264%   1.599%   0.000%   0.000%   0.000%   0.000%   0.000%   0.000%
   28   11.1  0.5 -0.5   0.069%  29.530%  31.356%   1.512%   0.000%   0.000%   0.000%   0.000%   0.000%   0.000%
   29   12.1  0.5 -0.5  54.749%   0.146%   1.609%  31.267%   0.000%   0.000%   0.000%   0.000%   0.000%   0.000%
   30   13.1  0.5 -0.5   0.224%   0.000%   0.000%   0.000%   2.102%   3.241%   0.127%  51.305%   0.080%   2.915%
   31   14.1  0.5 -0.5   0.524%   0.010%   0.000%   0.000%   4.537%   4.940%   0.169%  30.477%   0.085%  19.562%
   32   15.1  0.5 -0.5   0.003%   3.037%   0.000%   0.000%   8.210%   7.621%   6.646%   0.314%  36.978%   0.006%
   33   16.1  0.5 -0.5   0.008%   1.620%   0.000%   0.000%  11.355%   9.000%   0.033%   0.053%  39.166%   0.168%
   34   17.1  0.5 -0.5   2.737%   0.011%   0.000%   0.000%  21.330%  27.284%   0.006%  10.489%   0.015%   0.643%
   35    1.1  1.5  1.5   0.004%   0.000%   0.000%   0.000%   0.011%   0.014%   0.000%   0.003%   0.000%   0.000%
   36    2.1  1.5  1.5   0.000%   0.002%   0.000%   0.000%   0.009%   0.007%   0.016%   0.000%   0.001%   0.000%
   37    3.1  1.5  1.5   0.000%   0.001%   0.000%   0.000%   0.000%   0.000%   0.000%   0.000%   0.020%   0.000%
   38    4.1  1.5  1.5   0.002%   0.000%   0.000%   0.000%   0.003%   0.003%   0.000%   0.003%   0.000%   0.022%
   39    5.1  1.5  1.5   0.003%   0.000%   0.000%   0.000%   0.008%   0.011%   0.000%   0.001%   0.000%   0.010%
   40    6.1  1.5  1.5   0.000%   0.001%   0.000%   0.000%   0.000%   0.000%   0.001%   0.000%   0.019%   0.000%
   41    7.1  1.5  1.5   0.000%   0.001%   0.000%   0.000%   0.017%   0.013%   0.001%   0.000%   0.000%   0.000%
   42    8.1  1.5  1.5   0.000%   0.000%   0.000%   0.000%   0.000%   0.000%   0.000%   0.000%   0.000%   0.000%
   43    9.1  1.5  1.5   0.000%   0.000%   0.000%   0.000%   0.000%   0.000%   0.000%   0.000%   0.000%   0.000%
   44   10.1  1.5  1.5   0.000%   0.000%   0.000%   0.000%   0.000%   0.000%   0.000%   0.000%   0.000%   0.000%
   45   11.1  1.5  1.5   0.000%   0.000%   0.000%   0.000%   0.000%   0.000%   0.000%   0.000%   0.000%   0.000%
   46   12.1  1.5  1.5   0.000%   0.000%   0.000%   0.000%   0.000%   0.000%   0.000%   0.000%   0.000%   0.000%
   47   13.1  1.5  1.5   0.000%   0.000%   0.000%   0.000%   0.000%   0.000%   0.000%   0.000%   0.000%   0.000%
   48   14.1  1.5  1.5   0.000%   0.000%   0.000%   0.000%   0.000%   0.000%   0.000%   0.000%   0.000%   0.000%
   49   15.1  1.5  1.5   0.138%   0.000%   0.000%   0.000%   0.000%   0.000%   0.000%   0.004%   0.000%   0.095%
   50   16.1  1.5  1.5   0.002%   0.628%   0.332%   0.016%   0.027%   0.019%   0.086%   0.000%   0.005%   0.000%
   51   17.1  1.5  1.5   0.002%   0.628%   0.332%   0.016%   0.000%   0.000%   0.131%   0.000%   0.005%   0.000%
   52   18.1  1.5  1.5   0.000%   0.003%   0.001%   0.000%   0.000%   0.000%   0.002%   0.000%   0.000%   0.000%
   53   19.1  1.5  1.5   0.001%   0.000%   0.000%   0.000%   0.000%   0.000%   0.000%   0.000%   0.000%   0.002%
   54   20.1  1.5  1.5   0.000%   0.003%   0.001%   0.000%   0.000%   0.000%   0.001%   0.000%   0.000%   0.000%
   55    1.1  1.5  0.5   0.000%   0.000%   0.000%   0.000%   0.001%   0.001%   0.016%   0.000%   0.009%   0.000%
   56    2.1  1.5  0.5   0.004%   0.000%   0.000%   0.000%   0.001%   0.001%   0.000%   0.001%   0.000%   0.021%
   57    3.1  1.5  0.5   0.000%   0.000%   0.000%   0.000%   0.001%   0.002%   0.000%   0.031%   0.000%   0.000%
   58    4.1  1.5  0.5   0.000%   0.007%   0.000%   0.000%   0.012%   0.009%   0.002%   0.000%   0.000%   0.000%
   59    5.1  1.5  0.5   0.000%   0.001%   0.000%   0.000%   0.001%   0.001%   0.024%   0.000%   0.001%   0.000%
   60    6.1  1.5  0.5   0.000%   0.000%   0.000%   0.000%   0.001%   0.002%   0.000%   0.029%   0.000%   0.002%
   61    7.1  1.5  0.5   0.007%   0.000%   0.000%   0.000%   0.000%   0.001%   0.000%   0.000%   0.000%   0.023%
   62    8.1  1.5  0.5   0.000%   0.000%   0.000%   0.000%   0.000%   0.000%   0.000%   0.000%   0.000%   0.000%
   63    9.1  1.5  0.5   0.000%   0.000%   0.000%   0.000%   0.000%   0.000%   0.000%   0.000%   0.000%   0.000%
   64   10.1  1.5  0.5   0.000%   0.000%   0.000%   0.000%   0.000%   0.000%   0.000%   0.000%   0.000%   0.000%
   65   11.1  1.5  0.5   0.000%   0.000%   0.000%   0.000%   0.000%   0.000%   0.000%   0.000%   0.000%   0.000%
   66   12.1  1.5  0.5   0.000%   0.000%   0.000%   0.000%   0.000%   0.000%   0.000%   0.000%   0.000%   0.000%
   67   13.1  1.5  0.5   0.000%   0.000%   0.000%   0.000%   0.000%   0.000%   0.000%   0.000%   0.000%   0.000%
   68   14.1  1.5  0.5   0.000%   0.000%   0.000%   0.000%   0.000%   0.000%   0.000%   0.000%   0.000%   0.000%
   69   15.1  1.5  0.5   0.001%   0.210%   0.442%   0.021%   0.077%   0.058%   0.014%   0.000%   0.000%   0.000%
   70   16.1  1.5  0.5   0.491%   0.002%   0.005%   0.110%   0.013%   0.017%   0.000%   0.013%   0.000%   0.069%
   71   17.1  1.5  0.5   1.277%   0.004%   0.005%   0.110%   0.016%   0.022%   0.000%   0.000%   0.000%   0.073%
   72   18.1  1.5  0.5   0.006%   0.000%   0.000%   0.000%   0.000%   0.000%   0.000%   0.000%   0.000%   0.001%
   73   19.1  1.5  0.5   0.000%   0.001%   0.001%   0.000%   0.001%   0.001%   0.000%   0.000%   0.000%   0.000%
   74   20.1  1.5  0.5   0.002%   0.000%   0.000%   0.000%   0.000%   0.000%   0.000%   0.000%   0.000%   0.001%
   75    1.1  1.5 -0.5   0.000%   0.000%   0.000%   0.000%   0.001%   0.001%   0.000%   0.016%   0.000%   0.009%
   76    2.1  1.5 -0.5   0.000%   0.004%   0.000%   0.000%   0.001%   0.001%   0.001%   0.000%   0.021%   0.000%
   77    3.1  1.5 -0.5   0.000%   0.000%   0.000%   0.000%   0.002%   0.001%   0.031%   0.000%   0.000%   0.000%
   78    4.1  1.5 -0.5   0.007%   0.000%   0.000%   0.000%   0.009%   0.012%   0.000%   0.002%   0.000%   0.000%
   79    5.1  1.5 -0.5   0.001%   0.000%   0.000%   0.000%   0.001%   0.001%   0.000%   0.024%   0.000%   0.001%
   80    6.1  1.5 -0.5   0.000%   0.000%   0.000%   0.000%   0.002%   0.001%   0.029%   0.000%   0.002%   0.000%
   81    7.1  1.5 -0.5   0.000%   0.007%   0.000%   0.000%   0.001%   0.000%   0.000%   0.000%   0.023%   0.000%
   82    8.1  1.5 -0.5   0.000%   0.000%   0.000%   0.000%   0.000%   0.000%   0.000%   0.000%   0.000%   0.000%
   83    9.1  1.5 -0.5   0.000%   0.000%   0.000%   0.000%   0.000%   0.000%   0.000%   0.000%   0.000%   0.000%
   84   10.1  1.5 -0.5   0.000%   0.000%   0.000%   0.000%   0.000%   0.000%   0.000%   0.000%   0.000%   0.000%
   85   11.1  1.5 -0.5   0.000%   0.000%   0.000%   0.000%   0.000%   0.000%   0.000%   0.000%   0.000%   0.000%
   86   12.1  1.5 -0.5   0.000%   0.000%   0.000%   0.000%   0.000%   0.000%   0.000%   0.000%   0.000%   0.000%
   87   13.1  1.5 -0.5   0.000%   0.000%   0.000%   0.000%   0.000%   0.000%   0.000%   0.000%   0.000%   0.000%
   88   14.1  1.5 -0.5   0.000%   0.000%   0.000%   0.000%   0.000%   0.000%   0.000%   0.000%   0.000%   0.000%
   89   15.1  1.5 -0.5   0.210%   0.001%   0.021%   0.442%   0.058%   0.077%   0.000%   0.014%   0.000%   0.000%
   90   16.1  1.5 -0.5   0.002%   0.491%   0.110%   0.005%   0.017%   0.013%   0.013%   0.000%   0.069%   0.000%
   91   17.1  1.5 -0.5   0.004%   1.277%   0.110%   0.005%   0.022%   0.016%   0.000%   0.000%   0.073%   0.000%
   92   18.1  1.5 -0.5   0.000%   0.006%   0.000%   0.000%   0.000%   0.000%   0.000%   0.000%   0.001%   0.000%
   93   19.1  1.5 -0.5   0.001%   0.000%   0.000%   0.001%   0.001%   0.001%   0.000%   0.000%   0.000%   0.000%
   94   20.1  1.5 -0.5   0.000%   0.002%   0.000%   0.000%   0.000%   0.000%   0.000%   0.000%   0.001%   0.000%
   95    1.1  1.5 -1.5   0.000%   0.004%   0.000%   0.000%   0.014%   0.011%   0.003%   0.000%   0.000%   0.000%
   96    2.1  1.5 -1.5   0.002%   0.000%   0.000%   0.000%   0.007%   0.009%   0.000%   0.016%   0.000%   0.001%
   97    3.1  1.5 -1.5   0.001%   0.000%   0.000%   0.000%   0.000%   0.000%   0.000%   0.000%   0.000%   0.020%
   98    4.1  1.5 -1.5   0.000%   0.002%   0.000%   0.000%   0.003%   0.003%   0.003%   0.000%   0.022%   0.000%
   99    5.1  1.5 -1.5   0.000%   0.003%   0.000%   0.000%   0.011%   0.008%   0.001%   0.000%   0.010%   0.000%
  100    6.1  1.5 -1.5   0.001%   0.000%   0.000%   0.000%   0.000%   0.000%   0.000%   0.001%   0.000%   0.019%
  101    7.1  1.5 -1.5   0.001%   0.000%   0.000%   0.000%   0.013%   0.017%   0.000%   0.001%   0.000%   0.000%
  102    8.1  1.5 -1.5   0.000%   0.000%   0.000%   0.000%   0.000%   0.000%   0.000%   0.000%   0.000%   0.000%
  103    9.1  1.5 -1.5   0.000%   0.000%   0.000%   0.000%   0.000%   0.000%   0.000%   0.000%   0.000%   0.000%
  104   10.1  1.5 -1.5   0.000%   0.000%   0.000%   0.000%   0.000%   0.000%   0.000%   0.000%   0.000%   0.000%
  105   11.1  1.5 -1.5   0.000%   0.000%   0.000%   0.000%   0.000%   0.000%   0.000%   0.000%   0.000%   0.000%
  106   12.1  1.5 -1.5   0.000%   0.000%   0.000%   0.000%   0.000%   0.000%   0.000%   0.000%   0.000%   0.000%
  107   13.1  1.5 -1.5   0.000%   0.000%   0.000%   0.000%   0.000%   0.000%   0.000%   0.000%   0.000%   0.000%
  108   14.1  1.5 -1.5   0.000%   0.000%   0.000%   0.000%   0.000%   0.000%   0.000%   0.000%   0.000%   0.000%
  109   15.1  1.5 -1.5   0.000%   0.138%   0.000%   0.000%   0.000%   0.000%   0.004%   0.000%   0.095%   0.000%
  110   16.1  1.5 -1.5   0.628%   0.002%   0.016%   0.332%   0.019%   0.027%   0.000%   0.086%   0.000%   0.005%
  111   17.1  1.5 -1.5   0.628%   0.002%   0.016%   0.332%   0.000%   0.000%   0.000%   0.131%   0.000%   0.005%
  112   18.1  1.5 -1.5   0.003%   0.000%   0.000%   0.001%   0.000%   0.000%   0.000%   0.002%   0.000%   0.000%
  113   19.1  1.5 -1.5   0.000%   0.001%   0.000%   0.000%   0.000%   0.000%   0.000%   0.000%   0.002%   0.000%
  114   20.1  1.5 -1.5   0.003%   0.000%   0.000%   0.001%   0.000%   0.000%   0.000%   0.001%   0.000%   0.000%

   Nr   State  S   Sz     111      112      113      114

    1    1.1  0.5  0.5   0.000%   0.000%   0.000%   0.000%
    2    2.1  0.5  0.5   0.000%   0.000%   0.000%   0.000%
    3    3.1  0.5  0.5   0.000%   0.000%   0.000%   0.000%
    4    4.1  0.5  0.5   0.000%   0.000%   0.000%   0.000%
    5    5.1  0.5  0.5   0.000%   0.000%   0.000%   0.000%
    6    6.1  0.5  0.5   0.000%   0.000%   0.000%   0.000%
    7    7.1  0.5  0.5   0.000%   0.000%   0.000%   0.000%
    8    8.1  0.5  0.5   0.000%   0.000%   0.000%   0.000%
    9    9.1  0.5  0.5   0.000%   0.000%   0.000%   0.000%
   10   10.1  0.5  0.5   0.033%   0.033%   0.003%   5.239%
   11   11.1  0.5  0.5   0.092%   3.450%   0.010%   1.755%
   12   12.1  0.5  0.5   4.119%   0.234%   0.935%   0.020%
   13   13.1  0.5  0.5   6.528%   0.047%  30.032%   0.011%
   14   14.1  0.5  0.5  10.298%   0.663%  25.651%   0.006%
   15   15.1  0.5  0.5   2.046%  34.240%   0.004%   0.322%
   16   16.1  0.5  0.5   1.054%  11.138%   0.071%  24.350%
   17   17.1  0.5  0.5  24.032%   1.497%  10.943%   0.151%
   18    1.1  0.5 -0.5   0.000%   0.000%   0.000%   0.000%
   19    2.1  0.5 -0.5   0.000%   0.000%   0.000%   0.000%
   20    3.1  0.5 -0.5   0.000%   0.000%   0.000%   0.000%
   21    4.1  0.5 -0.5   0.000%   0.000%   0.000%   0.000%
   22    5.1  0.5 -0.5   0.000%   0.000%   0.000%   0.000%
   23    6.1  0.5 -0.5   0.000%   0.000%   0.000%   0.000%
   24    7.1  0.5 -0.5   0.000%   0.000%   0.000%   0.000%
   25    8.1  0.5 -0.5   0.000%   0.000%   0.000%   0.000%
   26    9.1  0.5 -0.5   0.000%   0.000%   0.000%   0.000%
   27   10.1  0.5 -0.5   0.033%   0.033%   5.239%   0.003%
   28   11.1  0.5 -0.5   3.450%   0.092%   1.755%   0.010%
   29   12.1  0.5 -0.5   0.234%   4.119%   0.020%   0.935%
   30   13.1  0.5 -0.5   0.047%   6.528%   0.011%  30.032%
   31   14.1  0.5 -0.5   0.663%  10.298%   0.006%  25.651%
   32   15.1  0.5 -0.5  34.240%   2.046%   0.322%   0.004%
   33   16.1  0.5 -0.5  11.138%   1.054%  24.350%   0.071%
   34   17.1  0.5 -0.5   1.497%  24.032%   0.151%  10.943%
   35    1.1  1.5  1.5   0.001%   0.027%   0.000%   0.006%
   36    2.1  1.5  1.5   0.010%   0.001%   0.003%   0.000%
   37    3.1  1.5  1.5   0.017%   0.000%   0.051%   0.000%
   38    4.1  1.5  1.5   0.001%   0.014%   0.000%   0.000%
   39    5.1  1.5  1.5   0.001%   0.014%   0.000%   0.011%
   40    6.1  1.5  1.5   0.013%   0.000%   0.057%   0.000%
   41    7.1  1.5  1.5   0.006%   0.001%   0.009%   0.000%
   42    8.1  1.5  1.5   0.000%   0.000%   0.000%   0.000%
   43    9.1  1.5  1.5   0.000%   0.000%   0.000%   0.000%
   44   10.1  1.5  1.5   0.000%   0.000%   0.000%   0.000%
   45   11.1  1.5  1.5   0.000%   0.000%   0.000%   0.000%
   46   12.1  1.5  1.5   0.000%   0.000%   0.000%   0.000%
   47   13.1  1.5  1.5   0.000%   0.000%   0.000%   0.000%
   48   14.1  1.5  1.5   0.000%   0.000%   0.000%   0.000%
   49   15.1  1.5  1.5   0.000%   0.027%   0.000%   0.123%
   50   16.1  1.5  1.5   0.039%   0.002%   0.009%   0.000%
   51   17.1  1.5  1.5   0.039%   0.002%   0.009%   0.000%
   52   18.1  1.5  1.5   0.000%   0.000%   0.000%   0.000%
   53   19.1  1.5  1.5   0.000%   0.000%   0.000%   0.000%
   54   20.1  1.5  1.5   0.000%   0.000%   0.000%   0.000%
   55    1.1  1.5  0.5   0.006%   0.000%   0.029%   0.000%
   56    2.1  1.5  0.5   0.002%   0.017%   0.000%   0.037%
   57    3.1  1.5  0.5   0.000%   0.002%   0.000%   0.000%
   58    4.1  1.5  0.5   0.053%   0.002%   0.000%   0.000%
   59    5.1  1.5  0.5   0.003%   0.001%   0.040%   0.000%
   60    6.1  1.5  0.5   0.000%   0.000%   0.000%   0.000%
   61    7.1  1.5  0.5   0.002%   0.051%   0.000%   0.000%
   62    8.1  1.5  0.5   0.000%   0.000%   0.000%   0.000%
   63    9.1  1.5  0.5   0.000%   0.000%   0.000%   0.000%
   64   10.1  1.5  0.5   0.000%   0.000%   0.000%   0.000%
   65   11.1  1.5  0.5   0.000%   0.000%   0.000%   0.000%
   66   12.1  1.5  0.5   0.000%   0.000%   0.000%   0.000%
   67   13.1  1.5  0.5   0.000%   0.000%   0.000%   0.000%
   68   14.1  1.5  0.5   0.000%   0.000%   0.000%   0.000%
   69   15.1  1.5  0.5   0.013%   0.001%   0.003%   0.000%
   70   16.1  1.5  0.5   0.002%   0.018%   0.000%   0.097%
   71   17.1  1.5  0.5   0.004%   0.104%   0.000%   0.009%
   72   18.1  1.5  0.5   0.000%   0.000%   0.000%   0.000%
   73   19.1  1.5  0.5   0.000%   0.000%   0.000%   0.000%
   74   20.1  1.5  0.5   0.000%   0.000%   0.000%   0.000%
   75    1.1  1.5 -0.5   0.000%   0.006%   0.000%   0.029%
   76    2.1  1.5 -0.5   0.017%   0.002%   0.037%   0.000%
   77    3.1  1.5 -0.5   0.002%   0.000%   0.000%   0.000%
   78    4.1  1.5 -0.5   0.002%   0.053%   0.000%   0.000%
   79    5.1  1.5 -0.5   0.001%   0.003%   0.000%   0.040%
   80    6.1  1.5 -0.5   0.000%   0.000%   0.000%   0.000%
   81    7.1  1.5 -0.5   0.051%   0.002%   0.000%   0.000%
   82    8.1  1.5 -0.5   0.000%   0.000%   0.000%   0.000%
   83    9.1  1.5 -0.5   0.000%   0.000%   0.000%   0.000%
   84   10.1  1.5 -0.5   0.000%   0.000%   0.000%   0.000%
   85   11.1  1.5 -0.5   0.000%   0.000%   0.000%   0.000%
   86   12.1  1.5 -0.5   0.000%   0.000%   0.000%   0.000%
   87   13.1  1.5 -0.5   0.000%   0.000%   0.000%   0.000%
   88   14.1  1.5 -0.5   0.000%   0.000%   0.000%   0.000%
   89   15.1  1.5 -0.5   0.001%   0.013%   0.000%   0.003%
   90   16.1  1.5 -0.5   0.018%   0.002%   0.097%   0.000%
   91   17.1  1.5 -0.5   0.104%   0.004%   0.009%   0.000%
   92   18.1  1.5 -0.5   0.000%   0.000%   0.000%   0.000%
   93   19.1  1.5 -0.5   0.000%   0.000%   0.000%   0.000%
   94   20.1  1.5 -0.5   0.000%   0.000%   0.000%   0.000%
   95    1.1  1.5 -1.5   0.027%   0.001%   0.006%   0.000%
   96    2.1  1.5 -1.5   0.001%   0.010%   0.000%   0.003%
   97    3.1  1.5 -1.5   0.000%   0.017%   0.000%   0.051%
   98    4.1  1.5 -1.5   0.014%   0.001%   0.000%   0.000%
   99    5.1  1.5 -1.5   0.014%   0.001%   0.011%   0.000%
  100    6.1  1.5 -1.5   0.000%   0.013%   0.000%   0.057%
  101    7.1  1.5 -1.5   0.001%   0.006%   0.000%   0.009%
  102    8.1  1.5 -1.5   0.000%   0.000%   0.000%   0.000%
  103    9.1  1.5 -1.5   0.000%   0.000%   0.000%   0.000%
  104   10.1  1.5 -1.5   0.000%   0.000%   0.000%   0.000%
  105   11.1  1.5 -1.5   0.000%   0.000%   0.000%   0.000%
  106   12.1  1.5 -1.5   0.000%   0.000%   0.000%   0.000%
  107   13.1  1.5 -1.5   0.000%   0.000%   0.000%   0.000%
  108   14.1  1.5 -1.5   0.000%   0.000%   0.000%   0.000%
  109   15.1  1.5 -1.5   0.027%   0.000%   0.123%   0.000%
  110   16.1  1.5 -1.5   0.002%   0.039%   0.000%   0.009%
  111   17.1  1.5 -1.5   0.002%   0.039%   0.000%   0.009%
  112   18.1  1.5 -1.5   0.000%   0.000%   0.000%   0.000%
  113   19.1  1.5 -1.5   0.000%   0.000%   0.000%   0.000%
  114   20.1  1.5 -1.5   0.000%   0.000%   0.000%   0.000%


 Property matrices transformed in SO basis (not sym. adapted)
 ============================================================

 No matrix element <i|DMX|i> larger than 5E-7
 No matrix element <i|DMX|1> larger than 5E-7

 No matrix element <i|DMY|i> larger than 5E-7
 No matrix element <i|DMY|1> larger than 5E-7

 No matrix element <i|DMZ|i> larger than 5E-7
 No matrix element <i|DMZ|1> larger than 5E-7


 **********************************************************************************************************************************
 DATASETS  * FILE   NREC   LENGTH (MB)   RECORD NAMES
              1      24       36.54       500      610      700      900      950      970     1000      129      960     1700   
                                          VAR    BASINP    GEOM    SYMINP    ZMAT    AOBASIS   BASIS     P2S    ABASIS    OPER   
                                         1101     1401     1411     1412     1650     1100     1400     1410     1200     1210   
                                          SR      EKINR    POTR     PVPR    MOLCAS      S      EKIN      POT      H0       H01  
                                         1080     1600     1380     1700(1)
                                         AOSYM     SMH     JKOP     OPER   

              2       7      994.50       700     1000      520     2100     2140     5102     5101   
                                         GEOM     BASIS   MCVARS     RHF     MCSCF    MRCI     MRCI   

 PROGRAMS   *        TOTAL        CI     LSINT        CI        CI     MULTI   RHF-SCF       INT
 CPU TIMES  *     55552.03  48638.93      4.97   3593.65   3307.91      4.40      0.84      0.88
 REAL TIME  *     57216.41 SEC
 DISK USED  *         1.01 GB (local),       12.54 GB (total)
 SF USED    *         5.40 GB
 GA USED    *         0.00 MB       (max)       0.00 MB       (current)
 **********************************************************************************************************************************

 CI/cc-pWCVTZ-DK energy=  -1392.475013649915

              CI              CI           MULTI         RHF-SCF
  -1392.41103549  -1392.41378188  -1391.79443744  -1391.79882347
 **********************************************************************************************************************************
 Molpro calculation terminated with 1 warning(s)
