
 Working directory              : /wrk/irikura/molpro.tvggvp3xEu/
 Global scratch directory       : /wrk/irikura/molpro.tvggvp3xEu/
 Wavefunction directory         : /home/irikura/wfu/
 Main file repository           : /wrk/irikura/molpro.tvggvp3xEu/

 id        : nistki

 Nodes            nprocs
 pn112695.nist.gov   12
 GA implementation: MPI file
 GA implementation (serial work in mppx): MPI file

 Using customized tuning parameters: mindgm=1; mindgv=20; mindgc=4; mindgr=1; noblas=0; minvec=7
 default implementation of scratch files=sf  


 Variables initialized (1040), CPU time= 0.02 sec
 ***,Co atom
                                                                                 ! 4F + 4F + 4P + 4P  + 2F + 2G + 2D + 2P
 memory,2000,M;
 
 gprint,orbitals,civector
 
 symmetry,xyz
 geometry={Co}
 
 basis=cc-pwCVQZ-DK
 
 set,dkho=101
 
 {rhf,so-sci;wf,nelec=27,sym=1, spin=3}
 
                                                                                 ! weights to avoid skipping terms
 {multi
     closed,2,3
     wf,nelec=27,sym=1,spin=3; state,20;
       weight,1,1,1,1,1,1,1, 5,5,5, 5,5,5,5,5,5,5, 1,1,1
     wf,nelec=27,sym=1,spin=1; state,24;
     expec2,lxx,lyy,lzz;
  }
 table, energy, ll
 title, Energies and LL values
 
 {ci;wf,sym=1,spin=3; state,20;save,5101.2}
 hlsdiag = energd4
 {ci;option,nstati=27;wf,sym=1,spin=1;state,24;save,5102.2}
 hlsdiag(21) = energd4
 
 table, hlsdiag
 
                                                                                 !compute and diagonalize SO matrix
 lsint
 {ci;hlsmat,ls,5101.2,5102.2;print,vls=0,hls=0}
 
 Commands initialized (846), CPU time= 0.02 sec, 717 directives.
 Default parameters read. Elapsed time= 0.13 sec

 Checking input...
 Passed
1


                                         ***  PROGRAM SYSTEM MOLPRO  ***
                                       Copyright, TTI GmbH Stuttgart, 2015
                                    Version 2023.2 linked Fri Sep 22 03:27:09 2023


 **********************************************************************************************************************************
 LABEL *   Co atom                                                                                                                                                       
  (32 PROC) 64 bit mpp version                                                           DATE: 05-Feb-24          TIME: 17:18:12  
 **********************************************************************************************************************************

 SHA1:             3c61bfe44d37c8635c785372c339f5cbdd4e4b59
 **********************************************************************************************************************************

 Memory per process:      2000 MW
 Total memory per node:  24000 MW

 GA preallocation disabled
 GA check disabled

 Variable memory set to 2000.0 MW


 ZSYMEL=XYZ

 SETTING BASIS          =    CC-PWCVQZ-DK
 SETTING DKHO           =       101.00000000                                  


 Recomputing integrals since basis changed


 Using spherical harmonics

 Library entry CO     S cc-pwCVQZ-DK         selected for orbital group  1
 Library entry CO     P cc-pwCVQZ-DK         selected for orbital group  1
 Library entry CO     D cc-pwCVQZ-DK         selected for orbital group  1
 Library entry CO     F cc-pwCVQZ-DK         selected for orbital group  1
 Library entry CO     G cc-pwCVQZ-DK         selected for orbital group  1
 Library entry CO     H cc-pwCVQZ-DK         selected for orbital group  1


 PROGRAM * SEWARD (Integral evaluation for generally contracted gaussian basis sets)     Author: Roland Lindh, 1990

 Geometry written to block  1 of record 700

 Orientation using atomic masses  
 Molecule type: Atom
 User-specified symmetry elements: XYZ
 Symmetry elements: XYZ
 Rotational constants:       0.0000000      0.0000000      0.0000000 GHz  (calculated with average atomic masses)

 Point group  Ci  



 ATOMIC COORDINATES

 NR  ATOM    CHARGE       X              Y              Z

   1  CO     27.00    0.000000000    0.000000000    0.000000000

 NUCLEAR CHARGE:                   27
 NUMBER OF PRIMITIVE AOS:         289
 NUMBER OF SYMMETRY AOS:          226
 NUMBER OF CONTRACTIONS:          149   (   72Ag  +   77Au  )
 NUMBER OF INNER CORE ORBITALS:     5   (    2Ag  +    3Au  )
 NUMBER OF OUTER CORE ORBITALS:     4   (    1Ag  +    3Au  )
 NUMBER OF VALENCE ORBITALS:        6   (    6Ag  +    0Au  )


 NUCLEAR REPULSION ENERGY    0.00000000

 One-electron integrals computed with SEWARD

 eXact-2-Component (X2C) method activated

 Computing Douglas-Kroll / X2C integrals

 AO integral compression algorithm  1   Integral accuracy      1.0D-11

     55.575 MB (compressed) written to integral file ( 13.6%)

     Node minimum: 1.835 MB, node maximum: 6.291 MB


 NUMBER OF SORTED TWO-ELECTRON INTEGRALS:    2636580.     BUFFER LENGTH:  32768
 NUMBER OF SEGMENTS:   1  SEGMENT LENGTH:    2636580      RECORD LENGTH: 524288

 Memory used in sort:       3.19 MW

 SORT1 READ    51671866. AND WROTE      444190. INTEGRALS IN      2 RECORDS. CPU TIME:     0.25 SEC, REAL TIME:     0.26 SEC
 SORT2 READ     5533293. AND WROTE    31640664. INTEGRALS IN    120 RECORDS. CPU TIME:     0.07 SEC, REAL TIME:     0.09 SEC

 Node minimum:     2632828.  Node maximum:     2643246. integrals

 OPERATOR DM      FOR CENTER  0  COORDINATES:    0.000000    0.000000    0.000000

 EXTRA SYMMETRY OF AOS IN SYMMETRY 1:   1 1 1 1 1 1 1 1 1 1   2 3 4 5 6 2 3 4 5 6   2 3 4 5 6 2 3 4 5 6   2 3 4 5 6 2 3 4 5 6
                                        2 3 4 5 6 7 8 91011  12131415 7 8 9101112  131415 7 8 910111213  1415
 EXTRA SYMMETRY OF AOS IN SYMMETRY 2:   1 2 3 1 2 3 1 2 3 1   2 3 1 2 3 1 2 3 1 2   3 1 2 3 1 2 3 4 5 6   7 8 910 4 5 6 7 8 9
                                       10 4 5 6 7 8 910 4 5   6 7 8 9101112131415  16171819202111121314  15161718192021

 Eigenvalues of metric

         1 0.270E-04 0.224E-03 0.144E-01 0.170E-01 0.170E-01 0.170E-01 0.170E-01 0.170E-01
         2 0.197E-03 0.197E-03 0.197E-03 0.594E-03 0.594E-03 0.594E-03 0.821E-01 0.821E-01


 **********************************************************************************************************************************
 DATASETS  * FILE   NREC   LENGTH (MB)   RECORD NAMES
              1      22       29.58       500      610      700      900      950      970     1000      129      960     1700   
                                          VAR    BASINP    GEOM    SYMINP    ZMAT    AOBASIS   BASIS     P2S    ABASIS    OPER   
                                         1101     1401     1411     1412     1650     1100     1400     1410     1200     1210   
                                          SR      EKINR    POTR     PVPR    MOLCAS      S      EKIN      POT      H0       H01  
                                         1080     1600   
                                         AOSYM     SMH  

 PROGRAMS   *        TOTAL       INT
 CPU TIMES  *         1.94      1.70
 REAL TIME  *         3.02 SEC
 DISK USED  *        29.95 MB (local),      486.78 MB (total)
 GA USED    *         0.00 MB       (max)       0.00 MB       (current)
 **********************************************************************************************************************************


 Program * Restricted Hartree-Fock

 Orbital guess generated from atomic densities. Full valence occupancy:    9   6

 Initial alpha occupancy:   9   6
 Initial beta  occupancy:   6   6
 
 SO-SCI SOLVER WITH NELEC=27 SYM=1 MS2=3 THRE=1.0D-08 THRG=3.2D-06
 
 Authors: D.A. Kreplin, H.-J. Werner (2022)
 
 Number of closed-shell orbitals:                12   (    6    6)
 Number of singly occupied active orbitals:       3   (    3    0)
 Number of virtual orbitals:                    134   (   63   71)
 
 ITER.  MIC  NCI          ENERGY    ENERGY CHANGE          GRAD      ORB GRAD        CI RES  NQN        STEP      TIME
    1    2    0   -1391.68157931   -1391.68157931    1.16058826    1.16058826    0.00000000    0    0.32E+00      0.10
    2    1    0   -1391.68058040       0.00099891    1.29974217    1.29974217    0.00000000    0    0.25E+00      0.17
    3    1    0   -1391.72734852      -0.04676812    1.15162690    1.15162690    0.00000000    0    0.22E+00      0.23
    4    1    0   -1391.73039424      -0.00304571    1.06520718    1.06520718    0.00000000    0    0.23E+00      0.29
    5    1    0   -1391.72697745       0.00341679    1.12164055    1.12164055    0.00000000    0    0.21E+00      0.35
    6    2    0   -1391.74643089      -0.01945344    0.99928042    0.99928042    0.00000000    1    0.10E+00      0.41
    7    2    0   -1391.81000220      -0.06357131    0.20042343    0.20042343    0.00000000    2    0.95E-01      0.48
    8    2    0   -1391.81310712      -0.00310492    0.04654892    0.04654892    0.00000000    3    0.35E-01      0.54
    9    2    0   -1391.81337235      -0.00026523    0.00717762    0.00717762    0.00000000    4    0.12E-01      0.60
   10    2    0   -1391.81339177      -0.00001942    0.00277799    0.00277799    0.00000000    5    0.16E-02      0.66
   11    2    0   -1391.81339380      -0.00000203    0.00108995    0.00108995    0.00000000    6    0.51E-03      0.72
   12    2    0   -1391.81339401      -0.00000021    0.00021396    0.00021396    0.00000000    7    0.43E-03      0.78
   13    2    0   -1391.81339402      -0.00000001    0.00009744    0.00009744    0.00000000    8    0.29E-03      0.85
   14    2    0   -1391.81339402      -0.00000000    0.00005601    0.00005601    0.00000000    9    0.11E-03      0.93
   15    2    0   -1391.81339402      -0.00000000    0.00000999    0.00000999    0.00000000   10    0.55E-05      0.99

 CONVERGENCE REACHED!  Final gradient:     0.00000198 ( 0.20E-05)
                       Final energy:   -1391.81339402
 

 Final alpha occupancy:   9   6
 Final beta  occupancy:   6   6

 !RHF STATE 1.1 Energy              -1391.813394024474
  RHF One-electron energy           -1932.561102493092
  RHF Two-electron energy             540.747708468618
  RHF Kinetic energy                 1453.822663396318
  RHF Nuclear energy                    0.000000000000
  RHF Virial quotient                  -0.957347432439

 !RHF STATE 1.1 Dipole moment           0.00000000     0.00000000     0.00000000
 Dipole moment /Debye                   0.00000000     0.00000000     0.00000000

 ELECTRON ORBITALS
 =================

  Orbital  Occupation    Energy    Cen Mu Typ  Coefficients
    1.1     2.00000  -285.57099     1  1  s    0.96113
    2.1     2.00000   -35.23772     1  2  s    1.01449
    3.1     2.00000    -4.40323     1  3  s    0.98507
    4.1     2.00000    -0.40437     1  1  d2-  0.99969
    5.1     2.00000    -0.40437     1  1  d0   0.86145    1  1  d2+ -0.49802
    6.1     2.00000    -0.40437     1  1  d1-  0.99506
    7.1     1.00000    -0.48247     1  1  d1+  0.99967
    8.1     1.00000    -0.48247     1  1  d0   0.49982    1  1  d2+  0.86573
    9.1     1.00000    -0.23835     1  4  s    0.96036
    1.2     2.00000   -30.01104     1  1  px   1.00003
    2.2     2.00000   -30.01104     1  1  py   0.99987
    3.2     2.00000   -30.01104     1  1  pz   0.99987
    4.2     2.00000    -2.82434     1  2  py   0.99979
    5.2     2.00000    -2.82434     1  2  pz   1.00036
    6.2     2.00000    -2.82434     1  2  px   1.00013


 HOMO      9.1    -0.238348 =      -6.4858eV
 LUMO      7.2     0.041324 =       1.1245eV
 LUMO-HOMO         0.279673 =       7.6103eV

 Orbitals saved in record  2100.2


 **********************************************************************************************************************************
 DATASETS  * FILE   NREC   LENGTH (MB)   RECORD NAMES
              1      23       30.52       500      610      700      900      950      970     1000      129      960     1700   
                                          VAR    BASINP    GEOM    SYMINP    ZMAT    AOBASIS   BASIS     P2S    ABASIS    OPER   
                                         1101     1401     1411     1412     1650     1100     1400     1410     1200     1210   
                                          SR      EKINR    POTR     PVPR    MOLCAS      S      EKIN      POT      H0       H01  
                                         1080     1600     1380   
                                         AOSYM     SMH     JKOP   

              2       4        0.70       700     1000      520     2100   
                                         GEOM     BASIS   MCVARS     RHF  

 PROGRAMS   *        TOTAL   RHF-SCF       INT
 CPU TIMES  *         2.91      0.98      1.70
 REAL TIME  *         4.10 SEC
 DISK USED  *        31.32 MB (local),      503.21 MB (total)
 SF USED    *         3.73 MB
 GA USED    *         0.00 MB       (max)       0.00 MB       (current)
 **********************************************************************************************************************************

 PROGRAM * MULTI (Direct Multiconfiguration SCF)       Authors: P.J. Knowles, H.-J. Werner (1984)
                                                                D.A. Kreplin, P.J. Knowles, H.-J. Werner (2019)

 Number of closed-shell orbitals:   5 (    2    3)
 Number of active  orbitals:       10 (    7    3)
 Number of external orbitals:     134 (   63   71)

 State symmetry 1

 Number of active electrons:  17    Spin symmetry=Quartet   Space symmetry=1
 Number of states:            20
 Number of CSFs:              56   (56 determinants, 120 intermediate states)

 State symmetry 2

 Number of active electrons:  17    Spin symmetry=Doublet   Space symmetry=1
 Number of states:            24
 Number of CSFs:             175   (231 determinants, 450 intermediate states)

 Molecular orbitals read from record     2100.2  Type=RHF/CANONICAL (state 1.1)
 *** IN SYMMETRY 1 ORBITAL  2 SYMMETRY CONTAMINATION OF 0.200D-03 HAS BEEN REMOVED
 *** IN SYMMETRY 1 ORBITAL  3 SYMMETRY CONTAMINATION OF 0.211D-02 HAS BEEN REMOVED
 *** IN SYMMETRY 1 ORBITAL  4 SYMMETRY CONTAMINATION OF 0.166D-01 HAS BEEN REMOVED
 *** IN SYMMETRY 1 ORBITAL  5 SYMMETRY CONTAMINATION OF 0.412D+00 HAS BEEN REMOVED
 *** IN SYMMETRY 1 ORBITAL  6 SYMMETRY CONTAMINATION OF 0.116D+00 HAS BEEN REMOVED
 *** IN SYMMETRY 1 ORBITAL  7 SYMMETRY CONTAMINATION OF 0.930D-02 HAS BEEN REMOVED
 *** IN SYMMETRY 1 ORBITAL  8 SYMMETRY CONTAMINATION OF 0.372D+00 HAS BEEN REMOVED
 *** IN SYMMETRY 1 ORBITAL  9 SYMMETRY CONTAMINATION OF 0.269D-02 HAS BEEN REMOVED

 EXTRA SYMMETRY OF MOS IN SYMMETRY 1:   1 1 1 3 2 6 4 5 1 1   5 4 6 2 3 1 4 5 6 3   2 4 5 3 6 2 11215 9  1314 71110 8 4 5 3 2
                                        6 112 91513 714 810  11 4 5 3 2 6 112 913  15 714 81011 4 5 3 2   6 1
 *** IN SYMMETRY 2 ORBITAL  1 SYMMETRY CONTAMINATION OF 0.127D-02 HAS BEEN REMOVED
 *** IN SYMMETRY 2 ORBITAL  2 SYMMETRY CONTAMINATION OF 0.183D-01 HAS BEEN REMOVED
 *** IN SYMMETRY 2 ORBITAL  3 SYMMETRY CONTAMINATION OF 0.179D-01 HAS BEEN REMOVED
 *** IN SYMMETRY 2 ORBITAL  4 SYMMETRY CONTAMINATION OF 0.688D-01 HAS BEEN REMOVED
 *** IN SYMMETRY 2 ORBITAL  5 SYMMETRY CONTAMINATION OF 0.392D-01 HAS BEEN REMOVED
 *** IN SYMMETRY 2 ORBITAL  6 SYMMETRY CONTAMINATION OF 0.462D-01 HAS BEEN REMOVED
 EXTRA SYMMETRY OF MOS IN SYMMETRY 2:   1 2 3 2 3 1 3 2 1 3   2 1 3 1 210 9 4 6 8   7 5 3 1 210 9 4 7 8   6 5 1 3 210 9 4 7 8
                                        6 51416131715112118  201219 1 2 310 9 4 7   8 6 514161317151121  18201219 1 2 3

 Wavefunction dump at record             2140.2

 Convergence thresholds  0.10E-04 (gradient)  0.10E-05 (energy)

 Weight factors for state symmetry  1:    0.01190   0.01190   0.01190   0.01190   0.01190   0.01190   0.01190   0.05952
                                          0.05952   0.05952   0.05952   0.05952   0.05952   0.05952   0.05952   0.05952
                                          0.05952   0.01190   0.01190   0.01190
 Weight factors for state symmetry  2:    0.01190   0.01190   0.01190   0.01190   0.01190   0.01190   0.01190   0.01190
                                          0.01190   0.01190   0.01190   0.01190   0.01190   0.01190   0.01190   0.01190
                                          0.01190   0.01190   0.01190   0.01190   0.01190   0.01190   0.01190   0.01190
 
 Number of orbital rotations:  1016  ( 23 closed/active, 339 closed/virtual, 0 active/active, 654 active/virtual )
 Total number of variables:    7680
 
 Second-order MCSCF: L-BFGS accelerated
 
 ITER  MIC  NCI  NEG     ENERGY(VAR)    ENERGY(PROJ) ENERGY CHANGE       GRAD(0)  GRAD(ORB)   GRAD(CI)      STEP      TIME
   1   16   26    0  -1391.75297037   -1391.82333579   -0.07036543    0.39474299 0.00340056 0.00000000  0.39E+00      1.28
   2    8   14    0  -1391.71031865   -1391.77468325   -0.06436460    1.06498939 0.00005068 0.00000000  0.13E+00      2.20
   3    8   14    0  -1391.77687713   -1391.77707330   -0.00019617    0.03771380 0.00000815 0.00000000  0.11E-01      3.16
   4    5   10    0  -1391.77707382   -1391.77707382   -0.00000000    0.00011847 0.00000536 0.00000000  0.57E-04      3.85
   5   21   42    0  -1391.77707382   -1391.77707382   -0.00000000    0.00000307 0.00000021 0.00000000  0.13E-05      5.64

 CONVERGENCE REACHED!  Final gradient:    0.00000062 ( 0.62E-06)
                       Final energy:  -1391.77707382
 
 Results for state 1.1 Quartet
 =============================
 !MCSCF STATE 1.1 Quartet Energy             -1391.842008443366
 Nuclear energy                                  0.00000000
 Kinetic energy                               1450.18573741
 One electron energy                         -1921.41381539
 Two electron energy                           529.57180694
 Virial ratio                                    1.95976810
 
 !MCSCF STATE 1.1 Quartet Dipole moment          0.00000000     0.00000000     0.00000000
 Dipole moment /Debye                            0.00000000     0.00000000     0.00000000
 
 Results for state 2.1 Quartet
 =============================
 !MCSCF STATE 2.1 Quartet Energy             -1391.842008442620
 Nuclear energy                                  0.00000000
 Kinetic energy                               1450.18573735
 One electron energy                         -1921.41381529
 Two electron energy                           529.57180685
 Virial ratio                                    1.95976810
 
 !MCSCF STATE 2.1 Quartet Dipole moment          0.00000000     0.00000000     0.00000000
 Dipole moment /Debye                            0.00000000     0.00000000     0.00000000
 
 Results for state 3.1 Quartet
 =============================
 !MCSCF STATE 3.1 Quartet Energy             -1391.842008442541
 Nuclear energy                                  0.00000000
 Kinetic energy                               1450.18573733
 One electron energy                         -1921.41381528
 Two electron energy                           529.57180684
 Virial ratio                                    1.95976810
 
 !MCSCF STATE 3.1 Quartet Dipole moment          0.00000000     0.00000000     0.00000000
 Dipole moment /Debye                            0.00000000     0.00000000     0.00000000
 
 Results for state 4.1 Quartet
 =============================
 !MCSCF STATE 4.1 Quartet Energy             -1391.842008441615
 Nuclear energy                                  0.00000000
 Kinetic energy                               1450.18573725
 One electron energy                         -1921.41381516
 Two electron energy                           529.57180672
 Virial ratio                                    1.95976810
 
 !MCSCF STATE 4.1 Quartet Dipole moment          0.00000000     0.00000000     0.00000000
 Dipole moment /Debye                            0.00000000     0.00000000     0.00000000
 
 Results for state 5.1 Quartet
 =============================
 !MCSCF STATE 5.1 Quartet Energy             -1391.842008440962
 Nuclear energy                                  0.00000000
 Kinetic energy                               1450.18573723
 One electron energy                         -1921.41381510
 Two electron energy                           529.57180666
 Virial ratio                                    1.95976810
 
 !MCSCF STATE 5.1 Quartet Dipole moment          0.00000000     0.00000000     0.00000000
 Dipole moment /Debye                            0.00000000     0.00000000     0.00000000
 
 Results for state 6.1 Quartet
 =============================
 !MCSCF STATE 6.1 Quartet Energy             -1391.842008439896
 Nuclear energy                                  0.00000000
 Kinetic energy                               1450.18573714
 One electron energy                         -1921.41381498
 Two electron energy                           529.57180654
 Virial ratio                                    1.95976810
 
 !MCSCF STATE 6.1 Quartet Dipole moment          0.00000000     0.00000000     0.00000000
 Dipole moment /Debye                            0.00000000     0.00000000     0.00000000
 
 Results for state 7.1 Quartet
 =============================
 !MCSCF STATE 7.1 Quartet Energy             -1391.842008439486
 Nuclear energy                                  0.00000000
 Kinetic energy                               1450.18573712
 One electron energy                         -1921.41381493
 Two electron energy                           529.57180649
 Virial ratio                                    1.95976810
 
 !MCSCF STATE 7.1 Quartet Dipole moment          0.00000000     0.00000000     0.00000000
 Dipole moment /Debye                            0.00000000     0.00000000     0.00000000
 
 Results for state 8.1 Quartet
 =============================
 !MCSCF STATE 8.1 Quartet Energy             -1391.784933520404
 Nuclear energy                                  0.00000000
 Kinetic energy                               1456.92870063
 One electron energy                         -1937.69239304
 Two electron energy                           545.90745952
 Virial ratio                                    1.95528692
 
 !MCSCF STATE 8.1 Quartet Dipole moment          0.00000000     0.00000000     0.00000000
 Dipole moment /Debye                            0.00000000     0.00000000     0.00000000
 
 Results for state 9.1 Quartet
 =============================
 !MCSCF STATE 9.1 Quartet Energy             -1391.784933518989
 Nuclear energy                                  0.00000000
 Kinetic energy                               1456.92870069
 One electron energy                         -1937.69239314
 Two electron energy                           545.90745962
 Virial ratio                                    1.95528692
 
 !MCSCF STATE 9.1 Quartet Dipole moment          0.00000000     0.00000000     0.00000000
 Dipole moment /Debye                            0.00000000     0.00000000     0.00000000
 
 Results for state 10.1 Quartet
 ==============================
 !MCSCF STATE 10.1 Quartet Energy            -1391.784933518968
 Nuclear energy                                  0.00000000
 Kinetic energy                               1456.92870071
 One electron energy                         -1937.69239315
 Two electron energy                           545.90745963
 Virial ratio                                    1.95528692
 
 !MCSCF STATE 10.1 Quartet Dipole moment         0.00000000     0.00000000     0.00000000
 Dipole moment /Debye                            0.00000000     0.00000000     0.00000000
 
 Results for state 11.1 Quartet
 ==============================
 !MCSCF STATE 11.1 Quartet Energy            -1391.784933517160
 Nuclear energy                                  0.00000000
 Kinetic energy                               1456.92870079
 One electron energy                         -1937.69239326
 Two electron energy                           545.90745975
 Virial ratio                                    1.95528692
 
 !MCSCF STATE 11.1 Quartet Dipole moment         0.00000000     0.00000000     0.00000000
 Dipole moment /Debye                            0.00000000     0.00000000     0.00000000
 
 Results for state 12.1 Quartet
 ==============================
 !MCSCF STATE 12.1 Quartet Energy            -1391.784933516443
 Nuclear energy                                  0.00000000
 Kinetic energy                               1456.92870082
 One electron energy                         -1937.69239333
 Two electron energy                           545.90745981
 Virial ratio                                    1.95528692
 
 !MCSCF STATE 12.1 Quartet Dipole moment         0.00000000     0.00000000     0.00000000
 Dipole moment /Debye                            0.00000000     0.00000000     0.00000000
 
 Results for state 13.1 Quartet
 ==============================
 !MCSCF STATE 13.1 Quartet Energy            -1391.784933515118
 Nuclear energy                                  0.00000000
 Kinetic energy                               1456.92870091
 One electron energy                         -1937.69239345
 Two electron energy                           545.90745994
 Virial ratio                                    1.95528692
 
 !MCSCF STATE 13.1 Quartet Dipole moment         0.00000000     0.00000000     0.00000000
 Dipole moment /Debye                            0.00000000     0.00000000     0.00000000
 
 Results for state 14.1 Quartet
 ==============================
 !MCSCF STATE 14.1 Quartet Energy            -1391.784933514405
 Nuclear energy                                  0.00000000
 Kinetic energy                               1456.92870092
 One electron energy                         -1937.69239350
 Two electron energy                           545.90745998
 Virial ratio                                    1.95528692
 
 !MCSCF STATE 14.1 Quartet Dipole moment         0.00000000     0.00000000     0.00000000
 Dipole moment /Debye                            0.00000000     0.00000000     0.00000000
 
 Results for state 15.1 Quartet
 ==============================
 !MCSCF STATE 15.1 Quartet Energy            -1391.770119298004
 Nuclear energy                                  0.00000000
 Kinetic energy                               1450.17834395
 One electron energy                         -1921.39735944
 Two electron energy                           529.62724014
 Virial ratio                                    1.95972342
 
 !MCSCF STATE 15.1 Quartet Dipole moment         0.00000000     0.00000000     0.00000000
 Dipole moment /Debye                            0.00000000     0.00000000     0.00000000
 
 Results for state 16.1 Quartet
 ==============================
 !MCSCF STATE 16.1 Quartet Energy            -1391.770119297556
 Nuclear energy                                  0.00000000
 Kinetic energy                               1450.17834387
 One electron energy                         -1921.39735933
 Two electron energy                           529.62724003
 Virial ratio                                    1.95972342
 
 !MCSCF STATE 16.1 Quartet Dipole moment         0.00000000     0.00000000     0.00000000
 Dipole moment /Debye                            0.00000000     0.00000000     0.00000000
 
 Results for state 17.1 Quartet
 ==============================
 !MCSCF STATE 17.1 Quartet Energy            -1391.770119296674
 Nuclear energy                                  0.00000000
 Kinetic energy                               1450.17834373
 One electron energy                         -1921.39735913
 Two electron energy                           529.62723984
 Virial ratio                                    1.95972342
 
 !MCSCF STATE 17.1 Quartet Dipole moment         0.00000000     0.00000000     0.00000000
 Dipole moment /Debye                            0.00000000     0.00000000     0.00000000
 
 Results for state 18.1 Quartet
 ==============================
 !MCSCF STATE 18.1 Quartet Energy            -1391.713579949740
 Nuclear energy                                  0.00000000
 Kinetic energy                               1456.92015181
 One electron energy                         -1937.67335544
 Two electron energy                           545.95977549
 Virial ratio                                    1.95524355
 
 !MCSCF STATE 18.1 Quartet Dipole moment         0.00000000     0.00000000     0.00000000
 Dipole moment /Debye                            0.00000000     0.00000000     0.00000000
 
 Results for state 19.1 Quartet
 ==============================
 !MCSCF STATE 19.1 Quartet Energy            -1391.713579947984
 Nuclear energy                                  0.00000000
 Kinetic energy                               1456.92015188
 One electron energy                         -1937.67335555
 Two electron energy                           545.95977561
 Virial ratio                                    1.95524355
 
 !MCSCF STATE 19.1 Quartet Dipole moment         0.00000000     0.00000000     0.00000000
 Dipole moment /Debye                            0.00000000     0.00000000     0.00000000
 
 Results for state 20.1 Quartet
 ==============================
 !MCSCF STATE 20.1 Quartet Energy            -1391.713579945122
 Nuclear energy                                  0.00000000
 Kinetic energy                               1456.92015202
 One electron energy                         -1937.67335575
 Two electron energy                           545.95977580
 Virial ratio                                    1.95524355
 
 !MCSCF STATE 20.1 Quartet Dipole moment         0.00000000     0.00000000     0.00000000
 Dipole moment /Debye                            0.00000000     0.00000000     0.00000000
 
 Results for state 1.1 Doublet
 =============================
 !MCSCF STATE 1.1 Doublet Energy             -1391.765421995863
 Nuclear energy                                  0.00000000
 Kinetic energy                               1450.19864700
 One electron energy                         -1921.43887985
 Two electron energy                           529.67345786
 Virial ratio                                    1.95970674
 
 !MCSCF STATE 1.1 Doublet Dipole moment          0.00000000     0.00000000     0.00000000
 Dipole moment /Debye                            0.00000000     0.00000000     0.00000000
 
 Results for state 2.1 Doublet
 =============================
 !MCSCF STATE 2.1 Doublet Energy             -1391.765421995816
 Nuclear energy                                  0.00000000
 Kinetic energy                               1450.19864700
 One electron energy                         -1921.43887985
 Two electron energy                           529.67345786
 Virial ratio                                    1.95970674
 
 !MCSCF STATE 2.1 Doublet Dipole moment          0.00000000     0.00000000     0.00000000
 Dipole moment /Debye                            0.00000000     0.00000000     0.00000000
 
 Results for state 3.1 Doublet
 =============================
 !MCSCF STATE 3.1 Doublet Energy             -1391.765421995490
 Nuclear energy                                  0.00000000
 Kinetic energy                               1450.19864698
 One electron energy                         -1921.43887983
 Two electron energy                           529.67345783
 Virial ratio                                    1.95970674
 
 !MCSCF STATE 3.1 Doublet Dipole moment          0.00000000     0.00000000     0.00000000
 Dipole moment /Debye                            0.00000000     0.00000000     0.00000000
 
 Results for state 4.1 Doublet
 =============================
 !MCSCF STATE 4.1 Doublet Energy             -1391.765421995297
 Nuclear energy                                  0.00000000
 Kinetic energy                               1450.19864698
 One electron energy                         -1921.43887982
 Two electron energy                           529.67345782
 Virial ratio                                    1.95970674
 
 !MCSCF STATE 4.1 Doublet Dipole moment          0.00000000     0.00000000     0.00000000
 Dipole moment /Debye                            0.00000000     0.00000000     0.00000000
 
 Results for state 5.1 Doublet
 =============================
 !MCSCF STATE 5.1 Doublet Energy             -1391.765421994547
 Nuclear energy                                  0.00000000
 Kinetic energy                               1450.19864696
 One electron energy                         -1921.43887980
 Two electron energy                           529.67345780
 Virial ratio                                    1.95970674
 
 !MCSCF STATE 5.1 Doublet Dipole moment          0.00000000     0.00000000     0.00000000
 Dipole moment /Debye                            0.00000000     0.00000000     0.00000000
 
 Results for state 6.1 Doublet
 =============================
 !MCSCF STATE 6.1 Doublet Energy             -1391.765421994500
 Nuclear energy                                  0.00000000
 Kinetic energy                               1450.19864696
 One electron energy                         -1921.43887979
 Two electron energy                           529.67345780
 Virial ratio                                    1.95970674
 
 !MCSCF STATE 6.1 Doublet Dipole moment          0.00000000     0.00000000     0.00000000
 Dipole moment /Debye                            0.00000000     0.00000000     0.00000000
 
 Results for state 7.1 Doublet
 =============================
 !MCSCF STATE 7.1 Doublet Energy             -1391.765421994419
 Nuclear energy                                  0.00000000
 Kinetic energy                               1450.19864693
 One electron energy                         -1921.43887975
 Two electron energy                           529.67345776
 Virial ratio                                    1.95970674
 
 !MCSCF STATE 7.1 Doublet Dipole moment          0.00000000     0.00000000     0.00000000
 Dipole moment /Debye                            0.00000000     0.00000000     0.00000000
 
 Results for state 8.1 Doublet
 =============================
 !MCSCF STATE 8.1 Doublet Energy             -1391.765421994199
 Nuclear energy                                  0.00000000
 Kinetic energy                               1450.19864693
 One electron energy                         -1921.43887975
 Two electron energy                           529.67345776
 Virial ratio                                    1.95970674
 
 !MCSCF STATE 8.1 Doublet Dipole moment          0.00000000     0.00000000     0.00000000
 Dipole moment /Debye                            0.00000000     0.00000000     0.00000000
 
 Results for state 9.1 Doublet
 =============================
 !MCSCF STATE 9.1 Doublet Energy             -1391.765421993907
 Nuclear energy                                  0.00000000
 Kinetic energy                               1450.19864691
 One electron energy                         -1921.43887973
 Two electron energy                           529.67345774
 Virial ratio                                    1.95970674
 
 !MCSCF STATE 9.1 Doublet Dipole moment          0.00000000     0.00000000     0.00000000
 Dipole moment /Debye                            0.00000000     0.00000000     0.00000000
 
 Results for state 10.1 Doublet
 ==============================
 !MCSCF STATE 10.1 Doublet Energy            -1391.761236279368
 Nuclear energy                                  0.00000000
 Kinetic energy                               1456.92106012
 One electron energy                         -1937.65838074
 Two electron energy                           545.89714446
 Virial ratio                                    1.95527567
 
 !MCSCF STATE 10.1 Doublet Dipole moment         0.00000000     0.00000000     0.00000000
 Dipole moment /Debye                            0.00000000     0.00000000     0.00000000
 
 Results for state 11.1 Doublet
 ==============================
 !MCSCF STATE 11.1 Doublet Energy            -1391.761236277756
 Nuclear energy                                  0.00000000
 Kinetic energy                               1456.92106020
 One electron energy                         -1937.65838084
 Two electron energy                           545.89714456
 Virial ratio                                    1.95527567
 
 !MCSCF STATE 11.1 Doublet Dipole moment         0.00000000     0.00000000     0.00000000
 Dipole moment /Debye                            0.00000000     0.00000000     0.00000000
 
 Results for state 12.1 Doublet
 ==============================
 !MCSCF STATE 12.1 Doublet Energy            -1391.761236277754
 Nuclear energy                                  0.00000000
 Kinetic energy                               1456.92106018
 One electron energy                         -1937.65838083
 Two electron energy                           545.89714455
 Virial ratio                                    1.95527567
 
 !MCSCF STATE 12.1 Doublet Dipole moment         0.00000000     0.00000000     0.00000000
 Dipole moment /Debye                            0.00000000     0.00000000     0.00000000
 
 Results for state 13.1 Doublet
 ==============================
 !MCSCF STATE 13.1 Doublet Energy            -1391.761236275735
 Nuclear energy                                  0.00000000
 Kinetic energy                               1456.92106027
 One electron energy                         -1937.65838096
 Two electron energy                           545.89714468
 Virial ratio                                    1.95527567
 
 !MCSCF STATE 13.1 Doublet Dipole moment         0.00000000     0.00000000     0.00000000
 Dipole moment /Debye                            0.00000000     0.00000000     0.00000000
 
 Results for state 14.1 Doublet
 ==============================
 !MCSCF STATE 14.1 Doublet Energy            -1391.761236274844
 Nuclear energy                                  0.00000000
 Kinetic energy                               1456.92106030
 One electron energy                         -1937.65838102
 Two electron energy                           545.89714474
 Virial ratio                                    1.95527567
 
 !MCSCF STATE 14.1 Doublet Dipole moment         0.00000000     0.00000000     0.00000000
 Dipole moment /Debye                            0.00000000     0.00000000     0.00000000
 
 Results for state 15.1 Doublet
 ==============================
 !MCSCF STATE 15.1 Doublet Energy            -1391.761236273310
 Nuclear energy                                  0.00000000
 Kinetic energy                               1456.92106039
 One electron energy                         -1937.65838114
 Two electron energy                           545.89714487
 Virial ratio                                    1.95527567
 
 !MCSCF STATE 15.1 Doublet Dipole moment         0.00000000     0.00000000     0.00000000
 Dipole moment /Debye                            0.00000000     0.00000000     0.00000000
 
 Results for state 16.1 Doublet
 ==============================
 !MCSCF STATE 16.1 Doublet Energy            -1391.761236272439
 Nuclear energy                                  0.00000000
 Kinetic energy                               1456.92106041
 One electron energy                         -1937.65838119
 Two electron energy                           545.89714492
 Virial ratio                                    1.95527567
 
 !MCSCF STATE 16.1 Doublet Dipole moment         0.00000000     0.00000000     0.00000000
 Dipole moment /Debye                            0.00000000     0.00000000     0.00000000
 
 Results for state 17.1 Doublet
 ==============================
 !MCSCF STATE 17.1 Doublet Energy            -1391.757427784253
 Nuclear energy                                  0.00000000
 Kinetic energy                               1450.31593092
 One electron energy                         -1921.67821832
 Two electron energy                           529.92079053
 Virial ratio                                    1.95962362
 
 !MCSCF STATE 17.1 Doublet Dipole moment         0.00000000     0.00000000     0.00000000
 Dipole moment /Debye                            0.00000000     0.00000000     0.00000000
 
 Results for state 18.1 Doublet
 ==============================
 !MCSCF STATE 18.1 Doublet Energy            -1391.757427784061
 Nuclear energy                                  0.00000000
 Kinetic energy                               1450.31593090
 One electron energy                         -1921.67821830
 Two electron energy                           529.92079052
 Virial ratio                                    1.95962362
 
 !MCSCF STATE 18.1 Doublet Dipole moment         0.00000000     0.00000000     0.00000000
 Dipole moment /Debye                            0.00000000     0.00000000     0.00000000
 
 Results for state 19.1 Doublet
 ==============================
 !MCSCF STATE 19.1 Doublet Energy            -1391.757427783964
 Nuclear energy                                  0.00000000
 Kinetic energy                               1450.31593089
 One electron energy                         -1921.67821829
 Two electron energy                           529.92079051
 Virial ratio                                    1.95962362
 
 !MCSCF STATE 19.1 Doublet Dipole moment         0.00000000     0.00000000     0.00000000
 Dipole moment /Debye                            0.00000000     0.00000000     0.00000000
 
 Results for state 20.1 Doublet
 ==============================
 !MCSCF STATE 20.1 Doublet Energy            -1391.745040886663
 Nuclear energy                                  0.00000000
 Kinetic energy                               1450.50655543
 One electron energy                         -1922.14191057
 Two electron energy                           530.39686968
 Virial ratio                                    1.95948897
 
 !MCSCF STATE 20.1 Doublet Dipole moment         0.00000000     0.00000000     0.00000000
 Dipole moment /Debye                            0.00000000     0.00000000     0.00000000
 
 Results for state 21.1 Doublet
 ==============================
 !MCSCF STATE 21.1 Doublet Energy            -1391.745040885970
 Nuclear energy                                  0.00000000
 Kinetic energy                               1450.50655542
 One electron energy                         -1922.14191062
 Two electron energy                           530.39686973
 Virial ratio                                    1.95948897
 
 !MCSCF STATE 21.1 Doublet Dipole moment         0.00000000     0.00000000     0.00000000
 Dipole moment /Debye                            0.00000000     0.00000000     0.00000000
 
 Results for state 22.1 Doublet
 ==============================
 !MCSCF STATE 22.1 Doublet Energy            -1391.745040885743
 Nuclear energy                                  0.00000000
 Kinetic energy                               1450.50655543
 One electron energy                         -1922.14191065
 Two electron energy                           530.39686976
 Virial ratio                                    1.95948897
 
 !MCSCF STATE 22.1 Doublet Dipole moment         0.00000000     0.00000000     0.00000000
 Dipole moment /Debye                            0.00000000     0.00000000     0.00000000
 
 Results for state 23.1 Doublet
 ==============================
 !MCSCF STATE 23.1 Doublet Energy            -1391.745040885251
 Nuclear energy                                  0.00000000
 Kinetic energy                               1450.50655544
 One electron energy                         -1922.14191071
 Two electron energy                           530.39686983
 Virial ratio                                    1.95948897
 
 !MCSCF STATE 23.1 Doublet Dipole moment         0.00000000     0.00000000     0.00000000
 Dipole moment /Debye                            0.00000000     0.00000000     0.00000000
 
 Results for state 24.1 Doublet
 ==============================
 !MCSCF STATE 24.1 Doublet Energy            -1391.745040885227
 Nuclear energy                                  0.00000000
 Kinetic energy                               1450.50655544
 One electron energy                         -1922.14191072
 Two electron energy                           530.39686983
 Virial ratio                                    1.95948897
 
 !MCSCF STATE 24.1 Doublet Dipole moment         0.00000000     0.00000000     0.00000000
 Dipole moment /Debye                            0.00000000     0.00000000     0.00000000
 
 State-averaged charge density matrix saved on record 2140.2 (density set 1)
 
 No non-zero expectation values
 
 Expectation values for two-electron operators:
 
 ? Warning
 ? Transition properties are only calculated between states of the same symmetry
 ? The problem occurs in mu_properties_expec2

 !MCSCF expec      <1.1 Quartet|LXLX|1.1 Quartet>     6.106627579395
 !MCSCF expec      <2.1 Quartet|LXLX|2.1 Quartet>     4.826290158382
 !MCSCF expec      <3.1 Quartet|LXLX|3.1 Quartet>     0.005118839134
 !MCSCF expec      <4.1 Quartet|LXLX|4.1 Quartet>     5.173164138725
 !MCSCF expec      <5.1 Quartet|LXLX|5.1 Quartet>     3.994885766218
 !MCSCF expec      <6.1 Quartet|LXLX|6.1 Quartet>     3.893372126693
 !MCSCF expec      <7.1 Quartet|LXLX|7.1 Quartet>     3.999999993815
 !MCSCF expec      <8.1 Quartet|LXLX|8.1 Quartet>     5.821582702993
 !MCSCF expec      <9.1 Quartet|LXLX|9.1 Quartet>     5.937160078442
 !MCSCF expec    <10.1 Quartet|LXLX|10.1 Quartet>     0.200158152909
 !MCSCF expec    <11.1 Quartet|LXLX|11.1 Quartet>     4.062916698841
 !MCSCF expec    <12.1 Quartet|LXLX|12.1 Quartet>     3.799884040448
 !MCSCF expec    <13.1 Quartet|LXLX|13.1 Quartet>     4.178519900934
 !MCSCF expec    <14.1 Quartet|LXLX|14.1 Quartet>     4.000000002190
 !MCSCF expec    <15.1 Quartet|LXLX|15.1 Quartet>     0.999999450806
 !MCSCF expec    <16.1 Quartet|LXLX|16.1 Quartet>     0.000000505952
 !MCSCF expec    <17.1 Quartet|LXLX|17.1 Quartet>     0.999999999969
 !MCSCF expec    <18.1 Quartet|LXLX|18.1 Quartet>     0.999999997409
 !MCSCF expec    <19.1 Quartet|LXLX|19.1 Quartet>     0.000000000283
 !MCSCF expec    <20.1 Quartet|LXLX|20.1 Quartet>     0.999999999980
 !MCSCF expec      <1.1 Doublet|LXLX|1.1 Doublet>     6.909720915303
 !MCSCF expec      <2.1 Doublet|LXLX|2.1 Doublet>     5.774080958617
 !MCSCF expec      <3.1 Doublet|LXLX|3.1 Doublet>     8.997132386861
 !MCSCF expec      <4.1 Doublet|LXLX|4.1 Doublet>     7.938517111774
 !MCSCF expec      <5.1 Doublet|LXLX|5.1 Doublet>     1.002858453202
 !MCSCF expec      <6.1 Doublet|LXLX|6.1 Doublet>     1.953656611071
 !MCSCF expec      <7.1 Doublet|LXLX|7.1 Doublet>     3.090273515965
 !MCSCF expec      <8.1 Doublet|LXLX|8.1 Doublet>    14.225868382477
 !MCSCF expec      <9.1 Doublet|LXLX|9.1 Doublet>    10.107287888918
 !MCSCF expec    <10.1 Doublet|LXLX|10.1 Doublet>     5.848341568431
 !MCSCF expec    <11.1 Doublet|LXLX|11.1 Doublet>     0.168528621535
 !MCSCF expec    <12.1 Doublet|LXLX|12.1 Doublet>     5.879371052262
 !MCSCF expec    <13.1 Doublet|LXLX|13.1 Doublet>     4.119496637723
 !MCSCF expec    <14.1 Doublet|LXLX|14.1 Doublet>     3.834982441412
 !MCSCF expec    <15.1 Doublet|LXLX|15.1 Doublet>     4.151658430120
 !MCSCF expec    <16.1 Doublet|LXLX|16.1 Doublet>     3.999999999387
 !MCSCF expec    <17.1 Doublet|LXLX|17.1 Doublet>     0.999999999991
 !MCSCF expec    <18.1 Doublet|LXLX|18.1 Doublet>     0.000002395062
 !MCSCF expec    <19.1 Doublet|LXLX|19.1 Doublet>     0.999998423488
 !MCSCF expec    <20.1 Doublet|LXLX|20.1 Doublet>     2.202283745553
 !MCSCF expec    <21.1 Doublet|LXLX|21.1 Doublet>     1.000006936452
 !MCSCF expec    <22.1 Doublet|LXLX|22.1 Doublet>     3.999996475166
 !MCSCF expec    <23.1 Doublet|LXLX|23.1 Doublet>     1.000000004923
 !MCSCF expec    <24.1 Doublet|LXLX|24.1 Doublet>     1.797683032490
 
 !MCSCF expec      <1.1 Quartet|LYLY|1.1 Quartet>     5.892608841300
 !MCSCF expec      <2.1 Quartet|LYLY|2.1 Quartet>     3.956380446927
 !MCSCF expec      <3.1 Quartet|LYLY|3.1 Quartet>     6.274210087966
 !MCSCF expec      <4.1 Quartet|LYLY|4.1 Quartet>     0.043678348018
 !MCSCF expec      <5.1 Quartet|LYLY|5.1 Quartet>     3.725762845943
 !MCSCF expec      <6.1 Quartet|LYLY|6.1 Quartet>     4.107391424738
 !MCSCF expec      <7.1 Quartet|LYLY|7.1 Quartet>     3.999999968331
 !MCSCF expec      <8.1 Quartet|LYLY|8.1 Quartet>     6.176318895718
 !MCSCF expec      <9.1 Quartet|LYLY|9.1 Quartet>     3.765472105047
 !MCSCF expec    <10.1 Quartet|LYLY|10.1 Quartet>     7.588575294116
 !MCSCF expec    <11.1 Quartet|LYLY|11.1 Quartet>     0.234533677813
 !MCSCF expec    <12.1 Quartet|LYLY|12.1 Quartet>     2.411400123850
 !MCSCF expec    <13.1 Quartet|LYLY|13.1 Quartet>     3.823580892056
 !MCSCF expec    <14.1 Quartet|LYLY|14.1 Quartet>     3.999999983594
 !MCSCF expec    <15.1 Quartet|LYLY|15.1 Quartet>     0.000000549292
 !MCSCF expec    <16.1 Quartet|LYLY|16.1 Quartet>     0.999999496926
 !MCSCF expec    <17.1 Quartet|LYLY|17.1 Quartet>     0.999999999910
 !MCSCF expec    <18.1 Quartet|LYLY|18.1 Quartet>     0.000000002622
 !MCSCF expec    <19.1 Quartet|LYLY|19.1 Quartet>     0.999999999735
 !MCSCF expec    <20.1 Quartet|LYLY|20.1 Quartet>     0.999999999975
 !MCSCF expec      <1.1 Doublet|LYLY|1.1 Doublet>     4.364452132699
 !MCSCF expec      <2.1 Doublet|LYLY|2.1 Doublet>     5.234787368934
 !MCSCF expec      <3.1 Doublet|LYLY|3.1 Doublet>     5.349395579941
 !MCSCF expec      <4.1 Doublet|LYLY|4.1 Doublet>     5.493635103851
 !MCSCF expec      <5.1 Doublet|LYLY|5.1 Doublet>     4.650364383033
 !MCSCF expec      <6.1 Doublet|LYLY|6.1 Doublet>     4.910060439038
 !MCSCF expec      <7.1 Doublet|LYLY|7.1 Doublet>    15.635462744159
 !MCSCF expec      <8.1 Doublet|LYLY|8.1 Doublet>     4.765255207141
 !MCSCF expec      <9.1 Doublet|LYLY|9.1 Doublet>     9.595742926438
 !MCSCF expec    <10.1 Doublet|LYLY|10.1 Doublet>     6.150139812585
 !MCSCF expec    <11.1 Doublet|LYLY|11.1 Doublet>     7.455693387290
 !MCSCF expec    <12.1 Doublet|LYLY|12.1 Doublet>     3.779645335281
 !MCSCF expec    <13.1 Doublet|LYLY|13.1 Doublet>     0.221070538274
 !MCSCF expec    <14.1 Doublet|LYLY|14.1 Doublet>     2.542006242615
 !MCSCF expec    <15.1 Doublet|LYLY|15.1 Doublet>     3.849860182337
 !MCSCF expec    <16.1 Doublet|LYLY|16.1 Doublet>     3.999999998827
 !MCSCF expec    <17.1 Doublet|LYLY|17.1 Doublet>     0.999999999956
 !MCSCF expec    <18.1 Doublet|LYLY|18.1 Doublet>     0.999997605314
 !MCSCF expec    <19.1 Doublet|LYLY|19.1 Doublet>     0.000001577292
 !MCSCF expec    <20.1 Doublet|LYLY|20.1 Doublet>     3.622026954979
 !MCSCF expec    <21.1 Doublet|LYLY|21.1 Doublet>     3.999993022693
 !MCSCF expec    <22.1 Doublet|LYLY|22.1 Doublet>     1.000002698958
 !MCSCF expec    <23.1 Doublet|LYLY|23.1 Doublet>     1.000000000107
 !MCSCF expec    <24.1 Doublet|LYLY|24.1 Doublet>     0.377993037634
 
 !MCSCF expec      <1.1 Quartet|LZLZ|1.1 Quartet>     0.000763579305
 !MCSCF expec      <2.1 Quartet|LZLZ|2.1 Quartet>     3.217329394690
 !MCSCF expec      <3.1 Quartet|LZLZ|3.1 Quartet>     5.720671072900
 !MCSCF expec      <4.1 Quartet|LZLZ|4.1 Quartet>     6.783157513257
 !MCSCF expec      <5.1 Quartet|LZLZ|5.1 Quartet>     4.279351387839
 !MCSCF expec      <6.1 Quartet|LZLZ|6.1 Quartet>     3.999236448569
 !MCSCF expec      <7.1 Quartet|LZLZ|7.1 Quartet>     4.000000037854
 !MCSCF expec      <8.1 Quartet|LZLZ|8.1 Quartet>     0.002098401290
 !MCSCF expec      <9.1 Quartet|LZLZ|9.1 Quartet>     2.297367816511
 !MCSCF expec    <10.1 Quartet|LZLZ|10.1 Quartet>     4.211266552976
 !MCSCF expec    <11.1 Quartet|LZLZ|11.1 Quartet>     7.702549623346
 !MCSCF expec    <12.1 Quartet|LZLZ|12.1 Quartet>     5.788715835702
 !MCSCF expec    <13.1 Quartet|LZLZ|13.1 Quartet>     3.997899207011
 !MCSCF expec    <14.1 Quartet|LZLZ|14.1 Quartet>     4.000000014216
 !MCSCF expec    <15.1 Quartet|LZLZ|15.1 Quartet>     0.999999999902
 !MCSCF expec    <16.1 Quartet|LZLZ|16.1 Quartet>     0.999999997122
 !MCSCF expec    <17.1 Quartet|LZLZ|17.1 Quartet>     0.000000000121
 !MCSCF expec    <18.1 Quartet|LZLZ|18.1 Quartet>     0.999999999969
 !MCSCF expec    <19.1 Quartet|LZLZ|19.1 Quartet>     0.999999999981
 !MCSCF expec    <20.1 Quartet|LZLZ|20.1 Quartet>     0.000000000045
 !MCSCF expec      <1.1 Doublet|LZLZ|1.1 Doublet>     8.725826951998
 !MCSCF expec      <2.1 Doublet|LZLZ|2.1 Doublet>     8.991131672449
 !MCSCF expec      <3.1 Doublet|LZLZ|3.1 Doublet>     5.653472033198
 !MCSCF expec      <4.1 Doublet|LZLZ|4.1 Doublet>     6.567847784374
 !MCSCF expec      <5.1 Doublet|LZLZ|5.1 Doublet>    14.346777163765
 !MCSCF expec      <6.1 Doublet|LZLZ|6.1 Doublet>    13.136282949891
 !MCSCF expec      <7.1 Doublet|LZLZ|7.1 Doublet>     1.274263739875
 !MCSCF expec      <8.1 Doublet|LZLZ|8.1 Doublet>     1.008876410382
 !MCSCF expec      <9.1 Doublet|LZLZ|9.1 Doublet>     0.296969184644
 !MCSCF expec    <10.1 Doublet|LZLZ|10.1 Doublet>     0.001518618983
 !MCSCF expec    <11.1 Doublet|LZLZ|11.1 Doublet>     4.375777991175
 !MCSCF expec    <12.1 Doublet|LZLZ|12.1 Doublet>     2.340983612457
 !MCSCF expec    <13.1 Doublet|LZLZ|13.1 Doublet>     7.659432824004
 !MCSCF expec    <14.1 Doublet|LZLZ|14.1 Doublet>     5.623011315973
 !MCSCF expec    <15.1 Doublet|LZLZ|15.1 Doublet>     3.998481387542
 !MCSCF expec    <16.1 Doublet|LZLZ|16.1 Doublet>     4.000000001786
 !MCSCF expec    <17.1 Doublet|LZLZ|17.1 Doublet>     0.000000000053
 !MCSCF expec    <18.1 Doublet|LZLZ|18.1 Doublet>     0.999999999624
 !MCSCF expec    <19.1 Doublet|LZLZ|19.1 Doublet>     0.999999999220
 !MCSCF expec    <20.1 Doublet|LZLZ|20.1 Doublet>     0.175689299469
 !MCSCF expec    <21.1 Doublet|LZLZ|21.1 Doublet>     1.000000040855
 !MCSCF expec    <22.1 Doublet|LZLZ|22.1 Doublet>     1.000000825876
 !MCSCF expec    <23.1 Doublet|LZLZ|23.1 Doublet>     3.999999994971
 !MCSCF expec    <24.1 Doublet|LZLZ|24.1 Doublet>     3.824323929877
 
 !MCSCF expec      <1.1 Quartet|L**2|1.1 Quartet>    12.000000000000
 !MCSCF expec      <2.1 Quartet|L**2|2.1 Quartet>    12.000000000000
 !MCSCF expec      <3.1 Quartet|L**2|3.1 Quartet>    12.000000000000
 !MCSCF expec      <4.1 Quartet|L**2|4.1 Quartet>    12.000000000000
 !MCSCF expec      <5.1 Quartet|L**2|5.1 Quartet>    12.000000000000
 !MCSCF expec      <6.1 Quartet|L**2|6.1 Quartet>    12.000000000000
 !MCSCF expec      <7.1 Quartet|L**2|7.1 Quartet>    12.000000000000
 !MCSCF expec      <8.1 Quartet|L**2|8.1 Quartet>    12.000000000000
 !MCSCF expec      <9.1 Quartet|L**2|9.1 Quartet>    12.000000000000
 !MCSCF expec    <10.1 Quartet|L**2|10.1 Quartet>    12.000000000000
 !MCSCF expec    <11.1 Quartet|L**2|11.1 Quartet>    12.000000000000
 !MCSCF expec    <12.1 Quartet|L**2|12.1 Quartet>    12.000000000000
 !MCSCF expec    <13.1 Quartet|L**2|13.1 Quartet>    12.000000000000
 !MCSCF expec    <14.1 Quartet|L**2|14.1 Quartet>    12.000000000000
 !MCSCF expec    <15.1 Quartet|L**2|15.1 Quartet>     2.000000000000
 !MCSCF expec    <16.1 Quartet|L**2|16.1 Quartet>     2.000000000000
 !MCSCF expec    <17.1 Quartet|L**2|17.1 Quartet>     2.000000000000
 !MCSCF expec    <18.1 Quartet|L**2|18.1 Quartet>     2.000000000000
 !MCSCF expec    <19.1 Quartet|L**2|19.1 Quartet>     2.000000000000
 !MCSCF expec    <20.1 Quartet|L**2|20.1 Quartet>     2.000000000000
 !MCSCF expec      <1.1 Doublet|L**2|1.1 Doublet>    20.000000000000
 !MCSCF expec      <2.1 Doublet|L**2|2.1 Doublet>    20.000000000000
 !MCSCF expec      <3.1 Doublet|L**2|3.1 Doublet>    20.000000000000
 !MCSCF expec      <4.1 Doublet|L**2|4.1 Doublet>    20.000000000000
 !MCSCF expec      <5.1 Doublet|L**2|5.1 Doublet>    20.000000000000
 !MCSCF expec      <6.1 Doublet|L**2|6.1 Doublet>    20.000000000000
 !MCSCF expec      <7.1 Doublet|L**2|7.1 Doublet>    20.000000000000
 !MCSCF expec      <8.1 Doublet|L**2|8.1 Doublet>    20.000000000000
 !MCSCF expec      <9.1 Doublet|L**2|9.1 Doublet>    20.000000000000
 !MCSCF expec    <10.1 Doublet|L**2|10.1 Doublet>    12.000000000000
 !MCSCF expec    <11.1 Doublet|L**2|11.1 Doublet>    12.000000000000
 !MCSCF expec    <12.1 Doublet|L**2|12.1 Doublet>    12.000000000000
 !MCSCF expec    <13.1 Doublet|L**2|13.1 Doublet>    12.000000000000
 !MCSCF expec    <14.1 Doublet|L**2|14.1 Doublet>    12.000000000000
 !MCSCF expec    <15.1 Doublet|L**2|15.1 Doublet>    12.000000000000
 !MCSCF expec    <16.1 Doublet|L**2|16.1 Doublet>    12.000000000000
 !MCSCF expec    <17.1 Doublet|L**2|17.1 Doublet>     2.000000000000
 !MCSCF expec    <18.1 Doublet|L**2|18.1 Doublet>     2.000000000000
 !MCSCF expec    <19.1 Doublet|L**2|19.1 Doublet>     2.000000000000
 !MCSCF expec    <20.1 Doublet|L**2|20.1 Doublet>     6.000000000000
 !MCSCF expec    <21.1 Doublet|L**2|21.1 Doublet>     6.000000000000
 !MCSCF expec    <22.1 Doublet|L**2|22.1 Doublet>     6.000000000001
 !MCSCF expec    <23.1 Doublet|L**2|23.1 Doublet>     6.000000000001
 !MCSCF expec    <24.1 Doublet|L**2|24.1 Doublet>     6.000000000001
 
 ? Warning
 ? Extra symmerty contamination removed!
 ? The problem occurs in mu_orbitals_clean_extra
 EXTRA SYMMETRY OF MOS IN SYMMETRY 1:   1 1 1 3 6 4 2 5 1 1   6 3 2 4 5 1 3 6 2 4   5 6 3 2 4 5 111 712   81514 91013 6 3 2 4
                                        5 111 712 81415 913  10 6 2 5 3 4 11112 7   81415 91013 6 2 5 4   3 1
 EXTRA SYMMETRY OF MOS IN SYMMETRY 2:   2 3 1 3 1 2 2 3 1 2   3 1 3 2 1 5 8 610 7   9 4 3 2 1 5 8 610 9   7 4 2 3 1 5 6 810 9
                                        7 41213191614211517  111820 2 3 1 5 610 8   7 9 412131914162117  15112018 2 3 1
 
  NATURAL ORBITALS (STATE AVERAGED)
  =================================

  Orbital  Occupation    Energy    Cen Mu Typ  Coefficients
    1.1     2.00000  -285.66667     1  1  s    0.96113
    2.1     2.00000   -35.28838     1  2  s    1.01441
    3.1     1.99985    -4.55694     1  3  s    0.98487
    4.1     1.50821    -0.29615     1  1  d2-  1.00016
    5.1     1.50821    -0.29615     1  1  d1-  1.00016
    6.1     1.50821    -0.29615     1  1  d1+  1.00016
    7.1     1.50821    -0.29615     1  1  d0   1.00016
    8.1     1.50821    -0.29615     1  1  d2+  1.00016
    9.1     1.46104    -0.17174     1  4  s    1.00690
    1.2     2.00000   -30.04684     1  1  py   0.99894
    2.2     2.00000   -30.04684     1  1  pz   0.99894
    3.2     2.00000   -30.04684     1  1  px   0.99894
    4.2     1.99935    -2.98276     1  2  pz   0.99939
    5.2     1.99935    -2.98276     1  2  px   0.99939
    6.2     1.99935    -2.98276     1  2  py   0.99939
 
 Natural orbital dump (state averaged) at molpro section 2140.2 (Orbital set 2)
 
 Transform the CI vectors
 
 CI Coefficients of symmetry 1 (Quartet)
 =======================================

 State:                1               2               3               4               5               6               7
 2222aaa 222     -0.00000000     -0.00000000     -0.00000000     -0.00000000      0.00000000     -0.00000000      0.00000000
 2a22a2a 222     -0.00000000      0.00000000     -0.00000000     -0.00000000      0.00000000     -0.00000000      0.00000000
 2aaa222 222     -0.00001320      0.00007225      0.00008014      0.00000890      0.00012303      0.00001414      0.99952473
 22aa2a2 222     -0.01380961      0.00000921      0.00001133      0.00001768     -0.00001513      0.99942934     -0.00001432
 22aa22a 222     -0.00000000      0.00000000     -0.00000000     -0.00000000      0.00000000     -0.00000000      0.00000000
 22a22aa 222     -0.00000000     -0.00000000      0.00000001      0.00000000      0.00000000     -0.00000000     -0.00000000
 2a22aa2 222      0.89391679      0.00000769      0.00008053      0.00000881     -0.00002156      0.01235169      0.00001163
 2a222aa 222      0.00000000     -0.00000000      0.00000000      0.00000000     -0.00000000      0.00000000     -0.00000000
 22a2aa2 222     -0.00007956     -0.00086856      0.89343008      0.00009256      0.03196390     -0.00001074     -0.00007551
 22aaa22 222      0.44695837      0.00000385      0.00004027      0.00000441     -0.00001078      0.00617584      0.00000581
 222aaa2 222     -0.00000933      0.09336005     -0.00000241      0.88911398      0.00002937     -0.00001672     -0.00001467
 2a2aa22 222      0.00000357     -0.00015864      0.19240864     -0.00001166      0.87305134      0.00001108     -0.00012288
 2a2a22a 222     -0.00000000      0.00000000     -0.00000000      0.00000000     -0.00000001     -0.00000000      0.00000000
 2aa222a 222      0.00000000     -0.00000000     -0.00000000      0.00000000     -0.00000000     -0.00000000      0.00000000
 2aa2a22 222     -0.00000417      0.83754048      0.00084801     -0.31267393     -0.00003888     -0.00000226     -0.00005782
 222a2aa 222     -0.00000000      0.00000000      0.00000000      0.00000000      0.00000000     -0.00000000     -0.00000000
 22a2a2a 222      0.00000000      0.00000000     -0.00000000     -0.00000000      0.00000000      0.00000000     -0.00000000
 222aa2a 222      0.00000000      0.00000000      0.00000000     -0.00000000     -0.00000000     -0.00000000      0.00000000
 2a2a2a2 222      0.00004800      0.00040987     -0.40473491     -0.00006017      0.48560206      0.00001260     -0.00002735
 2aa22a2 222      0.00000780     -0.53745568     -0.00048821     -0.33280782      0.00000550      0.00001096      0.00004185
 
 Energy:      -1391.84200844  -1391.84200844  -1391.84200844  -1391.84200844  -1391.84200844  -1391.84200844  -1391.84200844

 State:                8               9              10              11              12              13              14
 2222aaa 222      0.00000275      0.00000497      0.00000015      0.00005676     -0.00004287     -0.00002110      0.99999913
 2a22a2a 222      0.02290411      0.00000503      0.00001001      0.00004792      0.00001895      0.99973680      0.00002103
 2aaa222 222     -0.00000000      0.00000000     -0.00000000      0.00000000     -0.00000000     -0.00000000     -0.00000000
 22aa2a2 222      0.00000000      0.00000000      0.00000000      0.00000000      0.00000000     -0.00000000     -0.00000000
 22aa22a 222      0.89419180     -0.00001006      0.00002369      0.00000636     -0.00000459     -0.02048606     -0.00000289
 22a22aa 222      0.00000485     -0.00012268     -0.02423568     -0.00010754      0.89409798     -0.00001681      0.00003834
 2a22aa2 222      0.00000001      0.00000000      0.00000000      0.00000000     -0.00000000      0.00000000     -0.00000000
 2a222aa 222     -0.44709584      0.00000503     -0.00001184     -0.00000318      0.00000230      0.01024303      0.00000145
 22a2aa2 222      0.00000000     -0.00000000     -0.00000000      0.00000000     -0.00000000      0.00000000      0.00000000
 22aaa22 222     -0.00000001      0.00000000     -0.00000000     -0.00000000      0.00000000     -0.00000000      0.00000000
 222aaa2 222     -0.00000000     -0.00000000      0.00000000     -0.00000001     -0.00000000     -0.00000000      0.00000000
 2a2aa22 222     -0.00000000      0.00000000      0.00000001     -0.00000000     -0.00000000     -0.00000000     -0.00000000
 2a2a22a 222     -0.00002419      0.00282199      0.87176109      0.00005413     -0.20005814     -0.00000440     -0.00000873
 2aa222a 222     -0.00000955     -0.21659355      0.00066854      0.86780492      0.00009278     -0.00004029     -0.00004818
 2aa2a22 222     -0.00000000      0.00000000     -0.00000000      0.00000000      0.00000000     -0.00000000      0.00000000
 222a2aa 222      0.00000532      0.78609572     -0.00255051      0.42666804      0.00009004     -0.00002450     -0.00002812
 22a2a2a 222      0.00001117     -0.00155845     -0.48931902      0.00003083     -0.40070411      0.00001225     -0.00001710
 222aa2a 222      0.00000858      0.57890294     -0.00185852     -0.25469052     -0.00000158      0.00000912      0.00001158
 2a2a2a2 222     -0.00000000      0.00000000      0.00000000      0.00000000      0.00000000      0.00000000      0.00000000
 2aa22a2 222     -0.00000000      0.00000000     -0.00000000     -0.00000000     -0.00000000     -0.00000000      0.00000000
 
 Energy:      -1391.78493352  -1391.78493352  -1391.78493352  -1391.78493352  -1391.78493352  -1391.78493352  -1391.78493351

 State:               15              16              17              18              19              20
 2222aaa 222     -0.00000000     -0.00000000     -0.00000000     -0.00000000     -0.00000000      0.00000000
 2a22a2a 222      0.00000000     -0.00000000      0.00000000     -0.00000000     -0.00000000      0.00000000
 2aaa222 222     -0.00000000      0.00000000     -0.00000000     -0.00000000     -0.00000000     -0.00000000
 22aa2a2 222     -0.00000000      0.00000000      0.00000000      0.00000000      0.00000000      0.00000000
 22aa22a 222      0.00000000      0.00000001      0.00019672     -0.00000249     -0.00000193      0.44685023
 22a22aa 222      0.00000015      0.00019671     -0.00000001      0.00002275      0.44685029      0.00000193
 2a22aa2 222     -0.00000443     -0.00002396     -0.44668727     -0.00000000     -0.00000000      0.00020127
 2a222aa 222      0.00000000      0.00000002      0.00039342     -0.00000498     -0.00000385      0.89370057
 22a2aa2 222      0.00033103      0.44668716     -0.00002397     -0.00000001     -0.00020127     -0.00000000
 22aaa22 222      0.00000886      0.00004792      0.89337460      0.00000000      0.00000000     -0.00040254
 222aaa2 222      0.44668718     -0.00033103     -0.00000441      0.00020128     -0.00000001      0.00000000
 2a2aa22 222     -0.00033103     -0.44668717      0.00002397      0.00000001      0.00020127      0.00000000
 2a2a22a 222      0.00000015      0.00019672     -0.00000001      0.00002275      0.44685027      0.00000193
 2aa222a 222     -0.00019671      0.00000015      0.00000000      0.44685029     -0.00002275      0.00000249
 2aa2a22 222      0.44668717     -0.00033103     -0.00000441      0.00020127     -0.00000001      0.00000000
 222a2aa 222      0.00019671     -0.00000015     -0.00000000     -0.44685028      0.00002275     -0.00000249
 22a2a2a 222      0.00000025      0.00034072     -0.00000002      0.00003940      0.77396737      0.00000334
 222aa2a 222     -0.00034072      0.00000025      0.00000000      0.77396736     -0.00003940      0.00000431
 2a2a2a2 222      0.00057336      0.77368488     -0.00004151     -0.00000002     -0.00034861     -0.00000000
 2aa22a2 222      0.77368487     -0.00057336     -0.00000764      0.00034861     -0.00000002      0.00000000
 
 Energy:      -1391.77011930  -1391.77011930  -1391.77011930  -1391.71357995  -1391.71357995  -1391.71357995
 
 
 CI Coefficients of symmetry 1 (Doublet)
 =======================================

 State:                1               2               3               4               5               6               7
 2222aab 222     -0.00000000     -0.00000000      0.00000000     -0.00000004     -0.00000000      0.00000005     -0.00000000
 2a22a2b 222      0.00000000     -0.00000000     -0.00000005      0.00000000      0.00000005      0.00000000      0.00000000
 22aa22b 222      0.00000000      0.00000000      0.00000001     -0.00000000      0.00000000      0.00000000     -0.00000000
 22a22ab 222      0.00000000     -0.00000001     -0.00000000     -0.00000000      0.00000000     -0.00000000      0.00000000
 2a2a22b 222     -0.00000000      0.00000000     -0.00000000      0.00000000     -0.00000000     -0.00000000      0.00000000
 2aa222b 222     -0.00000000     -0.00000000      0.00000000      0.00000000      0.00000000      0.00000000      0.00000005
 222a2ab 222      0.00000001      0.00000000     -0.00000000     -0.00000000      0.00000000     -0.00000000     -0.00000002
 2a22ba2 222     -0.00000000     -0.00000000      0.00000001      0.00000000     -0.00000001     -0.00000000      0.00000000
 2a22022 222      0.00000395     -0.00001461     -0.54291151      0.00001754      0.21703520     -0.00000557      0.00001623
 22aa2b2 222     -0.00000395      0.00001461      0.54291140     -0.00001754     -0.21703515      0.00000557     -0.00001623
 22220a2 222     -0.00006615      0.00005015      0.00001795      0.51554390     -0.00000013     -0.27560325      0.00064642
 2baa222 222     -0.00006615      0.00005015      0.00001795      0.51554377     -0.00000013     -0.27560317      0.00064642
 2aab222 222      0.00005127     -0.00003000      0.00002575     -0.05182975     -0.00001546      0.51252313     -0.00137006
 2022a22 222     -0.00004149      0.00000031      0.00005391     -0.17740085     -0.00001279     -0.34868406      0.00093222
 2222a02 222      0.00002101     -0.00000569      0.00004010      0.23780156     -0.00001793      0.43269127     -0.00120880
 2aa2b22 222      0.49860385      0.00038022      0.00000231      0.00001967      0.00000330     -0.00029026     -0.08824292
 22a2ba2 222     -0.00036286      0.47934666     -0.00001482     -0.00002812     -0.00000229     -0.00007797      0.00002575
 222aa2b 222      0.00000001      0.00000000     -0.00000000     -0.00000000      0.00000000     -0.00000000     -0.00000003
 22ab2a2 222     -0.00000179     -0.00000188     -0.12790044      0.00000668      0.46761973      0.00000263      0.00000403
 2a2ab22 222     -0.00036693      0.46742669     -0.00001185     -0.00004128     -0.00000118      0.00014197     -0.00007216
 2aba222 222      0.00001488     -0.00002015     -0.00004370     -0.46371403      0.00001559     -0.23691996      0.00072364
 222baa2 222      0.07782330      0.00007737      0.00001382      0.00007967      0.00000028      0.00116073      0.43972586
 222aba2 222     -0.43232035     -0.00034319     -0.00001209     -0.00007451     -0.00000268     -0.00065286     -0.26361217
 2a2ba22 222      0.00012637     -0.14388897      0.00000099      0.00002692     -0.00000072     -0.00026727      0.00012195
 22ba2a2 222      0.00000574     -0.00001273     -0.41501096      0.00001086     -0.25058458     -0.00000820      0.00001220
 2b22aa2 222     -0.00000435      0.00000626      0.16576336     -0.00000241      0.41465553      0.00000625     -0.00000472
 2a22ab2 222      0.00000435     -0.00000626     -0.16576337      0.00000241     -0.41465552     -0.00000625      0.00000472
 2a20222 222      0.00000278     -0.00000177     -0.00782742     -0.00000230     -0.41336090     -0.00000402      0.00000003
 22a0222 222     -0.00000469     -0.01376395      0.00000342     -0.00001520      0.00000128      0.00025397     -0.00011305
 22b2aa2 222      0.00011689     -0.17170214      0.00000790     -0.00000379      0.00000187      0.00024594     -0.00010648
 2222baa 222     -0.00000206      0.00000156      0.00000056      0.01607338     -0.00000000     -0.00859264      0.00002015
 2222aba 222      0.00000206     -0.00000156     -0.00000056     -0.01607334      0.00000000      0.00859259     -0.00002015
 2b22a2a 222      0.00000012     -0.00000046     -0.01692658      0.00000055      0.00676659     -0.00000017      0.00000051
 2a22b2a 222     -0.00000012      0.00000046      0.01692664     -0.00000055     -0.00676663      0.00000017     -0.00000051
 220a222 222      0.07653757      0.00004275     -0.00001130     -0.00006332      0.00000071     -0.00108901     -0.40628721
 22202a2 222      0.00005247     -0.00001280     -0.00005117      0.02474769      0.00001111      0.37086998     -0.00096893
 22a2a2b 222      0.00000000      0.00000000      0.00000000     -0.00000000      0.00000000      0.00000000     -0.00000000
 22022a2 222     -0.00001939     -0.00001227      0.00004220     -0.28251957     -0.00001104     -0.23306843      0.00064572
 2ab2a22 222     -0.23248476     -0.00016377      0.00000902      0.00004828     -0.00000172      0.00103986      0.38126946
 2220a22 222      0.00000069      0.00000993     -0.00004441      0.04421201      0.00001534     -0.08178350      0.00023159
 2202a22 222      0.00001979     -0.00000455     -0.00004959     -0.10461270      0.00001538     -0.00222368      0.00004499
 2ab22a2 222      0.03826879      0.00002138     -0.00000565     -0.00003166      0.00000036     -0.00054451     -0.20314366
 2a2b2a2 222      0.00000235      0.00688198     -0.00000171      0.00000760     -0.00000064     -0.00012699      0.00005652
 22ab22a 222     -0.00000014      0.00000053      0.01954515     -0.00000063     -0.00781340      0.00000020     -0.00000058
 22ba22a 222      0.00000014     -0.00000053     -0.01954516      0.00000063      0.00781340     -0.00000020      0.00000058
 2a222ab 222     -0.00000000     -0.00000000     -0.00000001      0.00000000      0.00000000     -0.00000000      0.00000000
 22b22aa 222      0.00001508     -0.01992641      0.00000062      0.00000117      0.00000010      0.00000324     -0.00000107
 22a22ba 222     -0.00001508      0.01992643     -0.00000062     -0.00000117     -0.00000010     -0.00000324      0.00000107
 2a2b22a 222     -0.00001525      0.01943090     -0.00000049     -0.00000172     -0.00000005      0.00000590     -0.00000300
 2b2a22a 222      0.00001525     -0.01943091      0.00000049      0.00000172      0.00000005     -0.00000590      0.00000300
 202a222 222      0.21133149      0.00017676      0.00001263      0.00007468      0.00000119      0.00092143      0.35534017
 2a02222 222     -0.00000475      0.00000908      0.27928311     -0.00000647      0.30484337      0.00000681     -0.00000814
 22a2202 222      0.00021419     -0.26298698      0.00000513      0.00003143      0.00000004     -0.00020895      0.00009818
 222a202 222     -0.32613784     -0.00024090      0.00000432      0.00002030     -0.00000226      0.00071209      0.25409069
 22a2022 222     -0.00000235     -0.00688199      0.00000171     -0.00000760      0.00000064      0.00012699     -0.00005652
 222a022 222      0.03826879      0.00002138     -0.00000565     -0.00003166      0.00000036     -0.00054451     -0.20314361
 20a2222 222     -0.00020715      0.28363289     -0.00001026     -0.00000864     -0.00000196     -0.00017200      0.00007139
 222aab2 222      0.35449705      0.00026582     -0.00000172     -0.00000516      0.00000241     -0.00050787     -0.17611369
 2ab222a 222      0.02072694      0.00001581      0.00000010      0.00000082      0.00000014     -0.00001207     -0.00366828
 2ba222a 222     -0.02072694     -0.00001581     -0.00000010     -0.00000082     -0.00000014      0.00001207      0.00366823
 22a2ab2 222      0.00024597     -0.30764452      0.00000692      0.00003191      0.00000041     -0.00016796      0.00008074
 2b2aa22 222      0.00024055     -0.32353772      0.00001086      0.00001436      0.00000189      0.00012530     -0.00004980
 2ba2a22 222     -0.26611909     -0.00021645     -0.00001132     -0.00006795     -0.00000158     -0.00074961     -0.29302654
 222b2aa 222      0.01797153      0.00001427      0.00000050      0.00000310      0.00000011      0.00002714      0.01095836
 222a2ba 222     -0.01797154     -0.00001427     -0.00000050     -0.00000310     -0.00000011     -0.00002714     -0.01095834
 22baa22 222      0.00000057     -0.00000211     -0.07836253      0.00000253      0.03132634     -0.00000080      0.00000234
 22aba22 222     -0.00000057      0.00000211      0.07836253     -0.00000253     -0.03132634      0.00000080     -0.00000234
 2aa22b2 222     -0.28786907     -0.00021952     -0.00000133     -0.00001136     -0.00000191      0.00016758      0.05094708
 2b2a2a2 222      0.00020950     -0.27675091      0.00000855      0.00001623      0.00000132      0.00004502     -0.00001486
 2a22202 222     -0.00000198      0.00000730      0.27145574     -0.00000877     -0.10851760      0.00000279     -0.00000812
 2a2a2b2 222     -0.00021185      0.26986893     -0.00000684     -0.00002383     -0.00000068      0.00008197     -0.00004166
 20222a2 222      0.00003308     -0.00002507     -0.00000897     -0.25777193      0.00000006      0.13780162     -0.00032321
 2ba22a2 222      0.24960029      0.00019814      0.00000698      0.00004302      0.00000155      0.00037693      0.15219658
 222ba2a 222      0.00477249      0.00000267     -0.00000070     -0.00000395      0.00000004     -0.00006791     -0.02533400
 222ab2a 222     -0.00477250     -0.00000267      0.00000070      0.00000395     -0.00000004      0.00006791      0.02533403
 22b2a2a 222     -0.00000029     -0.00085825      0.00000021     -0.00000095      0.00000008      0.00001584     -0.00000705
 22a2b2a 222      0.00000029      0.00085825     -0.00000021      0.00000095     -0.00000008     -0.00001584      0.00000705
 2b222aa 222      0.00000027     -0.00000039     -0.01033616      0.00000015     -0.02585581     -0.00000039      0.00000029
 2a222ba 222     -0.00000027      0.00000039      0.01033616     -0.00000015      0.02585581      0.00000039     -0.00000029
 22aab22 222     -0.00000000      0.00000000     -0.00000000      0.00000000     -0.00000000     -0.00000000      0.00000000
 202222a 222     -0.00000182      0.00000022     -0.00000016     -0.01332158      0.00000035     -0.02488512      0.00006848
 222202a 222      0.00000077      0.00000020     -0.00000352     -0.00225977      0.00000115     -0.00314296      0.00001035
 222220a 222      0.00000208     -0.00000015     -0.00000102      0.01256833      0.00000003      0.02383747     -0.00006503
 222022a 222     -0.00000289      0.00000167      0.00000299      0.02006641     -0.00000077     -0.00782658      0.00001637
 220222a 222      0.00000187     -0.00000194      0.00000170     -0.01705339     -0.00000076      0.01201719     -0.00003017
 
 Energy:      -1391.76542200  -1391.76542200  -1391.76542200  -1391.76542200  -1391.76542199  -1391.76542199  -1391.76542199

 State:                8               9              10              11              12              13              14
 2222aab 222      0.00000000      0.00000002     -0.00000403     -0.00000247     -0.00000435      0.00000174      0.00003530
 2a22a2b 222      0.00000000      0.00000000      0.01588888      0.00001625      0.00000408     -0.00001787      0.00001085
 22aa22b 222      0.00000000     -0.00000000      0.72922606      0.00001342     -0.00000642      0.00001700     -0.00000598
 22a22ab 222      0.00000005     -0.00000000      0.00000643     -0.03509480     -0.00087816      0.00004284      0.72851914
 2a2a22b 222      0.00000002     -0.00000000     -0.00001443      0.71394167      0.01774194      0.00001997     -0.14813877
 2aa222b 222     -0.00000000     -0.00000000     -0.00001779      0.00423062     -0.17141149      0.70892366     -0.00004450
 222a2ab 222      0.00000000     -0.00000000     -0.00000195     -0.01600044      0.64334752      0.34324994     -0.00001547
 2a22ba2 222      0.00000000     -0.00000000      0.02591908      0.00000048     -0.00000023      0.00000060     -0.00000021
 2a22022 222     -0.00000334      0.00007639      0.00000001     -0.00000000     -0.00000000      0.00000000     -0.00000000
 22aa2b2 222      0.00000334     -0.00007639     -0.00000000      0.00000000      0.00000000     -0.00000000      0.00000000
 22220a2 222     -0.00019050     -0.01068122     -0.00000000     -0.00000000     -0.00000000     -0.00000000      0.00000000
 2baa222 222     -0.00019050     -0.01068124      0.00000000     -0.00000000     -0.00000000     -0.00000000      0.00000000
 2aab222 222      0.00032588      0.27656604     -0.00000000      0.00000000      0.00000000      0.00000000     -0.00000000
 2022a22 222     -0.00019614      0.43451657      0.00000000      0.00000000     -0.00000000      0.00000000     -0.00000000
 2222a02 222      0.00026631      0.31318424      0.00000000      0.00000000      0.00000000      0.00000000     -0.00000000
 2aa2b22 222      0.00000564      0.00001204     -0.00000032      0.00007519     -0.00304628      0.01259875     -0.00000079
 22a2ba2 222      0.16315480     -0.00000083     -0.00000011      0.00062369      0.00001561     -0.00000076     -0.01294700
 222aa2b 222      0.00000000      0.00000000      0.00000915     -0.01168041      0.47040136     -0.21112185      0.00001676
 22ab2a2 222      0.00000046      0.00003446      0.01122333      0.00000021     -0.00000010      0.00000026     -0.00000009
 2a2ab22 222     -0.19469189      0.00000898     -0.00000026      0.01268794      0.00031530      0.00000035     -0.00263266
[...]
   82    2.1  0.5  0.5   0.000%   0.000%   0.000%   0.000%   0.000%   0.000%   0.000%   0.000%   0.003%   0.000%
   83    3.1  0.5  0.5   0.000%   0.000%   0.000%   0.000%   0.000%   0.000%   0.000%   0.000%   0.000%   0.003%
   84    4.1  0.5  0.5   0.000%   0.000%   0.000%   0.000%   0.000%   0.000%   0.000%   0.000%   0.000%   0.000%
   85    5.1  0.5  0.5   0.000%   0.000%   0.000%   0.000%   0.000%   0.000%   0.000%   0.000%   0.002%   0.000%
   86    6.1  0.5  0.5   0.000%   0.000%   0.000%   0.000%   0.000%   0.000%   0.000%   0.000%   0.002%   0.000%
   87    7.1  0.5  0.5   0.000%   0.000%   0.000%   0.000%   0.000%   0.000%   0.000%   0.000%   0.000%   0.000%
   88    8.1  0.5  0.5   0.019%   0.040%   0.000%   0.000%   0.000%   0.000%   0.000%   0.000%   0.000%   0.000%
   89    9.1  0.5  0.5   0.014%   0.064%   0.000%   0.000%   0.000%   0.000%   0.000%   0.000%   0.000%   0.000%
   90   10.1  0.5  0.5   0.033%   0.127%   0.000%   0.000%   0.000%   0.000%   0.000%   0.000%   0.000%   0.000%
   91   11.1  0.5  0.5   8.328%   0.149%   0.000%   0.000%   0.000%   0.000%   0.000%   0.000%   0.000%   0.000%
   92   12.1  0.5  0.5   5.052%   0.549%   0.000%   0.000%   0.000%   0.000%   0.000%   0.000%   0.000%   0.000%
   93   13.1  0.5  0.5   4.989%  28.144%   0.000%   0.000%   0.000%   0.000%   0.000%   0.000%   0.000%   0.000%
   94   14.1  0.5  0.5   4.576%   6.724%   0.000%   0.000%   0.000%   0.000%   0.000%   0.000%   0.000%   0.000%
   95   15.1  0.5  0.5  10.734%   1.735%   0.000%   0.000%   0.000%   0.000%   0.000%   0.000%   0.000%   0.000%
   96   16.1  0.5  0.5  27.123%   1.537%   0.000%   0.000%   0.000%   0.000%   0.000%   0.000%   0.000%   0.000%
   97   17.1  0.5  0.5   0.000%   0.000%  20.086%   0.002%   0.378%  36.134%   1.099%  31.689%   0.000%   0.000%
   98   18.1  0.5  0.5   0.000%   0.000%   0.029%   8.936%  47.231%   0.403%  31.785%   1.005%   0.000%   0.000%
   99   19.1  0.5  0.5   0.000%   0.000%  55.848%   0.001%   0.020%   0.738%   1.211%  31.571%   0.000%   0.000%
  100   20.1  0.5  0.5   0.000%   0.000%   0.052%   3.649%   0.671%   0.067%   0.000%   0.000%   0.296%  53.136%
  101   21.1  0.5  0.5   0.000%   0.000%   0.128%   4.050%   0.170%   0.093%   0.000%   0.000%   1.881%  20.186%
  102   22.1  0.5  0.5   0.000%   0.000%   2.657%   0.237%   0.048%   1.497%   0.000%   0.000%   3.968%   1.385%
  103   23.1  0.5  0.5   0.000%   0.000%   0.084%   0.049%   0.030%   4.277%   0.000%   0.000%  17.724%   0.180%
  104   24.1  0.5  0.5   0.000%   0.000%   0.000%   0.192%   4.222%   0.023%   0.000%   0.000%   0.042%   0.655%
  105    1.1  0.5 -0.5   0.000%   0.000%   0.000%   0.000%   0.000%   0.000%   0.000%   0.000%   0.000%   0.002%
  106    2.1  0.5 -0.5   0.000%   0.000%   0.000%   0.000%   0.000%   0.000%   0.000%   0.000%   0.000%   0.003%
  107    3.1  0.5 -0.5   0.000%   0.000%   0.000%   0.000%   0.000%   0.000%   0.000%   0.000%   0.003%   0.000%
  108    4.1  0.5 -0.5   0.000%   0.000%   0.000%   0.000%   0.000%   0.000%   0.000%   0.000%   0.000%   0.000%
  109    5.1  0.5 -0.5   0.000%   0.000%   0.000%   0.000%   0.000%   0.000%   0.000%   0.000%   0.000%   0.002%
  110    6.1  0.5 -0.5   0.000%   0.000%   0.000%   0.000%   0.000%   0.000%   0.000%   0.000%   0.000%   0.002%
  111    7.1  0.5 -0.5   0.000%   0.000%   0.000%   0.000%   0.000%   0.000%   0.000%   0.000%   0.000%   0.000%
  112    8.1  0.5 -0.5   0.040%   0.019%   0.000%   0.000%   0.000%   0.000%   0.000%   0.000%   0.000%   0.000%
  113    9.1  0.5 -0.5   0.064%   0.014%   0.000%   0.000%   0.000%   0.000%   0.000%   0.000%   0.000%   0.000%
  114   10.1  0.5 -0.5   0.127%   0.033%   0.000%   0.000%   0.000%   0.000%   0.000%   0.000%   0.000%   0.000%
  115   11.1  0.5 -0.5   0.149%   8.328%   0.000%   0.000%   0.000%   0.000%   0.000%   0.000%   0.000%   0.000%
  116   12.1  0.5 -0.5   0.549%   5.052%   0.000%   0.000%   0.000%   0.000%   0.000%   0.000%   0.000%   0.000%
  117   13.1  0.5 -0.5  28.144%   4.989%   0.000%   0.000%   0.000%   0.000%   0.000%   0.000%   0.000%   0.000%
  118   14.1  0.5 -0.5   6.724%   4.576%   0.000%   0.000%   0.000%   0.000%   0.000%   0.000%   0.000%   0.000%
  119   15.1  0.5 -0.5   1.735%  10.734%   0.000%   0.000%   0.000%   0.000%   0.000%   0.000%   0.000%   0.000%
  120   16.1  0.5 -0.5   1.537%  27.123%   0.000%   0.000%   0.000%   0.000%   0.000%   0.000%   0.000%   0.000%
  121   17.1  0.5 -0.5   0.000%   0.000%   0.002%  20.086%  36.134%   0.378%  31.689%   1.099%   0.000%   0.000%
  122   18.1  0.5 -0.5   0.000%   0.000%   8.936%   0.029%   0.403%  47.231%   1.005%  31.785%   0.000%   0.000%
  123   19.1  0.5 -0.5   0.000%   0.000%   0.001%  55.848%   0.738%   0.020%  31.571%   1.211%   0.000%   0.000%
  124   20.1  0.5 -0.5   0.000%   0.000%   3.649%   0.052%   0.067%   0.671%   0.000%   0.000%  53.136%   0.296%
  125   21.1  0.5 -0.5   0.000%   0.000%   4.050%   0.128%   0.093%   0.170%   0.000%   0.000%  20.186%   1.881%
  126   22.1  0.5 -0.5   0.000%   0.000%   0.237%   2.657%   1.497%   0.048%   0.000%   0.000%   1.385%   3.968%
  127   23.1  0.5 -0.5   0.000%   0.000%   0.049%   0.084%   4.277%   0.030%   0.000%   0.000%   0.180%  17.724%
  128   24.1  0.5 -0.5   0.000%   0.000%   0.192%   0.000%   0.023%   4.222%   0.000%   0.000%   0.655%   0.042%

   Nr   State  S   Sz     121      122      123      124      125      126      127      128

    1    1.1  1.5  1.5   0.000%   0.009%   0.000%   0.013%   0.038%   0.000%   0.001%   0.000%
    2    2.1  1.5  1.5   0.025%   0.000%   0.001%   0.000%   0.000%   0.007%   0.000%   0.000%
    3    3.1  1.5  1.5   0.000%   0.006%   0.000%   0.019%   0.028%   0.000%   0.016%   0.002%
    4    4.1  1.5  1.5   0.000%   0.023%   0.000%   0.002%   0.051%   0.000%   0.000%   0.000%
    5    5.1  1.5  1.5   0.002%   0.000%   0.024%   0.000%   0.000%   0.003%   0.002%   0.030%
    6    6.1  1.5  1.5   0.000%   0.000%   0.000%   0.012%   0.015%   0.000%   0.017%   0.002%
    7    7.1  1.5  1.5   0.003%   0.000%   0.024%   0.000%   0.000%   0.003%   0.002%   0.030%
    8    8.1  1.5  1.5   0.000%   0.001%   0.000%   0.000%   0.003%   0.000%   0.000%   0.000%
    9    9.1  1.5  1.5   0.001%   0.000%   0.000%   0.000%   0.000%   0.000%   0.000%   0.000%
   10   10.1  1.5  1.5   0.000%   0.000%   0.001%   0.000%   0.000%   0.000%   0.000%   0.001%
   11   11.1  1.5  1.5   0.000%   0.000%   0.001%   0.000%   0.000%   0.000%   0.000%   0.001%
   12   12.1  1.5  1.5   0.000%   0.000%   0.000%   0.001%   0.001%   0.000%   0.000%   0.000%
   13   13.1  1.5  1.5   0.000%   0.000%   0.000%   0.001%   0.000%   0.000%   0.001%   0.000%
   14   14.1  1.5  1.5   0.000%   0.001%   0.000%   0.000%   0.002%   0.000%   0.000%   0.000%
   15   15.1  1.5  1.5   0.088%   0.000%   0.005%   0.000%   0.000%   0.209%   0.004%   0.017%
   16   16.1  1.5  1.5   0.000%   0.014%   0.000%   0.066%   0.007%   0.000%   0.065%   0.005%
   17   17.1  1.5  1.5   0.001%   0.042%   0.000%   0.001%   0.007%   0.000%   0.065%   0.005%
   18   18.1  1.5  1.5   0.024%   0.000%   0.001%   0.000%   0.000%   0.003%   0.000%   0.000%
   19   19.1  1.5  1.5   0.000%   0.004%   0.000%   0.018%   0.000%   0.000%   0.001%   0.000%
   20   20.1  1.5  1.5   0.000%   0.011%   0.000%   0.000%   0.000%   0.000%   0.001%   0.000%
   21    1.1  1.5  0.5   0.019%   0.000%   0.008%   0.000%   0.000%   0.002%   0.003%   0.028%
   22    2.1  1.5  0.5   0.000%   0.003%   0.000%   0.018%   0.007%   0.000%   0.052%   0.004%
   23    3.1  1.5  0.5   0.000%   0.000%   0.000%   0.000%   0.000%   0.001%   0.002%   0.022%
   24    4.1  1.5  0.5   0.000%   0.000%   0.003%   0.000%   0.000%   0.011%   0.000%   0.009%
   25    5.1  1.5  0.5   0.000%   0.000%   0.000%   0.002%   0.031%   0.000%   0.004%   0.001%
   26    6.1  1.5  0.5   0.025%   0.000%   0.002%   0.000%   0.000%   0.020%   0.001%   0.016%
   27    7.1  1.5  0.5   0.000%   0.015%   0.000%   0.005%   0.032%   0.000%   0.003%   0.001%
   28    8.1  1.5  0.5   0.000%   0.000%   0.000%   0.000%   0.000%   0.000%   0.000%   0.000%
   29    9.1  1.5  0.5   0.000%   0.000%   0.000%   0.001%   0.000%   0.000%   0.002%   0.000%
   30   10.1  1.5  0.5   0.000%   0.000%   0.000%   0.000%   0.001%   0.000%   0.000%   0.000%
   31   11.1  1.5  0.5   0.000%   0.001%   0.000%   0.000%   0.001%   0.000%   0.000%   0.000%
   32   12.1  1.5  0.5   0.001%   0.000%   0.000%   0.000%   0.000%   0.000%   0.000%   0.002%
   33   13.1  1.5  0.5   0.001%   0.000%   0.000%   0.000%   0.000%   0.001%   0.000%   0.001%
   34   14.1  1.5  0.5   0.000%   0.000%   0.000%   0.000%   0.000%   0.000%   0.000%   0.000%
   35   15.1  1.5  0.5   0.000%   0.022%   0.000%   0.155%   0.002%   0.000%   0.022%   0.002%
   36   16.1  1.5  0.5   0.034%   0.000%   0.066%   0.000%   0.000%   0.129%   0.002%   0.047%
   37   17.1  1.5  0.5   0.110%   0.000%   0.019%   0.000%   0.000%   0.028%   0.014%   0.136%
   38   18.1  1.5  0.5   0.000%   0.006%   0.000%   0.042%   0.000%   0.000%   0.000%   0.000%
   39   19.1  1.5  0.5   0.009%   0.000%   0.018%   0.000%   0.000%   0.002%   0.000%   0.001%
   40   20.1  1.5  0.5   0.030%   0.000%   0.005%   0.000%   0.000%   0.000%   0.000%   0.002%
   41    1.1  1.5 -0.5   0.000%   0.019%   0.000%   0.008%   0.002%   0.000%   0.028%   0.003%
   42    2.1  1.5 -0.5   0.003%   0.000%   0.018%   0.000%   0.000%   0.007%   0.004%   0.052%
   43    3.1  1.5 -0.5   0.000%   0.000%   0.000%   0.000%   0.001%   0.000%   0.022%   0.002%
   44    4.1  1.5 -0.5   0.000%   0.000%   0.000%   0.003%   0.011%   0.000%   0.009%   0.000%
   45    5.1  1.5 -0.5   0.000%   0.000%   0.002%   0.000%   0.000%   0.031%   0.001%   0.004%
   46    6.1  1.5 -0.5   0.000%   0.025%   0.000%   0.002%   0.020%   0.000%   0.016%   0.001%
   47    7.1  1.5 -0.5   0.015%   0.000%   0.005%   0.000%   0.000%   0.032%   0.001%   0.003%
   48    8.1  1.5 -0.5   0.000%   0.000%   0.000%   0.000%   0.000%   0.000%   0.000%   0.000%
   49    9.1  1.5 -0.5   0.000%   0.000%   0.001%   0.000%   0.000%   0.000%   0.000%   0.002%
   50   10.1  1.5 -0.5   0.000%   0.000%   0.000%   0.000%   0.000%   0.001%   0.000%   0.000%
   51   11.1  1.5 -0.5   0.001%   0.000%   0.000%   0.000%   0.000%   0.001%   0.000%   0.000%
   52   12.1  1.5 -0.5   0.000%   0.001%   0.000%   0.000%   0.000%   0.000%   0.002%   0.000%
   53   13.1  1.5 -0.5   0.000%   0.001%   0.000%   0.000%   0.001%   0.000%   0.001%   0.000%
   54   14.1  1.5 -0.5   0.000%   0.000%   0.000%   0.000%   0.000%   0.000%   0.000%   0.000%
   55   15.1  1.5 -0.5   0.022%   0.000%   0.155%   0.000%   0.000%   0.002%   0.002%   0.022%
   56   16.1  1.5 -0.5   0.000%   0.034%   0.000%   0.066%   0.129%   0.000%   0.047%   0.002%
   57   17.1  1.5 -0.5   0.000%   0.110%   0.000%   0.019%   0.028%   0.000%   0.136%   0.014%
   58   18.1  1.5 -0.5   0.006%   0.000%   0.042%   0.000%   0.000%   0.000%   0.000%   0.000%
   59   19.1  1.5 -0.5   0.000%   0.009%   0.000%   0.018%   0.002%   0.000%   0.001%   0.000%
   60   20.1  1.5 -0.5   0.000%   0.030%   0.000%   0.005%   0.000%   0.000%   0.002%   0.000%
   61    1.1  1.5 -1.5   0.009%   0.000%   0.013%   0.000%   0.000%   0.038%   0.000%   0.001%
   62    2.1  1.5 -1.5   0.000%   0.025%   0.000%   0.001%   0.007%   0.000%   0.000%   0.000%
   63    3.1  1.5 -1.5   0.006%   0.000%   0.019%   0.000%   0.000%   0.028%   0.002%   0.016%
   64    4.1  1.5 -1.5   0.023%   0.000%   0.002%   0.000%   0.000%   0.051%   0.000%   0.000%
   65    5.1  1.5 -1.5   0.000%   0.002%   0.000%   0.024%   0.003%   0.000%   0.030%   0.002%
   66    6.1  1.5 -1.5   0.000%   0.000%   0.012%   0.000%   0.000%   0.015%   0.002%   0.017%
   67    7.1  1.5 -1.5   0.000%   0.003%   0.000%   0.024%   0.003%   0.000%   0.030%   0.002%
   68    8.1  1.5 -1.5   0.001%   0.000%   0.000%   0.000%   0.000%   0.003%   0.000%   0.000%
   69    9.1  1.5 -1.5   0.000%   0.001%   0.000%   0.000%   0.000%   0.000%   0.000%   0.000%
   70   10.1  1.5 -1.5   0.000%   0.000%   0.000%   0.001%   0.000%   0.000%   0.001%   0.000%
   71   11.1  1.5 -1.5   0.000%   0.000%   0.000%   0.001%   0.000%   0.000%   0.001%   0.000%
   72   12.1  1.5 -1.5   0.000%   0.000%   0.001%   0.000%   0.000%   0.001%   0.000%   0.000%
   73   13.1  1.5 -1.5   0.000%   0.000%   0.001%   0.000%   0.000%   0.000%   0.000%   0.001%
   74   14.1  1.5 -1.5   0.001%   0.000%   0.000%   0.000%   0.000%   0.002%   0.000%   0.000%
   75   15.1  1.5 -1.5   0.000%   0.088%   0.000%   0.005%   0.209%   0.000%   0.017%   0.004%
   76   16.1  1.5 -1.5   0.014%   0.000%   0.066%   0.000%   0.000%   0.007%   0.005%   0.065%
   77   17.1  1.5 -1.5   0.042%   0.001%   0.001%   0.000%   0.000%   0.007%   0.005%   0.065%
   78   18.1  1.5 -1.5   0.000%   0.024%   0.000%   0.001%   0.003%   0.000%   0.000%   0.000%
   79   19.1  1.5 -1.5   0.004%   0.000%   0.018%   0.000%   0.000%   0.000%   0.000%   0.001%
   80   20.1  1.5 -1.5   0.011%   0.000%   0.000%   0.000%   0.000%   0.000%   0.000%   0.001%
   81    1.1  0.5  0.5   0.000%   0.000%   0.003%   0.000%   0.000%   0.000%   0.000%   0.000%
   82    2.1  0.5  0.5   0.000%   0.000%   0.002%   0.000%   0.000%   0.000%   0.000%   0.000%
   83    3.1  0.5  0.5   0.000%   0.002%   0.000%   0.000%   0.000%   0.000%   0.000%   0.000%
   84    4.1  0.5  0.5   0.000%   0.001%   0.000%   0.004%   0.000%   0.000%   0.000%   0.000%
   85    5.1  0.5  0.5   0.004%   0.000%   0.000%   0.000%   0.000%   0.000%   0.000%   0.000%
   86    6.1  0.5  0.5   0.001%   0.000%   0.003%   0.000%   0.000%   0.000%   0.000%   0.000%
   87    7.1  0.5  0.5   0.000%   0.005%   0.000%   0.001%   0.000%   0.000%   0.000%   0.000%
   88    8.1  0.5  0.5   0.000%   0.000%   0.000%   0.000%   0.000%   0.000%   0.000%   0.000%
   89    9.1  0.5  0.5   0.000%   0.000%   0.000%   0.000%   0.000%   0.000%   0.000%   0.000%
   90   10.1  0.5  0.5   0.000%   0.000%   0.000%   0.000%   0.000%   0.000%   0.000%   0.000%
   91   11.1  0.5  0.5   0.000%   0.000%   0.000%   0.000%   0.000%   0.000%   0.000%   0.000%
   92   12.1  0.5  0.5   0.000%   0.000%   0.000%   0.000%   0.000%   0.000%   0.000%   0.000%
   93   13.1  0.5  0.5   0.000%   0.000%   0.000%   0.000%   0.000%   0.000%   0.000%   0.000%
   94   14.1  0.5  0.5   0.000%   0.000%   0.000%   0.000%   0.000%   0.000%   0.000%   0.000%
   95   15.1  0.5  0.5   0.000%   0.000%   0.000%   0.000%   0.000%   0.000%   0.000%   0.000%
   96   16.1  0.5  0.5   0.000%   0.000%   0.000%   0.000%   0.000%   0.000%   0.000%   0.000%
   97   17.1  0.5  0.5   0.000%   0.000%   0.000%   0.000%   0.011%   3.275%   0.445%   3.456%
   98   18.1  0.5  0.5   0.000%   0.000%   0.000%   0.000%   0.645%   0.029%   6.026%   0.486%
   99   19.1  0.5  0.5   0.000%   0.000%   0.000%   0.000%   0.000%   6.820%   0.002%   0.364%
  100   20.1  0.5  0.5   1.834%   0.365%   0.346%   3.691%  31.171%   0.315%   2.103%   1.846%
  101   21.1  0.5  0.5   1.246%  33.511%   0.223%   2.629%  33.647%   0.961%   0.425%   0.390%
  102   22.1  0.5  0.5  44.568%   1.468%   7.913%   0.375%   1.618%  17.805%   0.827%  15.173%
  103   23.1  0.5  0.5  13.882%   0.251%  27.636%   0.009%   0.794%   1.782%   3.235%  29.606%
  104   24.1  0.5  0.5   0.120%   2.207%   0.003%  56.628%   0.391%   0.088%  32.372%   2.597%
  105    1.1  0.5 -0.5   0.000%   0.000%   0.000%   0.003%   0.000%   0.000%   0.000%   0.000%
  106    2.1  0.5 -0.5   0.000%   0.000%   0.000%   0.002%   0.000%   0.000%   0.000%   0.000%
  107    3.1  0.5 -0.5   0.002%   0.000%   0.000%   0.000%   0.000%   0.000%   0.000%   0.000%
  108    4.1  0.5 -0.5   0.001%   0.000%   0.004%   0.000%   0.000%   0.000%   0.000%   0.000%
  109    5.1  0.5 -0.5   0.000%   0.004%   0.000%   0.000%   0.000%   0.000%   0.000%   0.000%
  110    6.1  0.5 -0.5   0.000%   0.001%   0.000%   0.003%   0.000%   0.000%   0.000%   0.000%
  111    7.1  0.5 -0.5   0.005%   0.000%   0.001%   0.000%   0.000%   0.000%   0.000%   0.000%
  112    8.1  0.5 -0.5   0.000%   0.000%   0.000%   0.000%   0.000%   0.000%   0.000%   0.000%
  113    9.1  0.5 -0.5   0.000%   0.000%   0.000%   0.000%   0.000%   0.000%   0.000%   0.000%
  114   10.1  0.5 -0.5   0.000%   0.000%   0.000%   0.000%   0.000%   0.000%   0.000%   0.000%
  115   11.1  0.5 -0.5   0.000%   0.000%   0.000%   0.000%   0.000%   0.000%   0.000%   0.000%
  116   12.1  0.5 -0.5   0.000%   0.000%   0.000%   0.000%   0.000%   0.000%   0.000%   0.000%
  117   13.1  0.5 -0.5   0.000%   0.000%   0.000%   0.000%   0.000%   0.000%   0.000%   0.000%
  118   14.1  0.5 -0.5   0.000%   0.000%   0.000%   0.000%   0.000%   0.000%   0.000%   0.000%
  119   15.1  0.5 -0.5   0.000%   0.000%   0.000%   0.000%   0.000%   0.000%   0.000%   0.000%
  120   16.1  0.5 -0.5   0.000%   0.000%   0.000%   0.000%   0.000%   0.000%   0.000%   0.000%
  121   17.1  0.5 -0.5   0.000%   0.000%   0.000%   0.000%   3.275%   0.011%   3.456%   0.445%
  122   18.1  0.5 -0.5   0.000%   0.000%   0.000%   0.000%   0.029%   0.645%   0.486%   6.026%
  123   19.1  0.5 -0.5   0.000%   0.000%   0.000%   0.000%   6.820%   0.000%   0.364%   0.002%
  124   20.1  0.5 -0.5   0.365%   1.834%   3.691%   0.346%   0.315%  31.171%   1.846%   2.103%
  125   21.1  0.5 -0.5  33.511%   1.246%   2.629%   0.223%   0.961%  33.647%   0.390%   0.425%
  126   22.1  0.5 -0.5   1.468%  44.568%   0.375%   7.913%  17.805%   1.618%  15.173%   0.827%
  127   23.1  0.5 -0.5   0.251%  13.882%   0.009%  27.636%   1.782%   0.794%  29.606%   3.235%
  128   24.1  0.5 -0.5   2.207%   0.120%  56.628%   0.003%   0.088%   0.391%   2.597%  32.372%


 Property matrices transformed in SO basis (not sym. adapted)
 ============================================================

 No matrix element <i|DMX|i> larger than 5E-7
 No matrix element <i|DMX|1> larger than 5E-7

 No matrix element <i|DMY|i> larger than 5E-7
 No matrix element <i|DMY|1> larger than 5E-7

 No matrix element <i|DMZ|i> larger than 5E-7
 No matrix element <i|DMZ|1> larger than 5E-7


 **********************************************************************************************************************************
 DATASETS  * FILE   NREC   LENGTH (MB)   RECORD NAMES
              1      24      601.42       500      610      700      900      950      970     1000      129      960     1700   
                                          VAR    BASINP    GEOM    SYMINP    ZMAT    AOBASIS   BASIS     P2S    ABASIS    OPER   
                                         1101     1401     1411     1412     1650     1100     1400     1410     1200     1210   
                                          SR      EKINR    POTR     PVPR    MOLCAS      S      EKIN      POT      H0       H01  
                                         1080     1600     1380     1700(1)
                                         AOSYM     SMH     JKOP     OPER   

              2       7     3308.37       700     1000      520     2100     2140     5101     5102   
                                         GEOM     BASIS   MCVARS     RHF     MCSCF    MRCI     MRCI   

 PROGRAMS   *        TOTAL        CI     LSINT        CI        CI     MULTI   RHF-SCF       INT
 CPU TIMES  *    306362.21 271388.63     11.50  26088.40   8865.48      5.24      0.98      1.70
 REAL TIME  *    312131.59 SEC
 DISK USED  *         3.28 GB (local),       41.39 GB (total)
 SF USED    *        18.67 GB
 GA USED    *         0.00 MB       (max)       0.00 MB       (current)
 **********************************************************************************************************************************

 CI/cc-pWCVQZ-DK energy=  -1392.528623407090

              CI              CI           MULTI         RHF-SCF
  -1392.45015818  -1392.46834598  -1391.76123628  -1391.81339402
 **********************************************************************************************************************************
 Molpro calculation terminated with 2 warning(s)
