
 Working directory              : /scratch/irikura/molpro.QFT1T6gfDY/
 Global scratch directory       : /scratch/irikura/molpro.QFT1T6gfDY/
 Wavefunction directory         : /home/irikura/wfu/
 Main file repository           : /scratch/irikura/molpro.QFT1T6gfDY/

 id        : nistki

 Nodes     nprocs
 n1328.becn    4
 GA implementation: MPI file
 GA implementation (serial work in mppx): MPI file

 Using customized tuning parameters: mindgm=1; mindgv=20; mindgc=4; mindgr=1; noblas=0; minvec=7
 default implementation of scratch files=sf  


 Variables initialized (1040), CPU time= 0.01 sec
 ***,Co atom
                                                                                 ! Orbitals optimized mostly for ground 4F term
 memory,1500,M;
 
 gprint,orbitals,civector
 
 symmetry,xyz
 geometry={Co}
 
 basis=cc-pwCVTZ-DK
 
 set,dkho=101
 
 {rhf,so-sci;wf,nelec=27,sym=1, spin=3}
 
                                                                                 ! 4F term only
 {multi
     closed,2,3
     wf,nelec=27,sym=1,spin=3; state,7;
     expec2,lxx,lyy,lzz;
  }
 table, energy, ll
 title, 4F energies and LL values
 
                                                                                 ! Add other terms but with low weights
 {multi
     closed,2,3
     wf,nelec=27,sym=1,spin=3; state,17;
       weight,99,99,99,99,99,99,99, 1,1,1, 1,1,1,1,1,1,1
     wf,nelec=27,sym=1,spin=1; state,7;
       weight,1,1,1,1,1,1,1
     expec2,lxx,lyy,lzz;
  }
 table, energy, ll
 title, CASSCF energies and LL values
 
                                                                                 ! MRCI and SO-CI
                                                                                 ! 4F + 4F + 4P + 2F
 {ci;wf,sym=1,spin=3; state,17;save,5103.2}
 hlsdiag = energd4
 {ci;wf,sym=1,spin=1; state,7;save,5101.2}
 hlsdiag(18) = energd4
 
 table, hlsdiag
 
 lsint
 {ci;hlsmat,ls,5103.2,5101.2;print,vls=0,hls=0}
 
 Commands initialized (846), CPU time= 0.00 sec, 717 directives.
 Default parameters read. Elapsed time= 0.16 sec

 Checking input...
 Passed
1


                                         ***  PROGRAM SYSTEM MOLPRO  ***
                                       Copyright, TTI GmbH Stuttgart, 2015
                                    Version 2023.2 linked Fri Sep 22 03:27:09 2023


 **********************************************************************************************************************************
 LABEL *   Co atom                                                                                                                                                       
  (32 PROC) 64 bit mpp version                                                           DATE: 09-Feb-24          TIME: 16:20:10  
 **********************************************************************************************************************************

 SHA1:             3c61bfe44d37c8635c785372c339f5cbdd4e4b59
 **********************************************************************************************************************************

 Memory per process:      1500 MW
 Total memory per node:   6000 MW

 GA preallocation disabled
 GA check disabled

 Variable memory set to 1500.0 MW


 ZSYMEL=XYZ

 SETTING BASIS          =    CC-PWCVTZ-DK
 SETTING DKHO           =       101.00000000                                  


 Recomputing integrals since basis changed


 Using spherical harmonics

 Library entry CO     S cc-pwCVTZ-DK         selected for orbital group  1
 Library entry CO     P cc-pwCVTZ-DK         selected for orbital group  1
 Library entry CO     D cc-pwCVTZ-DK         selected for orbital group  1
 Library entry CO     F cc-pwCVTZ-DK         selected for orbital group  1
 Library entry CO     G cc-pwCVTZ-DK         selected for orbital group  1


 PROGRAM * SEWARD (Integral evaluation for generally contracted gaussian basis sets)     Author: Roland Lindh, 1990

 Geometry written to block  1 of record 700

 Orientation using atomic masses  
 Molecule type: Atom
 User-specified symmetry elements: XYZ
 Symmetry elements: XYZ
 Rotational constants:       0.0000000      0.0000000      0.0000000 GHz  (calculated with average atomic masses)

 Point group  Ci  



 ATOMIC COORDINATES

 NR  ATOM    CHARGE       X              Y              Z

   1  CO     27.00    0.000000000    0.000000000    0.000000000

 NUCLEAR CHARGE:                   27
 NUMBER OF PRIMITIVE AOS:         196
 NUMBER OF SYMMETRY AOS:          165
 NUMBER OF CONTRACTIONS:          102   (   57Ag  +   45Au  )
 NUMBER OF INNER CORE ORBITALS:     5   (    2Ag  +    3Au  )
 NUMBER OF OUTER CORE ORBITALS:     4   (    1Ag  +    3Au  )
 NUMBER OF VALENCE ORBITALS:        6   (    6Ag  +    0Au  )


 NUCLEAR REPULSION ENERGY    0.00000000

 One-electron integrals computed with SEWARD

 eXact-2-Component (X2C) method activated

 Computing Douglas-Kroll / X2C integrals

 AO integral compression algorithm  1   Integral accuracy      1.0D-11

     15.466 MB (compressed) written to integral file ( 15.0%)

     Node minimum: 2.884 MB, node maximum: 6.029 MB


 NUMBER OF SORTED TWO-ELECTRON INTEGRALS:    1755030.     BUFFER LENGTH:  32768
 NUMBER OF SEGMENTS:   1  SEGMENT LENGTH:    1755030      RECORD LENGTH: 524288

 Memory used in sort:       2.31 MW

 SORT1 READ    12883698. AND WROTE      339780. INTEGRALS IN      1 RECORDS. CPU TIME:     0.04 SEC, REAL TIME:     0.04 SEC
 SORT2 READ     1353984. AND WROTE     7035726. INTEGRALS IN     92 RECORDS. CPU TIME:     0.04 SEC, REAL TIME:     0.04 SEC

 Node minimum:     1755030.  Node maximum:     1760662. integrals

 OPERATOR DM      FOR CENTER  0  COORDINATES:    0.000000    0.000000    0.000000

 EXTRA SYMMETRY OF AOS IN SYMMETRY 1:   1 1 1 1 1 1 1 1 1 2   3 4 5 6 2 3 4 5 6 2   3 4 5 6 2 3 4 5 6 2   3 4 5 6 2 3 4 5 6 7
                                        8 9101112131415 7 8   9101112131415
 EXTRA SYMMETRY OF AOS IN SYMMETRY 2:   1 2 3 1 2 3 1 2 3 1   2 3 1 2 3 1 2 3 1 2   3 1 2 3 4 5 6 7 8 9  10 4 5 6 7 8 910 4 5
                                        6 7 8 910

 Eigenvalues of metric

         1 0.366E-03 0.267E-02 0.154E-01 0.154E-01 0.154E-01 0.154E-01 0.154E-01 0.248E-01
         2 0.242E-03 0.242E-03 0.242E-03 0.177E-02 0.177E-02 0.177E-02 0.125E+00 0.125E+00


 **********************************************************************************************************************************
 DATASETS  * FILE   NREC   LENGTH (MB)   RECORD NAMES
              1      22       29.09       500      610      700      900      950      970     1000      129      960     1700   
                                          VAR    BASINP    GEOM    SYMINP    ZMAT    AOBASIS   BASIS     P2S    ABASIS    OPER   
                                         1101     1401     1411     1412     1650     1100     1400     1410     1200     1210   
                                          SR      EKINR    POTR     PVPR    MOLCAS      S      EKIN      POT      H0       H01  
                                         1080     1600   
                                         AOSYM     SMH  

 PROGRAMS   *        TOTAL       INT
 CPU TIMES  *         1.00      0.85
 REAL TIME  *         1.84 SEC
 DISK USED  *        29.44 MB (local),      141.36 MB (total)
 GA USED    *         0.00 MB       (max)       0.00 MB       (current)
 **********************************************************************************************************************************


 Program * Restricted Hartree-Fock

 Orbital guess generated from atomic densities. Full valence occupancy:    9   6

 Initial alpha occupancy:   9   6
 Initial beta  occupancy:   6   6
 
 SO-SCI SOLVER WITH NELEC=27 SYM=1 MS2=3 THRE=1.0D-08 THRG=3.2D-06
 
 Authors: D.A. Kreplin, H.-J. Werner (2022)
 
 Number of closed-shell orbitals:                12   (    6    6)
 Number of singly occupied active orbitals:       3   (    3    0)
 Number of virtual orbitals:                     87   (   48   39)
 
 ITER.  MIC  NCI          ENERGY    ENERGY CHANGE          GRAD      ORB GRAD        CI RES  NQN        STEP      TIME
    1    1    0   -1391.67817788   -1391.67817788    1.15985490    1.15985490    0.00000000    0    0.32E+00      0.06
    2    1    0   -1391.67720981       0.00096807    1.29906376    1.29906376    0.00000000    0    0.25E+00      0.11
    3    1    0   -1391.72408670      -0.04687689    1.15055801    1.15055801    0.00000000    0    0.22E+00      0.14
    4    1    0   -1391.72726816      -0.00318145    1.06376263    1.06376263    0.00000000    0    0.23E+00      0.18
    5    1    0   -1391.72396131       0.00330685    1.12013629    1.12013629    0.00000000    0    0.21E+00      0.22
    6    2    0   -1391.74343669      -0.01947538    0.99765378    0.99765378    0.00000000    1    0.10E+00      0.26
    7    2    0   -1391.80691074      -0.06347405    0.20084249    0.20084249    0.00000000    2    0.96E-01      0.30
    8    1    0   -1391.81005144      -0.00314069    0.04686630    0.04686630    0.00000000    3    0.35E-01      0.34
    9    2    0   -1391.81031972      -0.00026828    0.00711305    0.00711305    0.00000000    4    0.12E-01      0.38
   10    2    0   -1391.81033885      -0.00001913    0.00270118    0.00270118    0.00000000    5    0.16E-02      0.42
   11    1    0   -1391.81034087      -0.00000202    0.00107607    0.00107607    0.00000000    6    0.37E-03      0.46
   12    2    0   -1391.81034108      -0.00000020    0.00019001    0.00019001    0.00000000    7    0.23E-03      0.50
   13    2    0   -1391.81034109      -0.00000001    0.00004185    0.00004185    0.00000000    8    0.38E-04      0.54
   14    2    0   -1391.81034109      -0.00000000    0.00001849    0.00001849    0.00000000    9    0.30E-04      0.59
   15    2    0   -1391.81034109      -0.00000000    0.00000817    0.00000817    0.00000000   10    0.22E-04      0.63
   16    2    0   -1391.81034109      -0.00000000    0.00000392    0.00000392    0.00000000   10    0.72E-05      0.67

 CONVERGENCE REACHED!  Final gradient:     0.00000029 ( 0.29E-06)
                       Final energy:   -1391.81034109
 

 Final alpha occupancy:   9   6
 Final beta  occupancy:   6   6

 !RHF STATE 1.1 Energy              -1391.810341090510
  RHF One-electron energy           -1932.565594344084
  RHF Two-electron energy             540.755253253574
  RHF Kinetic energy                 1454.632316830834
  RHF Nuclear energy                    0.000000000000
  RHF Virial quotient                  -0.956812470744

 !RHF STATE 1.1 Dipole moment           0.00000000     0.00000000     0.00000000
 Dipole moment /Debye                   0.00000000     0.00000000     0.00000000

 ELECTRON ORBITALS
 =================

  Orbital  Occupation    Energy    Cen Mu Typ  Coefficients
    1.1     2.00000  -285.56635     1  1  s    0.97812
    2.1     2.00000   -35.23766     1  2  s    0.99666
    3.1     2.00000    -4.40336     1  3  s    0.99088
    4.1     2.00000    -0.40428     1  1  d1+  0.99693
    5.1     2.00000    -0.40428     1  1  d0   0.85884    1  1  d2+  0.49591
    6.1     2.00000    -0.40428     1  1  d2-  0.99199
    7.1     1.00000    -0.48242     1  1  d1-  0.99802
    8.1     1.00000    -0.48242     1  1  d0  -0.49908    1  1  d2+  0.86446
    9.1     1.00000    -0.23846     1  4  s    0.96027
    1.2     2.00000   -30.01080     1  1  py   0.99687
    2.2     2.00000   -30.01080     1  1  pz   0.97740
    3.2     2.00000   -30.01080     1  1  px   0.97467
    4.2     2.00000    -2.82443     1  2  pz   1.00138
    5.2     2.00000    -2.82443     1  2  px   1.00128
    6.2     2.00000    -2.82443     1  2  py   1.00124


 HOMO      9.1    -0.238458 =      -6.4888eV
 LUMO      7.2     0.046874 =       1.2755eV
 LUMO-HOMO         0.285331 =       7.7643eV

 Orbitals saved in record  2100.2


 **********************************************************************************************************************************
 DATASETS  * FILE   NREC   LENGTH (MB)   RECORD NAMES
              1      23       29.54       500      610      700      900      950      970     1000      129      960     1700   
                                          VAR    BASINP    GEOM    SYMINP    ZMAT    AOBASIS   BASIS     P2S    ABASIS    OPER   
                                         1101     1401     1411     1412     1650     1100     1400     1410     1200     1210   
                                          SR      EKINR    POTR     PVPR    MOLCAS      S      EKIN      POT      H0       H01  
                                         1080     1600     1380   
                                         AOSYM     SMH     JKOP   

              2       4        0.53       700     1000      520     2100   
                                         GEOM     BASIS   MCVARS     RHF  

 PROGRAMS   *        TOTAL   RHF-SCF       INT
 CPU TIMES  *         1.61      0.61      0.85
 REAL TIME  *         2.58 SEC
 DISK USED  *        30.16 MB (local),      144.24 MB (total)
 SF USED    *         1.97 MB
 GA USED    *         0.00 MB       (max)       0.00 MB       (current)
 **********************************************************************************************************************************

 PROGRAM * MULTI (Direct Multiconfiguration SCF)       Authors: P.J. Knowles, H.-J. Werner (1984)
                                                                D.A. Kreplin, P.J. Knowles, H.-J. Werner (2019)

 Number of closed-shell orbitals:   5 (    2    3)
 Number of active  orbitals:       10 (    7    3)
 Number of external orbitals:      87 (   48   39)

 State symmetry 1

 Number of active electrons:  17    Spin symmetry=Quartet   Space symmetry=1
 Number of states:             7
 Number of CSFs:              56   (56 determinants, 120 intermediate states)

 Molecular orbitals read from record     2100.2  Type=RHF/CANONICAL (state 1.1)
 *** IN SYMMETRY 1 ORBITAL  2 SYMMETRY CONTAMINATION OF 0.229D-03 HAS BEEN REMOVED
 *** IN SYMMETRY 1 ORBITAL  3 SYMMETRY CONTAMINATION OF 0.154D-02 HAS BEEN REMOVED
 *** IN SYMMETRY 1 ORBITAL  4 SYMMETRY CONTAMINATION OF 0.314D-01 HAS BEEN REMOVED
 *** IN SYMMETRY 1 ORBITAL  5 SYMMETRY CONTAMINATION OF 0.424D+00 HAS BEEN REMOVED
 *** IN SYMMETRY 1 ORBITAL  6 SYMMETRY CONTAMINATION OF 0.135D+00 HAS BEEN REMOVED
 *** IN SYMMETRY 1 ORBITAL  7 SYMMETRY CONTAMINATION OF 0.318D-01 HAS BEEN REMOVED
 *** IN SYMMETRY 1 ORBITAL  8 SYMMETRY CONTAMINATION OF 0.371D+00 HAS BEEN REMOVED
 *** IN SYMMETRY 1 ORBITAL  9 SYMMETRY CONTAMINATION OF 0.779D-03 HAS BEEN REMOVED

 EXTRA SYMMETRY OF MOS IN SYMMETRY 1:   1 1 1 4 2 3 6 5 1 1   6 5 4 2 3 1 6 5 4 2   3 1 6 5 4 2 3121411  13 715 910 8 1 6 5 4
                                        2 312111314 715 910   8 6 5 4 2 3 1
 *** IN SYMMETRY 2 ORBITAL  1 SYMMETRY CONTAMINATION OF 0.843D-01 HAS BEEN REMOVED
 *** IN SYMMETRY 2 ORBITAL  2 SYMMETRY CONTAMINATION OF 0.197D+00 HAS BEEN REMOVED
 *** IN SYMMETRY 2 ORBITAL  3 SYMMETRY CONTAMINATION OF 0.227D+00 HAS BEEN REMOVED
 *** IN SYMMETRY 2 ORBITAL  4 SYMMETRY CONTAMINATION OF 0.224D-01 HAS BEEN REMOVED
 *** IN SYMMETRY 2 ORBITAL  5 SYMMETRY CONTAMINATION OF 0.305D-01 HAS BEEN REMOVED
 *** IN SYMMETRY 2 ORBITAL  6 SYMMETRY CONTAMINATION OF 0.360D-01 HAS BEEN REMOVED
 EXTRA SYMMETRY OF MOS IN SYMMETRY 2:   2 3 1 3 1 2 3 1 2 3   1 2 3 2 1 5 710 6 8   9 4 2 3 1 5 710 6 8   9 4 3 1 2 5 710 6 8
                                        9 4 3 1 2

 Wavefunction dump at record             2140.2

 Convergence thresholds  0.10E-04 (gradient)  0.10E-05 (energy)

 Weight factors for state symmetry  1:    0.14286   0.14286   0.14286   0.14286   0.14286   0.14286   0.14286
 
 Number of orbital rotations:  689  ( 23 closed/active, 213 closed/virtual, 0 active/active, 453 active/virtual )
 Total number of variables:    1081
 
 Second-order MCSCF: L-BFGS accelerated
 
 ITER  MIC  NCI  NEG     ENERGY(VAR)    ENERGY(PROJ) ENERGY CHANGE       GRAD(0)  GRAD(ORB)   GRAD(CI)      STEP      TIME
   1    3    3    0  -1391.80634565   -1391.80758013   -0.00123447    0.06020350 0.00001360 0.00000000  0.33E-01      0.18
   2    4    4    0  -1391.80758443   -1391.80758452   -0.00000009    0.00057963 0.00000050 0.00000000  0.45E-03      0.37
   3   20   20    0  -1391.80758452   -1391.80758452    0.00000000    0.00000051 0.00000036 0.00000000  0.40E-06      0.71

 CONVERGENCE REACHED!  Final gradient:    0.00000026 ( 0.26E-06)
                       Final energy:  -1391.80758452
 
 Results for state 1.1
 =====================
 !MCSCF STATE 1.1 Energy                     -1391.807584528244
 Nuclear energy                                  0.00000000
 Kinetic energy                               1454.62949297
 One electron energy                         -1932.57186539
 Two electron energy                           540.76428087
 Virial ratio                                    1.95681243
 
 !MCSCF STATE 1.1 Dipole moment                  0.00000000     0.00000000     0.00000000
 Dipole moment /Debye                            0.00000000     0.00000000     0.00000000
 
 Results for state 2.1
 =====================
 !MCSCF STATE 2.1 Energy                     -1391.807584525586
 Nuclear energy                                  0.00000000
 Kinetic energy                               1454.62949350
 One electron energy                         -1932.57186637
 Two electron energy                           540.76428184
 Virial ratio                                    1.95681243
 
 !MCSCF STATE 2.1 Dipole moment                  0.00000000     0.00000000     0.00000000
 Dipole moment /Debye                            0.00000000     0.00000000     0.00000000
 
 Results for state 3.1
 =====================
 !MCSCF STATE 3.1 Energy                     -1391.807584522373
 Nuclear energy                                  0.00000000
 Kinetic energy                               1454.62949369
 One electron energy                         -1932.57186671
 Two electron energy                           540.76428219
 Virial ratio                                    1.95681243
 
 !MCSCF STATE 3.1 Dipole moment                  0.00000000     0.00000000     0.00000000
 Dipole moment /Debye                            0.00000000     0.00000000     0.00000000
 
 Results for state 4.1
 =====================
 !MCSCF STATE 4.1 Energy                     -1391.807584518918
 Nuclear energy                                  0.00000000
 Kinetic energy                               1454.62949374
 One electron energy                         -1932.57186681
 Two electron energy                           540.76428229
 Virial ratio                                    1.95681243
 
 !MCSCF STATE 4.1 Dipole moment                  0.00000000     0.00000000     0.00000000
 Dipole moment /Debye                            0.00000000     0.00000000     0.00000000
 
 Results for state 5.1
 =====================
 !MCSCF STATE 5.1 Energy                     -1391.807584518101
 Nuclear energy                                  0.00000000
 Kinetic energy                               1454.62949397
 One electron energy                         -1932.57186723
 Two electron energy                           540.76428271
 Virial ratio                                    1.95681243
 
 !MCSCF STATE 5.1 Dipole moment                  0.00000000     0.00000000     0.00000000
 Dipole moment /Debye                            0.00000000     0.00000000     0.00000000
 
 Results for state 6.1
 =====================
 !MCSCF STATE 6.1 Energy                     -1391.807584515522
 Nuclear energy                                  0.00000000
 Kinetic energy                               1454.62949480
 One electron energy                         -1932.57186876
 Two electron energy                           540.76428425
 Virial ratio                                    1.95681243
 
 !MCSCF STATE 6.1 Dipole moment                  0.00000000     0.00000000     0.00000000
 Dipole moment /Debye                            0.00000000     0.00000000     0.00000000
 
 Results for state 7.1
 =====================
 !MCSCF STATE 7.1 Energy                     -1391.807584513815
 Nuclear energy                                  0.00000000
 Kinetic energy                               1454.62949524
 One electron energy                         -1932.57186956
 Two electron energy                           540.76428504
 Virial ratio                                    1.95681243
 
 !MCSCF STATE 7.1 Dipole moment                  0.00000000     0.00000000     0.00000000
 Dipole moment /Debye                            0.00000000     0.00000000     0.00000000
 
 State-averaged charge density matrix saved on record 2140.2 (density set 1)
 
 No non-zero expectation values
 
 Expectation values for two-electron operators:
 
 !MCSCF expec                      <1.1|LXLX|1.1>     0.114075231735
 !MCSCF expec                      <2.1|LXLX|2.1>     2.189153822676
 !MCSCF expec                      <3.1|LXLX|3.1>     1.772069502529
 !MCSCF expec                      <4.1|LXLX|4.1>     8.227949003791
 !MCSCF expec                      <5.1|LXLX|5.1>     7.810854739145
 !MCSCF expec                      <6.1|LXLX|6.1>     3.885925266561
 !MCSCF expec                      <7.1|LXLX|7.1>     4.000000000168
 
 !MCSCF expec                      <1.1|LYLY|1.1>     4.653648963797
 !MCSCF expec                      <2.1|LYLY|2.1>     0.973590647198
 !MCSCF expec                      <3.1|LYLY|3.1>     6.680795223249
 !MCSCF expec                      <4.1|LYLY|4.1>     3.319176272722
 !MCSCF expec                      <5.1|LYLY|5.1>     3.026404295424
 !MCSCF expec                      <6.1|LYLY|6.1>     5.346348049827
 !MCSCF expec                      <7.1|LYLY|7.1>     4.000000040291
 
 !MCSCF expec                      <1.1|LZLZ|1.1>     7.232275804468
 !MCSCF expec                      <2.1|LZLZ|2.1>     8.837255530127
 !MCSCF expec                      <3.1|LZLZ|3.1>     3.547135274223
 !MCSCF expec                      <4.1|LZLZ|4.1>     0.452874723488
 !MCSCF expec                      <5.1|LZLZ|5.1>     1.162740965431
 !MCSCF expec                      <6.1|LZLZ|6.1>     2.767726683613
 !MCSCF expec                      <7.1|LZLZ|7.1>     3.999999959541
 
 !MCSCF expec                      <1.1|L**2|1.1>    12.000000000000
 !MCSCF expec                      <2.1|L**2|2.1>    12.000000000001
 !MCSCF expec                      <3.1|L**2|3.1>    12.000000000001
 !MCSCF expec                      <4.1|L**2|4.1>    12.000000000001
 !MCSCF expec                      <5.1|L**2|5.1>    12.000000000001
 !MCSCF expec                      <6.1|L**2|6.1>    12.000000000001
 !MCSCF expec                      <7.1|L**2|7.1>    12.000000000001
 
 EXTRA SYMMETRY OF MOS IN SYMMETRY 1:   1 1 1 4 5 6 2 3 1 1   3 4 5 6 2 1 4 3 6 5   2 1 6 4 5 3 2111013   7 8141512 9 1 6 3 5
                                        2 411 71013 8121514   9 6 2 3 5 4 1
 EXTRA SYMMETRY OF MOS IN SYMMETRY 2:   2 3 1 3 1 2 2 1 3 2   1 3 2 1 310 5 8 9 7   6 4 2 1 3 810 5 7 9   6 4 2 3 1 5 6 7 9 8
                                       10 4 2 3 1
 
  NATURAL ORBITALS (STATE AVERAGED)
  =================================

  Orbital  Occupation    Energy    Cen Mu Typ  Coefficients
    1.1     2.00000  -285.56626     1  1  s    0.97812
    2.1     2.00000   -35.23764     1  2  s    0.99666
    3.1     2.00000    -4.40321     1  3  s    0.99089
    4.1     1.60000    -0.24529     1  1  d1+  0.99764
    5.1     1.60000    -0.24529     1  1  d2+  0.99764
    6.1     1.60000    -0.24529     1  1  d1-  0.99764
    7.1     1.60000    -0.24529     1  1  d0   0.99764
    8.1     1.60000    -0.24529     1  1  d2-  0.99764
    9.1     1.00000    -0.09695     1  4  s    0.96202
    1.2     2.00000   -30.01076     1  1  py   1.00003
    2.2     2.00000   -30.01076     1  1  pz   1.00003
    3.2     2.00000   -30.01076     1  1  px   1.00003
    4.2     2.00000    -2.82396     1  2  pz   1.00146
    5.2     2.00000    -2.82396     1  2  px   1.00146
    6.2     2.00000    -2.82396     1  2  py   1.00146
 
 Natural orbital dump (state averaged) at molpro section 2140.2 (Orbital set 2)
 
 Transform the CI vectors
 
 CI Coefficients of symmetry 1
 =============================
 
 22a2a2a 222      0.00000759     -0.00000688      0.00000230     -0.00001236      0.00002991     -0.00020328      0.99999998
 2222aaa 222      0.00000132     -0.00008342      0.94169199     -0.33647614     -0.00002343      0.00000006     -0.00000632
 2a222aa 222      0.88158099     -0.00001525      0.00000329      0.00001271      0.00001750      0.15104653      0.00002402
 2a2a22a 222     -0.00001112      0.00000056      0.30095338      0.84227486      0.00020125     -0.00001254      0.00000971
 22aa22a 222     -0.36664533      0.00001122      0.00000273      0.00000633      0.00000729      0.81582547      0.00016862
 222a2aa 222      0.00000669      0.77799862      0.00003728     -0.00011927      0.44126879     -0.00001163     -0.00000785
 2aa222a 222     -0.00002228     -0.62175631     -0.00008320     -0.00012349      0.64297677     -0.00000720     -0.00002351
 2a22a2a 222     -0.00000900      0.09020656     -0.00002651     -0.00014016      0.62598935     -0.00001087     -0.00001810
 222aa2a 222      0.29729809     -0.00000232      0.00000347      0.00001099      0.00001431      0.55822371      0.00011122
 22a22aa 222      0.00000556     -0.00000028     -0.15047676     -0.42113753     -0.00010063      0.00000627     -0.00000485
 
 Energy:      -1391.80758453  -1391.80758453  -1391.80758452  -1391.80758452  -1391.80758452  -1391.80758452  -1391.80758451
 


 **********************************************************************************************************************************
 DATASETS  * FILE   NREC   LENGTH (MB)   RECORD NAMES
              1      24       36.48       500      610      700      900      950      970     1000      129      960     1700   
                                          VAR    BASINP    GEOM    SYMINP    ZMAT    AOBASIS   BASIS     P2S    ABASIS    OPER   
                                         1101     1401     1411     1412     1650     1100     1400     1410     1200     1210   
                                          SR      EKINR    POTR     PVPR    MOLCAS      S      EKIN      POT      H0       H01  
                                         1080     1600     1380     1700(1)
                                         AOSYM     SMH     JKOP     OPER   

              2       5        0.83       700     1000      520     2100     2140   
                                         GEOM     BASIS   MCVARS     RHF     MCSCF   

 PROGRAMS   *        TOTAL     MULTI   RHF-SCF       INT
 CPU TIMES  *         2.68      1.07      0.61      0.85
 REAL TIME  *         4.12 SEC
 DISK USED  *        37.40 MB (local),      173.21 MB (total)
 SF USED    *        22.51 MB
 GA USED    *         0.00 MB       (max)       0.00 MB       (current)
 **********************************************************************************************************************************

 4F energies and LL values

          ENERGY     LL
    -1391.807585   12.0
    -1391.807585   12.0
    -1391.807585   12.0
    -1391.807585   12.0
    -1391.807585   12.0
    -1391.807585   12.0
    -1391.807585   12.0
                                                  

 PROGRAM * MULTI (Direct Multiconfiguration SCF)       Authors: P.J. Knowles, H.-J. Werner (1984)
                                                                D.A. Kreplin, P.J. Knowles, H.-J. Werner (2019)

 Number of closed-shell orbitals:   5 (    2    3)
 Number of active  orbitals:       10 (    7    3)
 Number of external orbitals:      87 (   48   39)

 State symmetry 1

 Number of active electrons:  17    Spin symmetry=Quartet   Space symmetry=1
 Number of states:            17
 Number of CSFs:              56   (56 determinants, 120 intermediate states)

 State symmetry 2

 Number of active electrons:  17    Spin symmetry=Doublet   Space symmetry=1
 Number of states:             7
 Number of CSFs:             175   (231 determinants, 450 intermediate states)

 Molecular orbitals read from record     2140.2  Type=MCSCF/NATURAL (state averaged)

 EXTRA SYMMETRY OF MOS IN SYMMETRY 1:   1 1 1 4 5 6 2 3 1 1   3 4 5 6 2 1 4 3 6 5   2 1 6 4 5 3 2111013   7 8141512 9 1 6 3 5
                                        2 411 71013 8121514   9 6 2 3 5 4 1
 EXTRA SYMMETRY OF MOS IN SYMMETRY 2:   2 3 1 3 1 2 2 1 3 2   1 3 2 1 310 5 8 9 7   6 4 2 1 3 810 5 7 9   6 4 2 3 1 5 6 7 9 8
                                       10 4 2 3 1

 Wavefunction dump at record             2141.2

 Convergence thresholds  0.10E-04 (gradient)  0.10E-05 (energy)

 Weight factors for state symmetry  1:    0.13944   0.13944   0.13944   0.13944   0.13944   0.13944   0.13944   0.00141
                                          0.00141   0.00141   0.00141   0.00141   0.00141   0.00141   0.00141   0.00141
                                          0.00141
 Weight factors for state symmetry  2:    0.00141   0.00141   0.00141   0.00141   0.00141   0.00141   0.00141
 
 Number of orbital rotations:  689  ( 23 closed/active, 213 closed/virtual, 0 active/active, 453 active/virtual )
 Total number of variables:    3258
 
 Second-order MCSCF: L-BFGS accelerated
 
 ITER  MIC  NCI  NEG     ENERGY(VAR)    ENERGY(PROJ) ENERGY CHANGE       GRAD(0)  GRAD(ORB)   GRAD(CI)      STEP      TIME
   1   19   30    0  -1391.80649187   -1391.80652019   -0.00002832    0.00935980 0.00014136 0.00000000  0.56E-01      0.81
   2    8   14    0  -1391.80643025   -1391.80650702   -0.00007677    0.03414231 0.00000027 0.00000000  0.57E-02      1.34
   3   24   48    0  -1391.80650711   -1391.80650711   -0.00000000    0.00003946 0.00000025 0.00000000  0.15E-04      2.53
   4   24   48    0  -1391.80650711   -1391.80650711    0.00000000    0.00000017 0.00000022 0.00000000  0.10E-06      3.71

 CONVERGENCE REACHED!  Final gradient:    0.00000019 ( 0.19E-06)
                       Final energy:  -1391.80650711
 
 Results for state 1.1 Quartet
 =============================
 !MCSCF STATE 1.1 Quartet Energy             -1391.807571831659
 Nuclear energy                                  0.00000000
 Kinetic energy                               1454.69495420
 One electron energy                         -1932.68601377
 Two electron energy                           540.87844194
 Virial ratio                                    1.95676937
 
 !MCSCF STATE 1.1 Quartet Dipole moment          0.00000000     0.00000000     0.00000000
 Dipole moment /Debye                            0.00000000     0.00000000     0.00000000
 
 Results for state 2.1 Quartet
 =============================
 !MCSCF STATE 2.1 Quartet Energy             -1391.807571830951
 Nuclear energy                                  0.00000000
 Kinetic energy                               1454.69495434
 One electron energy                         -1932.68601405
 Two electron energy                           540.87844222
 Virial ratio                                    1.95676937
 
 !MCSCF STATE 2.1 Quartet Dipole moment          0.00000000     0.00000000     0.00000000
 Dipole moment /Debye                            0.00000000     0.00000000     0.00000000
 
 Results for state 3.1 Quartet
 =============================
 !MCSCF STATE 3.1 Quartet Energy             -1391.807571829496
 Nuclear energy                                  0.00000000
 Kinetic energy                               1454.69495438
 One electron energy                         -1932.68601412
 Two electron energy                           540.87844229
 Virial ratio                                    1.95676937
 
 !MCSCF STATE 3.1 Quartet Dipole moment          0.00000000     0.00000000     0.00000000
 Dipole moment /Debye                            0.00000000     0.00000000     0.00000000
 
 Results for state 4.1 Quartet
 =============================
 !MCSCF STATE 4.1 Quartet Energy             -1391.807571829348
 Nuclear energy                                  0.00000000
 Kinetic energy                               1454.69495452
 One electron energy                         -1932.68601436
 Two electron energy                           540.87844253
 Virial ratio                                    1.95676937
 
 !MCSCF STATE 4.1 Quartet Dipole moment          0.00000000     0.00000000     0.00000000
 Dipole moment /Debye                            0.00000000     0.00000000     0.00000000
 
 Results for state 5.1 Quartet
 =============================
 !MCSCF STATE 5.1 Quartet Energy             -1391.807571828696
 Nuclear energy                                  0.00000000
 Kinetic energy                               1454.69495459
 One electron energy                         -1932.68601449
 Two electron energy                           540.87844266
 Virial ratio                                    1.95676937
 
 !MCSCF STATE 5.1 Quartet Dipole moment          0.00000000     0.00000000     0.00000000
 Dipole moment /Debye                            0.00000000     0.00000000     0.00000000
 
 Results for state 6.1 Quartet
 =============================
 !MCSCF STATE 6.1 Quartet Energy             -1391.807571828023
 Nuclear energy                                  0.00000000
 Kinetic energy                               1454.69495466
 One electron energy                         -1932.68601462
 Two electron energy                           540.87844280
 Virial ratio                                    1.95676937
 
 !MCSCF STATE 6.1 Quartet Dipole moment          0.00000000     0.00000000     0.00000000
 Dipole moment /Debye                            0.00000000     0.00000000     0.00000000
 
 Results for state 7.1 Quartet
 =============================
 !MCSCF STATE 7.1 Quartet Energy             -1391.807571826852
 Nuclear energy                                  0.00000000
 Kinetic energy                               1454.69495495
 One electron energy                         -1932.68601515
 Two electron energy                           540.87844332
 Virial ratio                                    1.95676937
 
 !MCSCF STATE 7.1 Quartet Dipole moment          0.00000000     0.00000000     0.00000000
 Dipole moment /Debye                            0.00000000     0.00000000     0.00000000
 
 Results for state 8.1 Quartet
 =============================
 !MCSCF STATE 8.1 Quartet Energy             -1391.751522200614
 Nuclear energy                                  0.00000000
 Kinetic energy                               1448.03073683
 One electron energy                         -1916.30099590
 Two electron energy                           524.54947370
 Virial ratio                                    1.96113396
 
 !MCSCF STATE 8.1 Quartet Dipole moment          0.00000000     0.00000000     0.00000000
 Dipole moment /Debye                            0.00000000     0.00000000     0.00000000
 
 Results for state 9.1 Quartet
 =============================
 !MCSCF STATE 9.1 Quartet Energy             -1391.751522195171
 Nuclear energy                                  0.00000000
 Kinetic energy                               1448.03073667
 One electron energy                         -1916.30099561
 Two electron energy                           524.54947342
 Virial ratio                                    1.96113396
 
 !MCSCF STATE 9.1 Quartet Dipole moment          0.00000000     0.00000000     0.00000000
 Dipole moment /Debye                            0.00000000     0.00000000     0.00000000
 
 Results for state 10.1 Quartet
 ==============================
 !MCSCF STATE 10.1 Quartet Energy            -1391.751522194186
 Nuclear energy                                  0.00000000
 Kinetic energy                               1448.03073663
 One electron energy                         -1916.30099553
 Two electron energy                           524.54947334
 Virial ratio                                    1.96113396
 
 !MCSCF STATE 10.1 Quartet Dipole moment         0.00000000     0.00000000     0.00000000
 Dipole moment /Debye                            0.00000000     0.00000000     0.00000000
 
 Results for state 11.1 Quartet
 ==============================
 !MCSCF STATE 11.1 Quartet Energy            -1391.751522189246
 Nuclear energy                                  0.00000000
 Kinetic energy                               1448.03073649
 One electron energy                         -1916.30099528
 Two electron energy                           524.54947309
 Virial ratio                                    1.96113396
 
 !MCSCF STATE 11.1 Quartet Dipole moment         0.00000000     0.00000000     0.00000000
 Dipole moment /Debye                            0.00000000     0.00000000     0.00000000
 
 Results for state 12.1 Quartet
 ==============================
 !MCSCF STATE 12.1 Quartet Energy            -1391.751522186288
 Nuclear energy                                  0.00000000
 Kinetic energy                               1448.03073640
 One electron energy                         -1916.30099513
 Two electron energy                           524.54947294
 Virial ratio                                    1.96113396
 
 !MCSCF STATE 12.1 Quartet Dipole moment         0.00000000     0.00000000     0.00000000
 Dipole moment /Debye                            0.00000000     0.00000000     0.00000000
 
 Results for state 13.1 Quartet
 ==============================
 !MCSCF STATE 13.1 Quartet Energy            -1391.751522183651
 Nuclear energy                                  0.00000000
 Kinetic energy                               1448.03073632
 One electron energy                         -1916.30099498
 Two electron energy                           524.54947280
 Virial ratio                                    1.96113396
 
 !MCSCF STATE 13.1 Quartet Dipole moment         0.00000000     0.00000000     0.00000000
 Dipole moment /Debye                            0.00000000     0.00000000     0.00000000
 
 Results for state 14.1 Quartet
 ==============================
 !MCSCF STATE 14.1 Quartet Energy            -1391.751522174176
 Nuclear energy                                  0.00000000
 Kinetic energy                               1448.03073604
 One electron energy                         -1916.30099448
 Two electron energy                           524.54947230
 Virial ratio                                    1.96113396
 
 !MCSCF STATE 14.1 Quartet Dipole moment         0.00000000     0.00000000     0.00000000
 Dipole moment /Debye                            0.00000000     0.00000000     0.00000000
 
 Results for state 15.1 Quartet
 ==============================
 !MCSCF STATE 15.1 Quartet Energy            -1391.738846700157
 Nuclear energy                                  0.00000000
 Kinetic energy                               1454.68659101
 One electron energy                         -1932.66710483
 Two electron energy                           540.92825813
 Virial ratio                                    1.95672762
 
 !MCSCF STATE 15.1 Quartet Dipole moment         0.00000000     0.00000000     0.00000000
 Dipole moment /Debye                            0.00000000     0.00000000     0.00000000
 
 Results for state 16.1 Quartet
 ==============================
 !MCSCF STATE 16.1 Quartet Energy            -1391.738846697617
 Nuclear energy                                  0.00000000
 Kinetic energy                               1454.68659118
 One electron energy                         -1932.66710513
 Two electron energy                           540.92825844
 Virial ratio                                    1.95672762
 
 !MCSCF STATE 16.1 Quartet Dipole moment         0.00000000     0.00000000     0.00000000
 Dipole moment /Debye                            0.00000000     0.00000000     0.00000000
 
 Results for state 17.1 Quartet
 ==============================
 !MCSCF STATE 17.1 Quartet Energy            -1391.738846696177
 Nuclear energy                                  0.00000000
 Kinetic energy                               1454.68659129
 One electron energy                         -1932.66710534
 Two electron energy                           540.92825865
 Virial ratio                                    1.95672762
 
 !MCSCF STATE 17.1 Quartet Dipole moment         0.00000000     0.00000000     0.00000000
 Dipole moment /Debye                            0.00000000     0.00000000     0.00000000
 
 Results for state 1.1 Doublet
 =============================
 !MCSCF STATE 1.1 Doublet Energy             -1391.785081726640
 Nuclear energy                                  0.00000000
 Kinetic energy                               1454.69097790
 One electron energy                         -1932.67256774
 Two electron energy                           540.88748602
 Virial ratio                                    1.95675652
 
 !MCSCF STATE 1.1 Doublet Dipole moment          0.00000000     0.00000000     0.00000000
 Dipole moment /Debye                            0.00000000     0.00000000     0.00000000
 
 Results for state 2.1 Doublet
 =============================
 !MCSCF STATE 2.1 Doublet Energy             -1391.785081725327
 Nuclear energy                                  0.00000000
 Kinetic energy                               1454.69097806
 One electron energy                         -1932.67256802
 Two electron energy                           540.88748630
 Virial ratio                                    1.95675652
 
 !MCSCF STATE 2.1 Doublet Dipole moment          0.00000000     0.00000000     0.00000000
 Dipole moment /Debye                            0.00000000     0.00000000     0.00000000
 
 Results for state 3.1 Doublet
 =============================
 !MCSCF STATE 3.1 Doublet Energy             -1391.785081723729
 Nuclear energy                                  0.00000000
 Kinetic energy                               1454.69097810
 One electron energy                         -1932.67256810
 Two electron energy                           540.88748637
 Virial ratio                                    1.95675652
 
 !MCSCF STATE 3.1 Doublet Dipole moment          0.00000000     0.00000000     0.00000000
 Dipole moment /Debye                            0.00000000     0.00000000     0.00000000
 
 Results for state 4.1 Doublet
 =============================
 !MCSCF STATE 4.1 Doublet Energy             -1391.785081723058
 Nuclear energy                                  0.00000000
 Kinetic energy                               1454.69097823
 One electron energy                         -1932.67256835
 Two electron energy                           540.88748662
 Virial ratio                                    1.95675652
 
 !MCSCF STATE 4.1 Doublet Dipole moment          0.00000000     0.00000000     0.00000000
 Dipole moment /Debye                            0.00000000     0.00000000     0.00000000
 
 Results for state 5.1 Doublet
 =============================
 !MCSCF STATE 5.1 Doublet Energy             -1391.785081722096
 Nuclear energy                                  0.00000000
 Kinetic energy                               1454.69097831
 One electron energy                         -1932.67256849
 Two electron energy                           540.88748677
 Virial ratio                                    1.95675652
 
 !MCSCF STATE 5.1 Doublet Dipole moment          0.00000000     0.00000000     0.00000000
 Dipole moment /Debye                            0.00000000     0.00000000     0.00000000
 
 Results for state 6.1 Doublet
 =============================
 !MCSCF STATE 6.1 Doublet Energy             -1391.785081721127
 Nuclear energy                                  0.00000000
 Kinetic energy                               1454.69097839
 One electron energy                         -1932.67256863
 Two electron energy                           540.88748691
 Virial ratio                                    1.95675652
 
 !MCSCF STATE 6.1 Doublet Dipole moment          0.00000000     0.00000000     0.00000000
 Dipole moment /Debye                            0.00000000     0.00000000     0.00000000
 
 Results for state 7.1 Doublet
 =============================
 !MCSCF STATE 7.1 Doublet Energy             -1391.785081718834
 Nuclear energy                                  0.00000000
 Kinetic energy                               1454.69097867
 One electron energy                         -1932.67256915
 Two electron energy                           540.88748743
 Virial ratio                                    1.95675652
 
 !MCSCF STATE 7.1 Doublet Dipole moment          0.00000000     0.00000000     0.00000000
 Dipole moment /Debye                            0.00000000     0.00000000     0.00000000
 
 State-averaged charge density matrix saved on record 2141.2 (density set 1)
 
 No non-zero expectation values
 
 Expectation values for two-electron operators:
 
 ? Warning
 ? Transition properties are only calculated between states of the same symmetry
 ? The problem occurs in mu_properties_expec2

 !MCSCF expec      <1.1 Quartet|LXLX|1.1 Quartet>     1.417265950301
 !MCSCF expec      <2.1 Quartet|LXLX|2.1 Quartet>     2.235761671132
 !MCSCF expec      <3.1 Quartet|LXLX|3.1 Quartet>     5.233676080008
 !MCSCF expec      <4.1 Quartet|LXLX|4.1 Quartet>     3.999999795438
 !MCSCF expec      <5.1 Quartet|LXLX|5.1 Quartet>     1.764201057110
 !MCSCF expec      <6.1 Quartet|LXLX|6.1 Quartet>     8.582786304402
 !MCSCF expec      <7.1 Quartet|LXLX|7.1 Quartet>     4.766207621537
 !MCSCF expec      <8.1 Quartet|LXLX|8.1 Quartet>     2.458953063897
 !MCSCF expec      <9.1 Quartet|LXLX|9.1 Quartet>     3.117428574009
 !MCSCF expec    <10.1 Quartet|LXLX|10.1 Quartet>     6.040475825176
 !MCSCF expec    <11.1 Quartet|LXLX|11.1 Quartet>     3.999999985209
 !MCSCF expec    <12.1 Quartet|LXLX|12.1 Quartet>     0.882568212913
 !MCSCF expec    <13.1 Quartet|LXLX|13.1 Quartet>     7.541059492914
 !MCSCF expec    <14.1 Quartet|LXLX|14.1 Quartet>     3.959537373523
 !MCSCF expec    <15.1 Quartet|LXLX|15.1 Quartet>     0.999999995121
 !MCSCF expec    <16.1 Quartet|LXLX|16.1 Quartet>     0.999999982809
 !MCSCF expec    <17.1 Quartet|LXLX|17.1 Quartet>     0.000000024076
 !MCSCF expec      <1.1 Doublet|LXLX|1.1 Doublet>     1.698275894190
 !MCSCF expec      <2.1 Doublet|LXLX|2.1 Doublet>     2.510283477605
 !MCSCF expec      <3.1 Doublet|LXLX|3.1 Doublet>     5.596720046787
 !MCSCF expec      <4.1 Doublet|LXLX|4.1 Doublet>     3.999999798519
 !MCSCF expec      <5.1 Doublet|LXLX|5.1 Doublet>     1.489666093473
 !MCSCF expec      <6.1 Doublet|LXLX|6.1 Doublet>     8.301687061643
 !MCSCF expec      <7.1 Doublet|LXLX|7.1 Doublet>     4.403315185202
 
 !MCSCF expec      <1.1 Quartet|LYLY|1.1 Quartet>     3.308984226012
 !MCSCF expec      <2.1 Quartet|LYLY|2.1 Quartet>     1.036139395389
 !MCSCF expec      <3.1 Quartet|LYLY|3.1 Quartet>     6.728717727648
 !MCSCF expec      <4.1 Quartet|LYLY|4.1 Quartet>     4.000000350354
 !MCSCF expec      <5.1 Quartet|LYLY|5.1 Quartet>     8.963870334304
 !MCSCF expec      <6.1 Quartet|LYLY|6.1 Quartet>     0.691060600145
 !MCSCF expec      <7.1 Quartet|LYLY|7.1 Quartet>     3.271387272518
 !MCSCF expec      <8.1 Quartet|LYLY|8.1 Quartet>     3.813177416584
 !MCSCF expec      <9.1 Quartet|LYLY|9.1 Quartet>     1.229187469232
 !MCSCF expec    <10.1 Quartet|LYLY|10.1 Quartet>     5.959414641700
 !MCSCF expec    <11.1 Quartet|LYLY|11.1 Quartet>     3.999999992532
 !MCSCF expec    <12.1 Quartet|LYLY|12.1 Quartet>     8.770809933919
 !MCSCF expec    <13.1 Quartet|LYLY|13.1 Quartet>     0.186826013716
 !MCSCF expec    <14.1 Quartet|LYLY|14.1 Quartet>     4.040572071908
 !MCSCF expec    <15.1 Quartet|LYLY|15.1 Quartet>     0.999999995909
 !MCSCF expec    <16.1 Quartet|LYLY|16.1 Quartet>     0.000000021834
 !MCSCF expec    <17.1 Quartet|LYLY|17.1 Quartet>     0.999999980804
 !MCSCF expec      <1.1 Doublet|LYLY|1.1 Doublet>     3.505870797313
 !MCSCF expec      <2.1 Doublet|LYLY|2.1 Doublet>     1.000056570802
 !MCSCF expec      <3.1 Doublet|LYLY|3.1 Doublet>     6.392692293132
 !MCSCF expec      <4.1 Doublet|LYLY|4.1 Doublet>     4.000000100361
 !MCSCF expec      <5.1 Doublet|LYLY|5.1 Doublet>     8.999942674448
 !MCSCF expec      <6.1 Doublet|LYLY|6.1 Doublet>     0.494107716486
 !MCSCF expec      <7.1 Doublet|LYLY|7.1 Doublet>     3.607274190351
 
 !MCSCF expec      <1.1 Quartet|LZLZ|1.1 Quartet>     7.273749823687
 !MCSCF expec      <2.1 Quartet|LZLZ|2.1 Quartet>     8.728098933479
 !MCSCF expec      <3.1 Quartet|LZLZ|3.1 Quartet>     0.037606192344
 !MCSCF expec      <4.1 Quartet|LZLZ|4.1 Quartet>     3.999999854208
 !MCSCF expec      <5.1 Quartet|LZLZ|5.1 Quartet>     1.271928608586
 !MCSCF expec      <6.1 Quartet|LZLZ|6.1 Quartet>     2.726153095453
 !MCSCF expec      <7.1 Quartet|LZLZ|7.1 Quartet>     3.962405105945
 !MCSCF expec      <8.1 Quartet|LZLZ|8.1 Quartet>     5.727869519519
 !MCSCF expec      <9.1 Quartet|LZLZ|9.1 Quartet>     7.653383956758
 !MCSCF expec    <10.1 Quartet|LZLZ|10.1 Quartet>     0.000109533125
 !MCSCF expec    <11.1 Quartet|LZLZ|11.1 Quartet>     4.000000022259
 !MCSCF expec    <12.1 Quartet|LZLZ|12.1 Quartet>     2.346621853168
 !MCSCF expec    <13.1 Quartet|LZLZ|13.1 Quartet>     4.272114493370
 !MCSCF expec    <14.1 Quartet|LZLZ|14.1 Quartet>     3.999890554568
 !MCSCF expec    <15.1 Quartet|LZLZ|15.1 Quartet>     0.000000008970
 !MCSCF expec    <16.1 Quartet|LZLZ|16.1 Quartet>     0.999999995357
 !MCSCF expec    <17.1 Quartet|LZLZ|17.1 Quartet>     0.999999995120
 !MCSCF expec      <1.1 Doublet|LZLZ|1.1 Doublet>     6.795853308497
 !MCSCF expec      <2.1 Doublet|LZLZ|2.1 Doublet>     8.489659951593
 !MCSCF expec      <3.1 Doublet|LZLZ|3.1 Doublet>     0.010587660081
 !MCSCF expec      <4.1 Doublet|LZLZ|4.1 Doublet>     4.000000101120
 !MCSCF expec      <5.1 Doublet|LZLZ|5.1 Doublet>     1.510391232080
 !MCSCF expec      <6.1 Doublet|LZLZ|6.1 Doublet>     3.204205221871
 !MCSCF expec      <7.1 Doublet|LZLZ|7.1 Doublet>     3.989410624446
 
 !MCSCF expec      <1.1 Quartet|L**2|1.1 Quartet>    12.000000000000
 !MCSCF expec      <2.1 Quartet|L**2|2.1 Quartet>    12.000000000000
 !MCSCF expec      <3.1 Quartet|L**2|3.1 Quartet>    12.000000000000
 !MCSCF expec      <4.1 Quartet|L**2|4.1 Quartet>    12.000000000000
 !MCSCF expec      <5.1 Quartet|L**2|5.1 Quartet>    12.000000000000
 !MCSCF expec      <6.1 Quartet|L**2|6.1 Quartet>    12.000000000000
 !MCSCF expec      <7.1 Quartet|L**2|7.1 Quartet>    12.000000000000
 !MCSCF expec      <8.1 Quartet|L**2|8.1 Quartet>    12.000000000000
 !MCSCF expec      <9.1 Quartet|L**2|9.1 Quartet>    12.000000000000
 !MCSCF expec    <10.1 Quartet|L**2|10.1 Quartet>    12.000000000000
 !MCSCF expec    <11.1 Quartet|L**2|11.1 Quartet>    12.000000000000
 !MCSCF expec    <12.1 Quartet|L**2|12.1 Quartet>    12.000000000000
 !MCSCF expec    <13.1 Quartet|L**2|13.1 Quartet>    12.000000000000
 !MCSCF expec    <14.1 Quartet|L**2|14.1 Quartet>    12.000000000000
 !MCSCF expec    <15.1 Quartet|L**2|15.1 Quartet>     2.000000000000
 !MCSCF expec    <16.1 Quartet|L**2|16.1 Quartet>     2.000000000000
 !MCSCF expec    <17.1 Quartet|L**2|17.1 Quartet>     2.000000000000
 !MCSCF expec      <1.1 Doublet|L**2|1.1 Doublet>    12.000000000000
 !MCSCF expec      <2.1 Doublet|L**2|2.1 Doublet>    12.000000000000
 !MCSCF expec      <3.1 Doublet|L**2|3.1 Doublet>    12.000000000000
 !MCSCF expec      <4.1 Doublet|L**2|4.1 Doublet>    12.000000000000
 !MCSCF expec      <5.1 Doublet|L**2|5.1 Doublet>    12.000000000000
 !MCSCF expec      <6.1 Doublet|L**2|6.1 Doublet>    12.000000000000
 !MCSCF expec      <7.1 Doublet|L**2|7.1 Doublet>    12.000000000000
 
 EXTRA SYMMETRY OF MOS IN SYMMETRY 1:   1 1 1 6 5 3 2 4 1 1   6 5 3 2 4 1 6 5 3 2   4 1 6 5 4 2 3 9 7 8  121415101311 1 4 2 5
                                        3 6 9 7 81215141013  11 4 2 3 5 6 1
 EXTRA SYMMETRY OF MOS IN SYMMETRY 2:   1 3 2 2 3 1 1 3 2 1   3 2 1 3 210 5 8 6 4   9 7 1 3 2 410 6 8 5   7 9 1 3 2 4 6 810 7
                                        9 5 1 3 2
 
  NATURAL ORBITALS (STATE AVERAGED)
  =================================

  Orbital  Occupation    Energy    Cen Mu Typ  Coefficients
    1.1     2.00000  -285.56806     1  1  s    0.97812
    2.1     2.00000   -35.23980     1  2  s    0.99666
    3.1     2.00000    -4.40530     1  3  s    0.99083
    4.1     1.59804    -0.24625     1  1  d1-  0.99774
    5.1     1.59803    -0.24625     1  1  d2+  0.99774
    6.1     1.59803    -0.24625     1  1  d2-  0.99774
    7.1     1.59803    -0.24625     1  1  d0   0.99774
    8.1     1.59803    -0.24625     1  1  d1+  0.99774
    9.1     1.00987    -0.09839     1  4  s    0.96487
    1.2     2.00000   -29.93964     1  1  px   0.99907
    2.2     2.00000   -29.93964     1  1  pz   0.99907
    3.2     2.00000   -29.93964     1  1  py   0.99907
    4.2     1.99999    -2.89900     1  2  py   1.00052
    5.2     1.99999    -2.89900     1  2  pz   1.00052
    6.2     1.99999    -2.89900     1  2  px   1.00052
 
 Natural orbital dump (state averaged) at molpro section 2141.2 (Orbital set 2)
 
 Transform the CI vectors
 
 CI Coefficients of symmetry 1 (Quartet)
 =======================================

 State:                1               2               3               4               5               6               7
 22a2a2a 222     -0.00002164      0.00020619     -0.00016554      0.99999993     -0.00026092     -0.00004942      0.00005365
 2a2a2a2 222      0.00000000     -0.00000000     -0.00000000      0.00000000      0.00000000     -0.00000000     -0.00000000
 2aa22a2 222      0.00000000      0.00000000      0.00000000      0.00000000     -0.00000000      0.00000000     -0.00000000
 222aa2a 222      0.00001406      0.00000225      0.09696139     -0.00003731      0.00010046      0.00028096      0.99528810
 22aaa22 222     -0.00000000     -0.00000000      0.00000000      0.00000000     -0.00000000     -0.00000000     -0.00000000
 22aa22a 222     -0.00000947      0.00000119      0.44510641      0.00007601      0.00002771     -0.00003917     -0.04336244
 2a2aa22 222      0.00000000     -0.00000000      0.00000000      0.00000000     -0.00000000      0.00000000     -0.00000000
 2a222aa 222     -0.00001893      0.00000238      0.89021275      0.00015203      0.00005541     -0.00007834     -0.08672489
 22a22aa 222      0.88061589     -0.00008929      0.00000797      0.00001134      0.00000663     -0.15657478      0.00003099
 22a2aa2 222     -0.00000000      0.00000000      0.00000000     -0.00000000     -0.00000000      0.00000000     -0.00000000
 222aaa2 222     -0.00000000      0.00000000      0.00000000     -0.00000000     -0.00000000     -0.00000000      0.00000000
 2a2a22a 222      0.37175683     -0.00005862      0.00005607      0.00004827     -0.00003785      0.81350894     -0.00024036
 2aa222a 222      0.00008436      0.79596309     -0.00003139     -0.00005767      0.40797396      0.00003779     -0.00003994
 2aa2a22 222      0.00000000      0.00000000     -0.00000000     -0.00000000     -0.00000000      0.00000000      0.00000000
 2a22a2a 222     -0.00001274     -0.11659778      0.00004474     -0.00013815     -0.62161475     -0.00003148      0.00005865
 2222aaa 222      0.29378988     -0.00001771     -0.00002777     -0.00002133      0.00002568     -0.56007808      0.00015666
 222a2aa 222     -0.00006229     -0.59400981     -0.00004609      0.00029695      0.66869445      0.00001674     -0.00006165
 22aa2a2 222      0.00000000     -0.00000000     -0.00000000     -0.00000000     -0.00000000      0.00000000      0.00000000
 2aaa222 222      0.00000000     -0.00000000      0.00000000      0.00000000     -0.00000000      0.00000000     -0.00000000
 2a22aa2 222      0.00000000     -0.00000000      0.00000000      0.00000000     -0.00000000      0.00000000      0.00000000
 
 Energy:      -1391.80757183  -1391.80757183  -1391.80757183  -1391.80757183  -1391.80757183  -1391.80757183  -1391.80757183

 State:                8               9              10              11              12              13              14
 22a2a2a 222     -0.00000000     -0.00000000      0.00000000      0.00000000     -0.00000000      0.00000000     -0.00000000
 2a2a2a2 222     -0.00000078      0.00005643     -0.00000884      0.99956167      0.00003858      0.00000239      0.00000205
 2aa22a2 222     -0.00000598     -0.00000365      0.00523026     -0.00000201     -0.00000861      0.00001543      0.99954798
 222aa2a 222     -0.00000000      0.00000000      0.00000000      0.00000000     -0.00000000      0.00000000     -0.00000000
 22aaa22 222     -0.00003361      0.00001287      0.89402290      0.00000792     -0.00000620      0.00000863     -0.00467808
 22aa22a 222     -0.00000000      0.00000000      0.00000003      0.00000000      0.00000000     -0.00000000     -0.00000002
 2a2aa22 222      0.89349243     -0.00001132      0.00003392      0.00000077     -0.00000362     -0.03114787      0.00000565
 2a222aa 222      0.00000000     -0.00000000     -0.00000002     -0.00000000      0.00000000     -0.00000000      0.00000001
 22a22aa 222     -0.00000000      0.00000000     -0.00000000     -0.00000000     -0.00000000     -0.00000000     -0.00000000
 22a2aa2 222     -0.19321426      0.00000011     -0.00001576     -0.00000224      0.00000444      0.87290724     -0.00001455
 222aaa2 222      0.00001028      0.86919055     -0.00001395     -0.00004099     -0.20930043      0.00000323      0.00000144
 2a2a22a 222     -0.00000000      0.00000000      0.00000000      0.00000000     -0.00000000      0.00000000     -0.00000000
 2aa222a 222      0.00000000      0.00000001      0.00000000     -0.00000000      0.00000001      0.00000000     -0.00000000
 2aa2a22 222      0.00000845      0.41995184     -0.00000052     -0.00005417      0.78926503     -0.00000219      0.00000833
 2a22a2a 222      0.00000000      0.00000002      0.00000000     -0.00000000      0.00000002      0.00000000     -0.00000000
 2222aaa 222      0.00000000     -0.00000000      0.00000000      0.00000000      0.00000000      0.00000001     -0.00000000
 222a2aa 222      0.00000000      0.00000002      0.00000000     -0.00000000      0.00000001      0.00000000      0.00000000
 22aa2a2 222     -0.00000106     -0.25936800      0.00000775     -0.00000761      0.57652195     -0.00000313      0.00000398
 2aaa222 222      0.40430566     -0.00000647      0.00001048     -0.00000085      0.00000047      0.48599002     -0.00000514
 2a22aa2 222      0.00001680     -0.00000643     -0.44701144     -0.00000396      0.00000310     -0.00000431      0.00233904
 
 Energy:      -1391.75152220  -1391.75152220  -1391.75152219  -1391.75152219  -1391.75152219  -1391.75152218  -1391.75152217

 State:               15              16              17
 22a2a2a 222     -0.00000000      0.00000000     -0.00000000
 2a2a2a2 222     -0.00000000     -0.00000000      0.00000000
 2aa22a2 222      0.00000002     -0.00000000      0.00000000
 222aa2a 222     -0.00000001     -0.00000000      0.00000000
 22aaa22 222      0.00015560     -0.00000001      0.00000001
 22aa22a 222      0.89375303     -0.00005715      0.00006244
 2a2aa22 222     -0.00000001     -0.00015563      0.00000002
 2a222aa 222     -0.44687655      0.00002858     -0.00003122
 22a22aa 222     -0.00002858     -0.44687649      0.00005859
 22a2aa2 222     -0.00000001     -0.00015564      0.00000002
 222aaa2 222     -0.00000001      0.00000002      0.00015561
 2a2a22a 222      0.00002858      0.44687652     -0.00005859
 2aa222a 222     -0.00003121      0.00005859      0.44687650
 2aa2a22 222      0.00000001     -0.00000002     -0.00015566
 2a22a2a 222     -0.00005406      0.00010148      0.77401286
 2222aaa 222      0.00004950      0.77401285     -0.00010148
 222a2aa 222     -0.00003121      0.00005859      0.44687650
 22aa2a2 222     -0.00000002      0.00000004      0.00026955
 2aaa222 222      0.00000002      0.00026956     -0.00000004
 2a22aa2 222      0.00031128     -0.00000002      0.00000002
 
 Energy:      -1391.73884670  -1391.73884670  -1391.73884670
 
 
 CI Coefficients of symmetry 1 (Doublet)
 =======================================
 
 22a2a2b 222      0.00000678      0.00012195      0.00008350      0.81612594     -0.00014545     -0.00001199      0.00000247
 222aa2b 222      0.00001991     -0.00000167      0.04198798     -0.00000676     -0.00001695      0.00008857      0.81504515
 2a222ab 222     -0.00006617     -0.00002042      0.72899853     -0.00007447     -0.00001410      0.00001119     -0.03755520
 22a22ab 222      0.72583238      0.00007088      0.00006642     -0.00000719     -0.00001370     -0.07756706     -0.00001273
 2a2a22b 222      0.25656205      0.00002089      0.00000863      0.00000789     -0.00004960      0.68339241     -0.00008097
 2aa222b 222     -0.00005779      0.67128020      0.00002465     -0.00004921      0.28676155      0.00002199      0.00000607
 222a2ab 222      0.00005803     -0.44547569     -0.00000070      0.00016962      0.57827387      0.00003380      0.00001115
 2a22a2b 222     -0.00000014     -0.13036828     -0.00001383     -0.00006952     -0.49942839     -0.00003221     -0.00000994
 2222aab 222      0.27093331      0.00002886      0.00003336     -0.00000871      0.00002073     -0.43934014      0.00003940
 22b2a2a 222     -0.00000339     -0.00006098     -0.00004175     -0.40806299      0.00007272      0.00000599     -0.00000123
 22a2b2a 222     -0.00000339     -0.00006098     -0.00004175     -0.40806295      0.00007272      0.00000599     -0.00000123
 222ba2a 222     -0.00000996      0.00000084     -0.02099399      0.00000338      0.00000848     -0.00004428     -0.40752258
 222ab2a 222     -0.00000996      0.00000084     -0.02099399      0.00000338      0.00000848     -0.00004428     -0.40752257
 22aa22b 222     -0.00003308     -0.00001021      0.36449929     -0.00003724     -0.00000705      0.00000559     -0.01877759
 2a222ba 222      0.00003308      0.00001021     -0.36449927      0.00003724      0.00000705     -0.00000559      0.01877760
 2b222aa 222      0.00003308      0.00001021     -0.36449926      0.00003724      0.00000705     -0.00000559      0.01877760
 22b22aa 222     -0.36291619     -0.00003544     -0.00003321      0.00000359      0.00000685      0.03878353      0.00000636
 22a22ba 222     -0.36291619     -0.00003544     -0.00003321      0.00000359      0.00000685      0.03878353      0.00000636
 2b2a22a 222     -0.12828103     -0.00001044     -0.00000431     -0.00000395      0.00002480     -0.34169621      0.00004049
 2a2b22a 222     -0.12828102     -0.00001044     -0.00000431     -0.00000395      0.00002480     -0.34169620      0.00004049
 2ab222a 222      0.00002889     -0.33564011     -0.00001232      0.00002460     -0.14338078     -0.00001100     -0.00000303
 2ba222a 222      0.00002889     -0.33564009     -0.00001232      0.00002460     -0.14338078     -0.00001100     -0.00000303
 222a2ba 222     -0.00002902      0.22273785      0.00000035     -0.00008481     -0.28913694     -0.00001690     -0.00000557
 222b2aa 222     -0.00002902      0.22273784      0.00000035     -0.00008481     -0.28913693     -0.00001690     -0.00000557
 2b22a2a 222      0.00000007      0.06518414      0.00000691      0.00003476      0.24971420      0.00001611      0.00000497
 2a22b2a 222      0.00000007      0.06518414      0.00000691      0.00003476      0.24971419      0.00001611      0.00000497
 2222aba 222     -0.13546666     -0.00001443     -0.00001668      0.00000435     -0.00001036      0.21967008     -0.00001970
 2222baa 222     -0.13546665     -0.00001443     -0.00001668      0.00000435     -0.00001036      0.21967006     -0.00001970
 22ba22a 222      0.00001654      0.00000510     -0.18224965      0.00001862      0.00000352     -0.00000280      0.00938880
 22ab22a 222      0.00001654      0.00000510     -0.18224964      0.00001862      0.00000352     -0.00000280      0.00938880
 
 Energy:      -1391.78508173  -1391.78508173  -1391.78508172  -1391.78508172  -1391.78508172  -1391.78508172  -1391.78508172
 


 **********************************************************************************************************************************
 DATASETS  * FILE   NREC   LENGTH (MB)   RECORD NAMES
              1      24       36.58       500      610      700      900      950      970     1000      129      960     1700   
                                          VAR    BASINP    GEOM    SYMINP    ZMAT    AOBASIS   BASIS     P2S    ABASIS    OPER   
                                         1101     1401     1411     1412     1650     1100     1400     1410     1200     1210   
                                          SR      EKINR    POTR     PVPR    MOLCAS      S      EKIN      POT      H0       H01  
                                         1080     1600     1700(1)  1380   
                                         AOSYM     SMH     OPER     JKOP   

              2       6        1.31       700     1000      520     2100     2140     2141   
                                         GEOM     BASIS   MCVARS     RHF     MCSCF    MCSCF   

 PROGRAMS   *        TOTAL     MULTI     MULTI   RHF-SCF       INT
 CPU TIMES  *         6.48      3.80      1.07      0.61      0.85
 REAL TIME  *         8.31 SEC
 DISK USED  *        37.97 MB (local),      175.51 MB (total)
 SF USED    *        22.53 MB
 GA USED    *         0.00 MB       (max)       0.00 MB       (current)
 **********************************************************************************************************************************

 CASSCF energies and LL values

          ENERGY     LL
    -1391.807572   12.0
    -1391.807572   12.0
    -1391.807572   12.0
    -1391.807572   12.0
    -1391.807572   12.0
    -1391.807572   12.0
    -1391.807572   12.0
    -1391.751522   12.0
    -1391.751522   12.0
    -1391.751522   12.0
    -1391.751522   12.0
    -1391.751522   12.0
    -1391.751522   12.0
    -1391.751522   12.0
    -1391.738847    2.0
    -1391.738847    2.0
    -1391.738847    2.0
    -1391.785082   12.0
    -1391.785082   12.0
    -1391.785082   12.0
    -1391.785082   12.0
    -1391.785082   12.0
    -1391.785082   12.0
    -1391.785082   12.0
                                                  


 PROGRAM * CI (Multireference internally contracted CI)     Authors: H.-J. Werner, P.J. Knowles, 1987


 Convergence thresholds:  THRVAR = 1.00D-08  THRDEN = 1.00D-06

 Number of optimized states: 17  Roots:   1   2   3   4   5   6   7   8   9  10  11  12  13  14  15  16  17
 Number of reference states: 17  Roots:   1   2   3   4   5   6   7   8   9  10  11  12  13  14  15  16  17

 Reference symmetry:                   1   Quartet 
 Number of electrons:                 27
 Maximum number of shells:             3
 Maximum number of spin couplings:    14

 Reference space:       56 conf       56 CSFs
 N elec internal:      120 conf      120 CSFs
 N-1 el internal:      570 conf     1200 CSFs
 N-2 el internal:     1260 conf     7056 CSFs

 Number of electrons in valence space:                     17
 Maximum number of open shell orbitals in reference space:  3
 Maximum number of open shell orbitals in internal spaces:  7


 Number of core orbitals:           5 (   2   3 )
 Number of active  orbitals:       10 (   7   3 )
 Number of external orbitals:      87 (  48  39 )

 Molecular orbitals read from record     2141.2  Type=MCSCF/NATURAL (state averaged)

 Integral transformation finished. Total CPU:   0.02 sec, npass=  1  Memory used:   0.40 MW


 Number of p-space configurations:  20

 Reference wavefunction optimized for reference space (refopt=1)

 State     Reference Energy 
     1     -1391.80757183
     2     -1391.80757183
     3     -1391.80757183
     4     -1391.80757183
     5     -1391.80757183
     6     -1391.80757183
     7     -1391.80757183
     8     -1391.75152220
     9     -1391.75152220
    10     -1391.75152219
    11     -1391.75152219
    12     -1391.75152219
    13     -1391.75152218
    14     -1391.75152217
    15     -1391.73884670
    16     -1391.73884670
    17     -1391.73884670

 Number of blocks in overlap matrix:    62   Smallest eigenvalue:  0.21D-04
 Number of N-2 electron functions:    1575
 Number of N-1 electron functions:    1200

 Number of internal configurations:                   56
 Number of singly external configurations:         52056
 Number of doubly external configurations:       2985228
 Total number of contracted configurations:      3037340
 Total number of uncontracted configurations:   13328522

 Diagonal Coupling coefficients finished.               Storage:    931066 words, CPU-Time:      0.74 seconds.
 Energy denominators for pairs finished in 1 passes.    Storage:    564595 words, CPU-time:      0.05 seconds.

  ITER. STATE  ROOT     SQ.NORM     CORR.ENERGY   TOTAL ENERGY   ENERGY CHANGE       DEN1      VAR(S)    VAR(P)      TIME
    1     1     1     1.00000000     0.00000000 -1391.80757183     0.00000000    -0.80260799  0.15D-01  0.86D-01     3.50
    1     2     2     1.00000000     0.00000000 -1391.80757183    -0.00000000    -0.80280398  0.15D-01  0.86D-01     3.50
    1     3     3     1.00000000     0.00000000 -1391.80757183    -0.00000000    -0.80139777  0.15D-01  0.86D-01     3.50
    1     4     4     1.00000000     0.00000000 -1391.80757183    -0.00000000    -0.80474661  0.15D-01  0.87D-01     3.50
    1     5     5     1.00000000     0.00000000 -1391.80757183    -0.00000000    -0.80210811  0.15D-01  0.86D-01     3.50
    1     6     6     1.00000000     0.00000000 -1391.80757183     0.00000000    -0.80246796  0.15D-01  0.86D-01     3.50
    1     7     7     1.00000000     0.00000000 -1391.80757183    -0.00000000    -0.80347707  0.15D-01  0.87D-01     3.50
    1     8     8     1.00000000     0.00000000 -1391.75152220     0.00000000    -0.93284662  0.16D+00  0.64D-01     3.50
    1     9     9     1.00000000     0.00000000 -1391.75152220     0.00000000    -0.93374406  0.16D+00  0.64D-01     3.50
    1    10    10     1.00000000     0.00000000 -1391.75152219     0.00000000    -0.93111883  0.16D+00  0.63D-01     3.50
    1    11    11     1.00000000     0.00000000 -1391.75152219    -0.00000000    -0.93606152  0.17D+00  0.64D-01     3.50
    1    12    12     1.00000000     0.00000000 -1391.75152219     0.00000000    -0.93092206  0.16D+00  0.63D-01     3.50
    1    13    13     1.00000000     0.00000000 -1391.75152218    -0.00000000    -0.93206354  0.16D+00  0.64D-01     3.50
    1    14    14     1.00000000     0.00000000 -1391.75152217     0.00000000    -0.93649455  0.17D+00  0.64D-01     3.50
    1    15    15     1.00000000     0.00000000 -1391.73884670    -0.00000000    -0.81338656  0.22D-01  0.88D-01     3.50
    1    16    16     1.00000000     0.00000000 -1391.73884670    -0.00000000    -0.81295858  0.22D-01  0.88D-01     3.50
    1    17    17     1.00000000     0.00000000 -1391.73884670     0.00000000    -0.81350709  0.22D-01  0.88D-01     3.50
    2     1     1     1.06670572    -0.65152739 -1392.45909922    -0.65152739    -0.02695772  0.15D-02  0.33D-02   347.03
    2     2     2     1.06660615    -0.65121162 -1392.45878345    -0.65121162    -0.02700144  0.15D-02  0.33D-02   347.03
    2     3     3     1.06659174    -0.65108639 -1392.45865822    -0.65108639    -0.02698782  0.14D-02  0.33D-02   347.03
    2     4     4     1.06654866    -0.65102429 -1392.45859612    -0.65102429    -0.02697425  0.14D-02  0.33D-02   347.03
    2     5     5     1.06653724    -0.65084170 -1392.45841353    -0.65084170    -0.02701137  0.14D-02  0.33D-02   347.03
    2     6     6     1.06648181    -0.65074611 -1392.45831794    -0.65074611    -0.02700232  0.14D-02  0.33D-02   347.03
    2     7     7     1.06646581    -0.65065863 -1392.45823046    -0.65065863    -0.02699043  0.14D-02  0.33D-02   347.03
    2     8     8     1.10977497    -0.65194028 -1392.40346248    -0.65194028    -0.07971363  0.12D-01  0.63D-02   347.03
    2     9     9     1.11000351    -0.65131047 -1392.40283267    -0.65131047    -0.08010647  0.12D-01  0.63D-02   347.03
    2    10    10     1.10984828    -0.65130452 -1392.40282672    -0.65130452    -0.07990848  0.12D-01  0.63D-02   347.03
    2    11    11     1.11038741    -0.65123293 -1392.40275512    -0.65123293    -0.08070614  0.12D-01  0.64D-02   347.03
    2    12    12     1.11037592    -0.65069315 -1392.40221534    -0.65069315    -0.08084417  0.12D-01  0.64D-02   347.03
    2    13    13     1.11119126    -0.65014622 -1392.40166840    -0.65014622    -0.08206029  0.13D-01  0.64D-02   347.03
    2    14    14     1.11101347    -0.64962166 -1392.40114383    -0.64962166    -0.08218613  0.13D-01  0.64D-02   347.03
    2    15    15     1.07214799    -0.65986317 -1392.39870987    -0.65986317    -0.02731673  0.14D-02  0.33D-02   347.03
    2    16    16     1.07204874    -0.65983053 -1392.39867723    -0.65983053    -0.02728080  0.13D-02  0.33D-02   347.03
    2    17    17     1.07210448    -0.65967307 -1392.39851976    -0.65967307    -0.02735436  0.14D-02  0.33D-02   347.03
    3     1     1     1.06449107    -0.67735873 -1392.48493056    -0.02583134    -0.00210949  0.13D-03  0.28D-03   680.28
    3     2     2     1.06438855    -0.67720775 -1392.48477958    -0.02599613    -0.00217354  0.13D-03  0.28D-03   680.28
    3     3     3     1.06432747    -0.67713510 -1392.48470693    -0.02604871    -0.00218146  0.13D-03  0.28D-03   680.28
    3     4     4     1.06429701    -0.67710745 -1392.48467928    -0.02608316    -0.00219046  0.12D-03  0.28D-03   680.28
    3     5     5     1.06424992    -0.67700144 -1392.48457327    -0.02615974    -0.00223242  0.13D-03  0.29D-03   680.28
    3     6     6     1.06420844    -0.67696045 -1392.48453228    -0.02621434    -0.00224667  0.13D-03  0.29D-03   680.28
    3     7     7     1.06418333    -0.67690839 -1392.48448022    -0.02624976    -0.00226212  0.13D-03  0.29D-03   680.28
    3     8     8     1.08919986    -0.71826098 -1392.46978318    -0.06632070    -0.00351621  0.14D-03  0.45D-03   680.28
    3     9     9     1.08891295    -0.71812898 -1392.46965117    -0.06681851    -0.00351691  0.14D-03  0.45D-03   680.28
    3    10    10     1.08899680    -0.71796013 -1392.46948233    -0.06665561    -0.00353719  0.14D-03  0.45D-03   680.28
    3    11    11     1.08889413    -0.71774829 -1392.46927048    -0.06651537    -0.00353980  0.14D-03  0.44D-03   680.28
    3    12    12     1.08874842    -0.71765411 -1392.46917630    -0.06696096    -0.00355886  0.14D-03  0.44D-03   680.28
    3    13    13     1.08850058    -0.71752382 -1392.46904600    -0.06737760    -0.00357178  0.14D-03  0.44D-03   680.28
    3    14    14     1.08880348    -0.71747299 -1392.46899517    -0.06785134    -0.00355635  0.13D-03  0.44D-03   680.28
    3    15    15     1.06906431    -0.68636462 -1392.42521132    -0.02650145    -0.00209522  0.91D-04  0.28D-03   680.28
    3    16    16     1.06901259    -0.68633883 -1392.42518553    -0.02650830    -0.00209332  0.86D-04  0.28D-03   680.28
    3    17    17     1.06900025    -0.68626109 -1392.42510778    -0.02658802    -0.00212963  0.91D-04  0.29D-03   680.28
    4     1     1     1.06754036    -0.68019382 -1392.48776566    -0.00283510    -0.00055434  0.11D-03  0.50D-04  1025.29
    4     2     2     1.06750058    -0.68015865 -1392.48773048    -0.00295090    -0.00057609  0.11D-03  0.52D-04  1025.29
    4     3     3     1.06750451    -0.68013715 -1392.48770898    -0.00300205    -0.00057807  0.11D-03  0.52D-04  1025.29
    4     4     4     1.06750018    -0.68013706 -1392.48770889    -0.00302961    -0.00057694  0.11D-03  0.52D-04  1025.29
    4     5     5     1.06744325    -0.68009215 -1392.48766398    -0.00309071    -0.00059761  0.11D-03  0.53D-04  1025.29
    4     6     6     1.06744750    -0.68009156 -1392.48766339    -0.00313111    -0.00059981  0.12D-03  0.53D-04  1025.29
    4     7     7     1.06743457    -0.68007484 -1392.48764667    -0.00316645    -0.00060710  0.12D-03  0.54D-04  1025.29
    4     8     8     1.09488804    -0.72369466 -1392.47521686    -0.00543368    -0.00091022  0.51D-04  0.11D-03  1025.29
    4     9     9     1.09475838    -0.72360840 -1392.47513059    -0.00547942    -0.00093426  0.51D-04  0.11D-03  1025.29
    4    10    10     1.09465170    -0.72352199 -1392.47504419    -0.00556186    -0.00096772  0.53D-04  0.11D-03  1025.29
    4    11    11     1.09431079    -0.72328299 -1392.47480518    -0.00553470    -0.00102682  0.56D-04  0.11D-03  1025.29
    4    12    12     1.09427956    -0.72327427 -1392.47479645    -0.00562015    -0.00102078  0.56D-04  0.11D-03  1025.29
    4    13    13     1.09423058    -0.72321581 -1392.47473799    -0.00569199    -0.00104132  0.56D-04  0.11D-03  1025.29
    4    14    14     1.09404056    -0.72311815 -1392.47464033    -0.00564516    -0.00107153  0.60D-04  0.12D-03  1025.29
    4    15    15     1.07230273    -0.68943105 -1392.42827775    -0.00306644    -0.00052362  0.91D-04  0.55D-04  1025.29
    4    16    16     1.07229664    -0.68942466 -1392.42827136    -0.00308583    -0.00051993  0.86D-04  0.55D-04  1025.29
    4    17    17     1.07225562    -0.68939239 -1392.42823908    -0.00313130    -0.00053839  0.92D-04  0.56D-04  1025.29
    5     1     1     1.06935412    -0.68083602 -1392.48840785    -0.00064219    -0.00011547  0.67D-05  0.13D-04  1370.87
    5     2     2     1.06932427    -0.68082618 -1392.48839801    -0.00066753    -0.00012092  0.72D-05  0.13D-04  1370.87
    5     3     3     1.06931633    -0.68081411 -1392.48838594    -0.00067695    -0.00012406  0.77D-05  0.13D-04  1370.87
    5     4     4     1.06931562    -0.68081227 -1392.48838410    -0.00067521    -0.00012388  0.76D-05  0.13D-04  1370.87
    5     5     5     1.06927243    -0.68079405 -1392.48836588    -0.00070190    -0.00013124  0.82D-05  0.14D-04  1370.87
    5     6     6     1.06927057    -0.68079176 -1392.48836359    -0.00070020    -0.00013122  0.80D-05  0.14D-04  1370.87
    5     7     7     1.06925717    -0.68078624 -1392.48835807    -0.00071140    -0.00013481  0.84D-05  0.14D-04  1370.87
    5     8     8     1.09835248    -0.72504927 -1392.47657147    -0.00135461    -0.00022651  0.17D-04  0.23D-04  1370.87
    5     9     9     1.09830747    -0.72501586 -1392.47653806    -0.00140746    -0.00024152  0.18D-04  0.25D-04  1370.87
    5    10    10     1.09820680    -0.72497678 -1392.47649897    -0.00145479    -0.00026695  0.19D-04  0.30D-04  1370.87
    5    11    11     1.09804942    -0.72488211 -1392.47640430    -0.00159912    -0.00030354  0.22D-04  0.32D-04  1370.87
    5    12    12     1.09799884    -0.72487077 -1392.47639296    -0.00159651    -0.00031129  0.22D-04  0.33D-04  1370.87
    5    13    13     1.09804144    -0.72485914 -1392.47638133    -0.00164334    -0.00030873  0.22D-04  0.31D-04  1370.87
    5    14    14     1.09790447    -0.72482453 -1392.47634671    -0.00170638    -0.00032958  0.25D-04  0.33D-04  1370.87
    5    15    15     1.07412868    -0.69005364 -1392.42890034    -0.00062258    -0.00012704  0.13D-04  0.13D-04  1370.87
    5    16    16     1.07412650    -0.69004809 -1392.42889479    -0.00062343    -0.00012740  0.13D-04  0.13D-04  1370.87
    5    17    17     1.07409007    -0.69003391 -1392.42888061    -0.00064152    -0.00013386  0.13D-04  0.14D-04  1370.87
    6     1     1     1.06956094    -0.68098056 -1392.48855240    -0.00014455    -0.00003293  0.15D-05  0.47D-05  1714.93
    6     2     2     1.06953200    -0.68097785 -1392.48854968    -0.00015167    -0.00003427  0.15D-05  0.49D-05  1714.93
    6     3     3     1.06950857    -0.68097209 -1392.48854392    -0.00015799    -0.00003582  0.15D-05  0.50D-05  1714.93
    6     4     4     1.06950989    -0.68097004 -1392.48854187    -0.00015776    -0.00003627  0.15D-05  0.50D-05  1714.93
    6     5     5     1.06946850    -0.68096206 -1392.48853389    -0.00016800    -0.00003924  0.16D-05  0.54D-05  1714.93
    6     6     6     1.06946889    -0.68095982 -1392.48853165    -0.00016806    -0.00004002  0.17D-05  0.55D-05  1714.93
[...]
   41    7.1  1.5 -0.5   0.069%   0.000%   0.221%   0.000%   0.016%   0.000%   0.042%   0.000%   0.102%   0.000%
   42    8.1  1.5 -0.5   0.000%   0.000%   0.000%   0.000%   0.000%   0.000%   0.000%   0.000%   0.000%   0.000%
   43    9.1  1.5 -0.5   0.000%   0.000%   0.000%   0.000%   0.000%   0.000%   0.000%   0.000%   0.000%   0.000%
   44   10.1  1.5 -0.5   0.000%   0.000%   0.000%   0.000%   0.000%   0.000%   0.000%   0.000%   0.000%   0.000%
   45   11.1  1.5 -0.5   0.000%   0.000%   0.000%   0.000%   0.000%   0.000%   0.000%   0.000%   0.000%   0.000%
   46   12.1  1.5 -0.5   0.000%   0.000%   0.000%   0.000%   0.000%   0.000%   0.000%   0.000%   0.000%   0.000%
   47   13.1  1.5 -0.5   0.000%   0.000%   0.000%   0.000%   0.000%   0.000%   0.000%   0.000%   0.000%   0.000%
   48   14.1  1.5 -0.5   0.000%   0.000%   0.000%   0.000%   0.000%   0.000%   0.000%   0.000%   0.000%   0.000%
   49   15.1  1.5 -0.5   0.000%   0.000%   0.000%   0.000%   0.000%   0.000%   0.000%   0.000%   0.000%   0.000%
   50   16.1  1.5 -0.5   0.000%   0.000%   0.000%   0.000%   0.000%   0.000%   0.000%   0.000%   0.000%   0.000%
   51   17.1  1.5 -0.5   0.000%   0.000%   0.000%   0.000%   0.000%   0.000%   0.000%   0.000%   0.000%   0.000%
   52    1.1  1.5 -1.5   0.009%   0.000%   0.344%   0.000%   0.072%   0.000%   0.066%   0.000%   0.043%   0.000%
   53    2.1  1.5 -1.5   0.026%   0.000%   0.006%   0.000%   0.003%   0.000%   0.028%   0.000%   0.090%   0.000%
   54    3.1  1.5 -1.5   0.014%   0.000%   0.218%   0.000%   0.180%   0.000%   0.000%   0.000%   0.005%   0.000%
   55    4.1  1.5 -1.5   0.036%   0.000%   0.005%   0.000%   0.001%   0.000%   0.058%   0.000%   0.066%   0.000%
   56    5.1  1.5 -1.5   0.000%   0.280%   0.000%   0.076%   0.000%   0.008%   0.000%   0.038%   0.000%   0.147%
   57    6.1  1.5 -1.5   0.000%   0.086%   0.000%   0.001%   0.000%   0.128%   0.000%   0.033%   0.000%   0.000%
   58    7.1  1.5 -1.5   0.000%   0.128%   0.000%   0.002%   0.000%   0.132%   0.000%   0.027%   0.000%   0.001%
   59    8.1  1.5 -1.5   0.000%   0.000%   0.000%   0.000%   0.000%   0.000%   0.000%   0.000%   0.000%   0.000%
   60    9.1  1.5 -1.5   0.000%   0.000%   0.000%   0.000%   0.000%   0.000%   0.000%   0.000%   0.000%   0.000%
   61   10.1  1.5 -1.5   0.000%   0.000%   0.000%   0.000%   0.000%   0.000%   0.000%   0.000%   0.000%   0.000%
   62   11.1  1.5 -1.5   0.000%   0.000%   0.000%   0.000%   0.000%   0.000%   0.000%   0.000%   0.000%   0.000%
   63   12.1  1.5 -1.5   0.000%   0.000%   0.000%   0.000%   0.000%   0.000%   0.000%   0.000%   0.000%   0.000%
   64   13.1  1.5 -1.5   0.000%   0.000%   0.000%   0.000%   0.000%   0.000%   0.000%   0.000%   0.000%   0.000%
   65   14.1  1.5 -1.5   0.000%   0.000%   0.000%   0.000%   0.000%   0.000%   0.000%   0.000%   0.000%   0.000%
   66   15.1  1.5 -1.5   0.000%   0.000%   0.000%   0.000%   0.000%   0.000%   0.000%   0.000%   0.000%   0.000%
   67   16.1  1.5 -1.5   0.000%   0.000%   0.000%   0.000%   0.000%   0.000%   0.000%   0.000%   0.000%   0.000%
   68   17.1  1.5 -1.5   0.000%   0.000%   0.000%   0.000%   0.000%   0.000%   0.000%   0.000%   0.000%   0.000%
   69    1.1  0.5  0.5   0.015%   0.000%   0.143%   0.000%  33.045%   0.000%   8.653%   0.000%   0.804%   0.000%
   70    2.1  0.5  0.5   0.000%   0.075%   0.000%   0.004%   0.000%  35.000%   0.000%   7.455%   0.000%   0.050%
   71    3.1  0.5  0.5   0.030%   0.000%   6.445%   0.000%  25.868%   0.000%   0.480%   0.000%  16.208%   0.000%
   72    4.1  0.5  0.5  34.208%   0.000%  12.904%   0.000%   1.872%   0.000%  17.201%   0.001%  23.453%   0.000%
   73    5.1  0.5  0.5   0.000%  15.041%   0.000%  22.840%   0.000%   3.258%   0.001%  24.233%   0.000%  15.052%
   74    6.1  0.5  0.5  48.648%   0.000%   1.612%   0.000%   0.010%   0.000%  41.036%   0.002%   1.505%   0.000%
   75    7.1  0.5  0.5   0.000%   0.652%   0.001%  54.718%   0.000%   0.198%   0.000%   0.187%   0.000%  42.180%
   76    1.1  0.5 -0.5   0.000%   0.015%   0.000%   0.143%   0.000%  33.045%   0.000%   8.653%   0.000%   0.804%
   77    2.1  0.5 -0.5   0.075%   0.000%   0.004%   0.000%  35.000%   0.000%   7.455%   0.000%   0.050%   0.000%
   78    3.1  0.5 -0.5   0.000%   0.030%   0.000%   6.445%   0.000%  25.868%   0.000%   0.480%   0.000%  16.208%
   79    4.1  0.5 -0.5   0.000%  34.208%   0.000%  12.904%   0.000%   1.872%   0.001%  17.201%   0.000%  23.453%
   80    5.1  0.5 -0.5  15.041%   0.000%  22.840%   0.000%   3.258%   0.000%  24.233%   0.001%  15.052%   0.000%
   81    6.1  0.5 -0.5   0.000%  48.648%   0.000%   1.612%   0.000%   0.010%   0.002%  41.036%   0.000%   1.505%
   82    7.1  0.5 -0.5   0.652%   0.000%  54.718%   0.001%   0.198%   0.000%   0.187%   0.000%  42.180%   0.000%

   Nr   State  S   Sz      71       72       73       74       75       76       77       78       79       80

    1    1.1  1.5  1.5   0.000%   0.000%   0.000%   0.000%   0.000%   0.000%   0.000%   0.000%   0.000%   0.000%
    2    2.1  1.5  1.5   0.000%   0.000%   0.000%   0.000%   0.000%   0.000%   0.000%   0.000%   0.000%   0.000%
    3    3.1  1.5  1.5   0.000%   0.000%   0.000%   0.000%   0.000%   0.000%   0.000%   0.000%   0.000%   0.000%
    4    4.1  1.5  1.5   0.000%   0.000%   0.000%   0.000%   0.000%   0.000%   0.000%   0.000%   0.000%   0.000%
    5    5.1  1.5  1.5   0.000%   0.000%   0.000%   0.000%   0.000%   0.000%   0.000%   0.000%   0.000%   0.000%
    6    6.1  1.5  1.5   0.000%   0.000%   0.000%   0.000%   0.000%   0.000%   0.000%   0.000%   0.000%   0.000%
    7    7.1  1.5  1.5   0.000%   0.000%   0.000%   0.000%   0.000%   0.000%   0.000%   0.000%   0.000%   0.000%
    8    8.1  1.5  1.5   0.000%   0.000%   0.000%   0.000%   0.000%   0.000%   0.000%   0.000%   0.000%   0.000%
    9    9.1  1.5  1.5   0.000%   0.000%   0.000%   0.000%   0.000%   0.000%   0.000%   0.000%   0.000%   0.000%
   10   10.1  1.5  1.5   0.000%   0.000%   0.000%   0.000%   0.000%   0.000%   0.000%   0.000%   0.000%   0.000%
   11   11.1  1.5  1.5   0.000%   0.000%   0.000%   0.000%   0.000%   0.000%   0.000%   0.000%   0.000%   0.000%
   12   12.1  1.5  1.5   0.000%   0.000%   0.000%   0.000%   0.000%   0.000%   0.000%   0.000%   0.000%   0.000%
   13   13.1  1.5  1.5   0.000%   0.000%   0.000%   0.000%   0.000%   0.000%   0.000%   0.000%   0.000%   0.000%
   14   14.1  1.5  1.5   0.000%   0.000%   0.000%   0.000%   0.000%   0.000%   0.000%   0.000%   0.000%   0.000%
   15   15.1  1.5  1.5   0.001%  19.613%   0.018%  32.799%   0.000%   2.586%   0.000%   4.532%   0.000%  15.454%
   16   16.1  1.5  1.5  13.061%   0.001%  14.359%   0.008%  12.578%   0.000%  46.393%   0.001%  13.600%   0.000%
   17   17.1  1.5  1.5   0.000%   1.496%   0.017%  31.165%   0.000%  22.304%   0.000%   4.536%   0.000%  15.470%
   18    1.1  1.5  0.5   0.000%   0.000%   0.000%   0.000%   0.000%   0.000%   0.000%   0.000%   0.000%   0.000%
   19    2.1  1.5  0.5   0.000%   0.000%   0.000%   0.000%   0.000%   0.000%   0.000%   0.000%   0.000%   0.000%
   20    3.1  1.5  0.5   0.000%   0.000%   0.000%   0.000%   0.000%   0.000%   0.000%   0.000%   0.000%   0.000%
   21    4.1  1.5  0.5   0.000%   0.000%   0.000%   0.000%   0.000%   0.000%   0.000%   0.000%   0.000%   0.000%
   22    5.1  1.5  0.5   0.000%   0.000%   0.000%   0.000%   0.000%   0.000%   0.000%   0.000%   0.000%   0.000%
   23    6.1  1.5  0.5   0.000%   0.000%   0.000%   0.000%   0.000%   0.000%   0.000%   0.000%   0.000%   0.000%
   24    7.1  1.5  0.5   0.000%   0.000%   0.000%   0.000%   0.000%   0.000%   0.000%   0.000%   0.000%   0.000%
   25    8.1  1.5  0.5   0.000%   0.000%   0.000%   0.000%   0.000%   0.000%   0.000%   0.000%   0.000%   0.000%
   26    9.1  1.5  0.5   0.000%   0.000%   0.000%   0.000%   0.000%   0.000%   0.000%   0.000%   0.000%   0.000%
   27   10.1  1.5  0.5   0.000%   0.000%   0.000%   0.000%   0.000%   0.000%   0.000%   0.000%   0.000%   0.000%
   28   11.1  1.5  0.5   0.000%   0.000%   0.000%   0.000%   0.000%   0.000%   0.000%   0.000%   0.000%   0.000%
   29   12.1  1.5  0.5   0.000%   0.000%   0.000%   0.000%   0.000%   0.000%   0.000%   0.000%   0.000%   0.000%
   30   13.1  1.5  0.5   0.000%   0.000%   0.000%   0.000%   0.000%   0.000%   0.000%   0.000%   0.000%   0.000%
   31   14.1  1.5  0.5   0.000%   0.000%   0.000%   0.000%   0.000%   0.000%   0.000%   0.000%   0.000%   0.000%
   32   15.1  1.5  0.5  34.881%   0.002%   9.980%   0.005%   0.139%   0.000%  40.853%   0.000%   5.810%   0.000%
   33   16.1  1.5  0.5   0.001%  30.820%   0.000%   0.061%   0.000%  29.124%   0.000%   1.515%   0.000%   5.153%
   34   17.1  1.5  0.5   0.125%   0.000%  11.582%   0.006%  33.268%   0.000%   2.170%   0.000%  44.512%   0.000%
   35    1.1  1.5 -0.5   0.000%   0.000%   0.000%   0.000%   0.000%   0.000%   0.000%   0.000%   0.000%   0.000%
   36    2.1  1.5 -0.5   0.000%   0.000%   0.000%   0.000%   0.000%   0.000%   0.000%   0.000%   0.000%   0.000%
   37    3.1  1.5 -0.5   0.000%   0.000%   0.000%   0.000%   0.000%   0.000%   0.000%   0.000%   0.000%   0.000%
   38    4.1  1.5 -0.5   0.000%   0.000%   0.000%   0.000%   0.000%   0.000%   0.000%   0.000%   0.000%   0.000%
   39    5.1  1.5 -0.5   0.000%   0.000%   0.000%   0.000%   0.000%   0.000%   0.000%   0.000%   0.000%   0.000%
   40    6.1  1.5 -0.5   0.000%   0.000%   0.000%   0.000%   0.000%   0.000%   0.000%   0.000%   0.000%   0.000%
   41    7.1  1.5 -0.5   0.000%   0.000%   0.000%   0.000%   0.000%   0.000%   0.000%   0.000%   0.000%   0.000%
   42    8.1  1.5 -0.5   0.000%   0.000%   0.000%   0.000%   0.000%   0.000%   0.000%   0.000%   0.000%   0.000%
   43    9.1  1.5 -0.5   0.000%   0.000%   0.000%   0.000%   0.000%   0.000%   0.000%   0.000%   0.000%   0.000%
   44   10.1  1.5 -0.5   0.000%   0.000%   0.000%   0.000%   0.000%   0.000%   0.000%   0.000%   0.000%   0.000%
   45   11.1  1.5 -0.5   0.000%   0.000%   0.000%   0.000%   0.000%   0.000%   0.000%   0.000%   0.000%   0.000%
   46   12.1  1.5 -0.5   0.000%   0.000%   0.000%   0.000%   0.000%   0.000%   0.000%   0.000%   0.000%   0.000%
   47   13.1  1.5 -0.5   0.000%   0.000%   0.000%   0.000%   0.000%   0.000%   0.000%   0.000%   0.000%   0.000%
   48   14.1  1.5 -0.5   0.000%   0.000%   0.000%   0.000%   0.000%   0.000%   0.000%   0.000%   0.000%   0.000%
   49   15.1  1.5 -0.5   0.002%  34.881%   0.005%   9.980%   0.000%   0.139%   0.000%  40.853%   0.000%   5.810%
   50   16.1  1.5 -0.5  30.820%   0.001%   0.061%   0.000%  29.124%   0.000%   1.515%   0.000%   5.153%   0.000%
   51   17.1  1.5 -0.5   0.000%   0.125%   0.006%  11.582%   0.000%  33.268%   0.000%   2.170%   0.000%  44.512%
   52    1.1  1.5 -1.5   0.000%   0.000%   0.000%   0.000%   0.000%   0.000%   0.000%   0.000%   0.000%   0.000%
   53    2.1  1.5 -1.5   0.000%   0.000%   0.000%   0.000%   0.000%   0.000%   0.000%   0.000%   0.000%   0.000%
   54    3.1  1.5 -1.5   0.000%   0.000%   0.000%   0.000%   0.000%   0.000%   0.000%   0.000%   0.000%   0.000%
   55    4.1  1.5 -1.5   0.000%   0.000%   0.000%   0.000%   0.000%   0.000%   0.000%   0.000%   0.000%   0.000%
   56    5.1  1.5 -1.5   0.000%   0.000%   0.000%   0.000%   0.000%   0.000%   0.000%   0.000%   0.000%   0.000%
   57    6.1  1.5 -1.5   0.000%   0.000%   0.000%   0.000%   0.000%   0.000%   0.000%   0.000%   0.000%   0.000%
   58    7.1  1.5 -1.5   0.000%   0.000%   0.000%   0.000%   0.000%   0.000%   0.000%   0.000%   0.000%   0.000%
   59    8.1  1.5 -1.5   0.000%   0.000%   0.000%   0.000%   0.000%   0.000%   0.000%   0.000%   0.000%   0.000%
   60    9.1  1.5 -1.5   0.000%   0.000%   0.000%   0.000%   0.000%   0.000%   0.000%   0.000%   0.000%   0.000%
   61   10.1  1.5 -1.5   0.000%   0.000%   0.000%   0.000%   0.000%   0.000%   0.000%   0.000%   0.000%   0.000%
   62   11.1  1.5 -1.5   0.000%   0.000%   0.000%   0.000%   0.000%   0.000%   0.000%   0.000%   0.000%   0.000%
   63   12.1  1.5 -1.5   0.000%   0.000%   0.000%   0.000%   0.000%   0.000%   0.000%   0.000%   0.000%   0.000%
   64   13.1  1.5 -1.5   0.000%   0.000%   0.000%   0.000%   0.000%   0.000%   0.000%   0.000%   0.000%   0.000%
   65   14.1  1.5 -1.5   0.000%   0.000%   0.000%   0.000%   0.000%   0.000%   0.000%   0.000%   0.000%   0.000%
   66   15.1  1.5 -1.5  19.613%   0.001%  32.799%   0.018%   2.586%   0.000%   4.532%   0.000%  15.454%   0.000%
   67   16.1  1.5 -1.5   0.001%  13.061%   0.008%  14.359%   0.000%  12.578%   0.001%  46.393%   0.000%  13.600%
   68   17.1  1.5 -1.5   1.496%   0.000%  31.165%   0.017%  22.304%   0.000%   4.536%   0.000%  15.470%   0.000%
   69    1.1  0.5  0.5   0.000%   0.000%   0.000%   0.000%   0.000%   0.000%   0.000%   0.000%   0.000%   0.000%
   70    2.1  0.5  0.5   0.000%   0.000%   0.000%   0.000%   0.000%   0.000%   0.000%   0.000%   0.000%   0.000%
   71    3.1  0.5  0.5   0.000%   0.000%   0.000%   0.000%   0.000%   0.000%   0.000%   0.000%   0.000%   0.000%
   72    4.1  0.5  0.5   0.000%   0.000%   0.000%   0.000%   0.000%   0.000%   0.000%   0.000%   0.000%   0.000%
   73    5.1  0.5  0.5   0.000%   0.000%   0.000%   0.000%   0.000%   0.000%   0.000%   0.000%   0.000%   0.000%
   74    6.1  0.5  0.5   0.000%   0.000%   0.000%   0.000%   0.000%   0.000%   0.000%   0.000%   0.000%   0.000%
   75    7.1  0.5  0.5   0.000%   0.000%   0.000%   0.000%   0.000%   0.000%   0.000%   0.000%   0.000%   0.000%
   76    1.1  0.5 -0.5   0.000%   0.000%   0.000%   0.000%   0.000%   0.000%   0.000%   0.000%   0.000%   0.000%
   77    2.1  0.5 -0.5   0.000%   0.000%   0.000%   0.000%   0.000%   0.000%   0.000%   0.000%   0.000%   0.000%
   78    3.1  0.5 -0.5   0.000%   0.000%   0.000%   0.000%   0.000%   0.000%   0.000%   0.000%   0.000%   0.000%
   79    4.1  0.5 -0.5   0.000%   0.000%   0.000%   0.000%   0.000%   0.000%   0.000%   0.000%   0.000%   0.000%
   80    5.1  0.5 -0.5   0.000%   0.000%   0.000%   0.000%   0.000%   0.000%   0.000%   0.000%   0.000%   0.000%
   81    6.1  0.5 -0.5   0.000%   0.000%   0.000%   0.000%   0.000%   0.000%   0.000%   0.000%   0.000%   0.000%
   82    7.1  0.5 -0.5   0.000%   0.000%   0.000%   0.000%   0.000%   0.000%   0.000%   0.000%   0.000%   0.000%

   Nr   State  S   Sz      81       82

    1    1.1  1.5  1.5   0.000%   0.000%
    2    2.1  1.5  1.5   0.000%   0.000%
    3    3.1  1.5  1.5   0.000%   0.000%
    4    4.1  1.5  1.5   0.000%   0.000%
    5    5.1  1.5  1.5   0.000%   0.000%
    6    6.1  1.5  1.5   0.000%   0.000%
    7    7.1  1.5  1.5   0.000%   0.000%
    8    8.1  1.5  1.5   0.000%   0.000%
    9    9.1  1.5  1.5   0.000%   0.000%
   10   10.1  1.5  1.5   0.000%   0.000%
   11   11.1  1.5  1.5   0.000%   0.000%
   12   12.1  1.5  1.5   0.000%   0.000%
   13   13.1  1.5  1.5   0.000%   0.000%
   14   14.1  1.5  1.5   0.000%   0.000%
   15   15.1  1.5  1.5   0.000%  24.997%
   16   16.1  1.5  1.5   0.000%   0.000%
   17   17.1  1.5  1.5   0.000%  25.012%
   18    1.1  1.5  0.5   0.000%   0.000%
   19    2.1  1.5  0.5   0.000%   0.000%
   20    3.1  1.5  0.5   0.000%   0.000%
   21    4.1  1.5  0.5   0.000%   0.000%
   22    5.1  1.5  0.5   0.000%   0.000%
   23    6.1  1.5  0.5   0.000%   0.000%
   24    7.1  1.5  0.5   0.000%   0.000%
   25    8.1  1.5  0.5   0.000%   0.000%
   26    9.1  1.5  0.5   0.000%   0.000%
   27   10.1  1.5  0.5   0.000%   0.000%
   28   11.1  1.5  0.5   0.000%   0.000%
   29   12.1  1.5  0.5   0.000%   0.000%
   30   13.1  1.5  0.5   0.000%   0.000%
   31   14.1  1.5  0.5   0.000%   0.000%
   32   15.1  1.5  0.5   8.329%   0.000%
   33   16.1  1.5  0.5   0.000%  33.326%
   34   17.1  1.5  0.5   8.336%   0.000%
   35    1.1  1.5 -0.5   0.000%   0.000%
   36    2.1  1.5 -0.5   0.000%   0.000%
   37    3.1  1.5 -0.5   0.000%   0.000%
   38    4.1  1.5 -0.5   0.000%   0.000%
   39    5.1  1.5 -0.5   0.000%   0.000%
   40    6.1  1.5 -0.5   0.000%   0.000%
   41    7.1  1.5 -0.5   0.000%   0.000%
   42    8.1  1.5 -0.5   0.000%   0.000%
   43    9.1  1.5 -0.5   0.000%   0.000%
   44   10.1  1.5 -0.5   0.000%   0.000%
   45   11.1  1.5 -0.5   0.000%   0.000%
   46   12.1  1.5 -0.5   0.000%   0.000%
   47   13.1  1.5 -0.5   0.000%   0.000%
   48   14.1  1.5 -0.5   0.000%   0.000%
   49   15.1  1.5 -0.5   0.000%   8.329%
   50   16.1  1.5 -0.5  33.326%   0.000%
   51   17.1  1.5 -0.5   0.000%   8.336%
   52    1.1  1.5 -1.5   0.000%   0.000%
   53    2.1  1.5 -1.5   0.000%   0.000%
   54    3.1  1.5 -1.5   0.000%   0.000%
   55    4.1  1.5 -1.5   0.000%   0.000%
   56    5.1  1.5 -1.5   0.000%   0.000%
   57    6.1  1.5 -1.5   0.000%   0.000%
   58    7.1  1.5 -1.5   0.000%   0.000%
   59    8.1  1.5 -1.5   0.000%   0.000%
   60    9.1  1.5 -1.5   0.000%   0.000%
   61   10.1  1.5 -1.5   0.000%   0.000%
   62   11.1  1.5 -1.5   0.000%   0.000%
   63   12.1  1.5 -1.5   0.000%   0.000%
   64   13.1  1.5 -1.5   0.000%   0.000%
   65   14.1  1.5 -1.5   0.000%   0.000%
   66   15.1  1.5 -1.5  24.997%   0.000%
   67   16.1  1.5 -1.5   0.000%   0.000%
   68   17.1  1.5 -1.5  25.012%   0.000%
   69    1.1  0.5  0.5   0.000%   0.000%
   70    2.1  0.5  0.5   0.000%   0.000%
   71    3.1  0.5  0.5   0.000%   0.000%
   72    4.1  0.5  0.5   0.000%   0.000%
   73    5.1  0.5  0.5   0.000%   0.000%
   74    6.1  0.5  0.5   0.000%   0.000%
   75    7.1  0.5  0.5   0.000%   0.000%
   76    1.1  0.5 -0.5   0.000%   0.000%
   77    2.1  0.5 -0.5   0.000%   0.000%
   78    3.1  0.5 -0.5   0.000%   0.000%
   79    4.1  0.5 -0.5   0.000%   0.000%
   80    5.1  0.5 -0.5   0.000%   0.000%
   81    6.1  0.5 -0.5   0.000%   0.000%
   82    7.1  0.5 -0.5   0.000%   0.000%


 Property matrices transformed in SO basis (not sym. adapted)
 ============================================================

 No matrix element <i|DMX|i> larger than 5E-7
 No matrix element <i|DMX|1> larger than 5E-7

 No matrix element <i|DMY|i> larger than 5E-7
 No matrix element <i|DMY|1> larger than 5E-7

 No matrix element <i|DMZ|i> larger than 5E-7
 No matrix element <i|DMZ|1> larger than 5E-7


 **********************************************************************************************************************************
 DATASETS  * FILE   NREC   LENGTH (MB)   RECORD NAMES
              1      24      163.83       500      610      700      900      950      970     1000      129      960     1700   
                                          VAR    BASINP    GEOM    SYMINP    ZMAT    AOBASIS   BASIS     P2S    ABASIS    OPER   
                                         1101     1401     1411     1412     1650     1100     1400     1410     1200     1210   
                                          SR      EKINR    POTR     PVPR    MOLCAS      S      EKIN      POT      H0       H01  
                                         1080     1600     1700(1)  1380   
                                         AOSYM     SMH     OPER     JKOP   

              2       8      479.44       700     1000      520     2100     2140     2141     5103     5101   
                                         GEOM     BASIS   MCVARS     RHF     MCSCF    MCSCF    MRCI     MRCI   

 PROGRAMS   *        TOTAL        CI     LSINT        CI        CI     MULTI     MULTI   RHF-SCF       INT
 CPU TIMES  *     11198.52   5826.33      4.19    534.91   4826.56      3.80      1.07      0.61      0.85
 REAL TIME  *     11533.62 SEC
 DISK USED  *       516.11 MB (local),        2.47 GB (total)
 SF USED    *         3.88 GB
 GA USED    *         0.00 MB       (max)       0.00 MB       (current)
 **********************************************************************************************************************************

 CI/cc-pWCVTZ-DK energy=  -1392.478978318940

              CI              CI           MULTI           MULTI         RHF-SCF
  -1392.46893143  -1392.42914014  -1391.78508172  -1391.80758451  -1391.81034109
 **********************************************************************************************************************************
 Molpro calculation terminated with 1 warning(s)
