
 Working directory              : /wrk/irikura/molpro.qKKggv3Sdj/
 Global scratch directory       : /wrk/irikura/molpro.qKKggv3Sdj/
 Wavefunction directory         : /home/irikura/wfu/
 Main file repository           : /wrk/irikura/molpro.qKKggv3Sdj/

 id        : nistki

 Nodes            nprocs
 pn112695.nist.gov   12
 GA implementation: MPI file
 GA implementation (serial work in mppx): MPI file

 Using customized tuning parameters: mindgm=1; mindgv=20; mindgc=4; mindgr=1; noblas=0; minvec=7
 default implementation of scratch files=sf  


 Variables initialized (1040), CPU time= 0.01 sec
 ***,Co atom
                                                                                 ! Orbital optimized mostly for ground 4F term
 memory,2000,M;
 
 gprint,orbitals,civector
 
 symmetry,xyz
 geometry={Co}
 
 basis=cc-pwCVQZ-DK
 
 set,dkho=101
 
 {rhf,so-sci;wf,nelec=27,sym=1, spin=3}
 
                                                                                 ! 4F term only
 {multi
     closed,2,3
     wf,nelec=27,sym=1,spin=3; state,7;
     expec2,lxx,lyy,lzz;
  }
 table, energy, ll
 title, 4F energies and LL values
 
                                                                        ! Add other terms but with zero weights (to make MRCI work)
 {multi
     closed,2,3
     wf,nelec=27,sym=1,spin=3; state,20;
       weight,99,99,99,99,99,99,99, 1,1,1,1,1,1,1,1,1,1,1,1,1
     wf,nelec=27,sym=1,spin=1; state,24;
       weight,1,1,1,1,1,1,1,1,1,1,1,1,1,1,1,1,1,1,1,1,1,1,1,1
     expec2,lxx,lyy,lzz;
  }
 table, energy, ll
 title, CASSCF energies and LL values
 
                                                                                 ! MRCI and SO-CI with many terms
                                                                                 ! 4F + 4F + 4P + 4P  + 2F + 2G + 2D + 2P
 {ci;wf,sym=1,spin=3; state,20;save,5103.2}
 hlsdiag = energd4
 {ci;wf,sym=1,spin=1;state,24;save,5101.2}
 hlsdiag(21) = energd4
 
 table, hlsdiag
 
                                                                                 !compute and diagonalize SO matrix
 lsint
 {ci;hlsmat,ls,5103.2,5101.2;print,vls=0,hls=0}
 
 Commands initialized (846), CPU time= 0.01 sec, 717 directives.
 Default parameters read. Elapsed time= 0.12 sec

 Checking input...
 Passed
1


                                         ***  PROGRAM SYSTEM MOLPRO  ***
                                       Copyright, TTI GmbH Stuttgart, 2015
                                    Version 2023.2 linked Fri Sep 22 03:27:09 2023


 **********************************************************************************************************************************
 LABEL *   Co atom                                                                                                                                                       
  (32 PROC) 64 bit mpp version                                                           DATE: 09-Feb-24          TIME: 09:22:43  
 **********************************************************************************************************************************

 SHA1:             3c61bfe44d37c8635c785372c339f5cbdd4e4b59
 **********************************************************************************************************************************

 Memory per process:      2000 MW
 Total memory per node:  24000 MW

 GA preallocation disabled
 GA check disabled

 Variable memory set to 2000.0 MW


 ZSYMEL=XYZ

 SETTING BASIS          =    CC-PWCVQZ-DK
 SETTING DKHO           =       101.00000000                                  


 Recomputing integrals since basis changed


 Using spherical harmonics

 Library entry CO     S cc-pwCVQZ-DK         selected for orbital group  1
 Library entry CO     P cc-pwCVQZ-DK         selected for orbital group  1
 Library entry CO     D cc-pwCVQZ-DK         selected for orbital group  1
 Library entry CO     F cc-pwCVQZ-DK         selected for orbital group  1
 Library entry CO     G cc-pwCVQZ-DK         selected for orbital group  1
 Library entry CO     H cc-pwCVQZ-DK         selected for orbital group  1


 PROGRAM * SEWARD (Integral evaluation for generally contracted gaussian basis sets)     Author: Roland Lindh, 1990

 Geometry written to block  1 of record 700

 Orientation using atomic masses  
 Molecule type: Atom
 User-specified symmetry elements: XYZ
 Symmetry elements: XYZ
 Rotational constants:       0.0000000      0.0000000      0.0000000 GHz  (calculated with average atomic masses)

 Point group  Ci  



 ATOMIC COORDINATES

 NR  ATOM    CHARGE       X              Y              Z

   1  CO     27.00    0.000000000    0.000000000    0.000000000

 NUCLEAR CHARGE:                   27
 NUMBER OF PRIMITIVE AOS:         289
 NUMBER OF SYMMETRY AOS:          226
 NUMBER OF CONTRACTIONS:          149   (   72Ag  +   77Au  )
 NUMBER OF INNER CORE ORBITALS:     5   (    2Ag  +    3Au  )
 NUMBER OF OUTER CORE ORBITALS:     4   (    1Ag  +    3Au  )
 NUMBER OF VALENCE ORBITALS:        6   (    6Ag  +    0Au  )


 NUCLEAR REPULSION ENERGY    0.00000000

 One-electron integrals computed with SEWARD

 eXact-2-Component (X2C) method activated

 Computing Douglas-Kroll / X2C integrals

 AO integral compression algorithm  1   Integral accuracy      1.0D-11

     56.099 MB (compressed) written to integral file ( 13.4%)

     Node minimum: 2.359 MB, node maximum: 7.078 MB


 NUMBER OF SORTED TWO-ELECTRON INTEGRALS:    2636580.     BUFFER LENGTH:  32768
 NUMBER OF SEGMENTS:   1  SEGMENT LENGTH:    2636580      RECORD LENGTH: 524288

 Memory used in sort:       3.19 MW

 SORT1 READ    51671866. AND WROTE      444190. INTEGRALS IN      2 RECORDS. CPU TIME:     0.24 SEC, REAL TIME:     0.25 SEC
 SORT2 READ     5533293. AND WROTE    31640664. INTEGRALS IN    132 RECORDS. CPU TIME:     0.06 SEC, REAL TIME:     0.07 SEC

 Node minimum:     2632828.  Node maximum:     2643246. integrals

 OPERATOR DM      FOR CENTER  0  COORDINATES:    0.000000    0.000000    0.000000

 EXTRA SYMMETRY OF AOS IN SYMMETRY 1:   1 1 1 1 1 1 1 1 1 1   2 3 4 5 6 2 3 4 5 6   2 3 4 5 6 2 3 4 5 6   2 3 4 5 6 2 3 4 5 6
                                        2 3 4 5 6 7 8 91011  12131415 7 8 9101112  131415 7 8 910111213  1415
 EXTRA SYMMETRY OF AOS IN SYMMETRY 2:   1 2 3 1 2 3 1 2 3 1   2 3 1 2 3 1 2 3 1 2   3 1 2 3 1 2 3 4 5 6   7 8 910 4 5 6 7 8 9
                                       10 4 5 6 7 8 910 4 5   6 7 8 9101112131415  16171819202111121314  15161718192021

 Eigenvalues of metric

         1 0.270E-04 0.224E-03 0.144E-01 0.170E-01 0.170E-01 0.170E-01 0.170E-01 0.170E-01
         2 0.197E-03 0.197E-03 0.197E-03 0.594E-03 0.594E-03 0.594E-03 0.821E-01 0.821E-01


 **********************************************************************************************************************************
 DATASETS  * FILE   NREC   LENGTH (MB)   RECORD NAMES
              1      22       29.58       500      610      700      900      950      970     1000      129      960     1700   
                                          VAR    BASINP    GEOM    SYMINP    ZMAT    AOBASIS   BASIS     P2S    ABASIS    OPER   
                                         1101     1401     1411     1412     1650     1100     1400     1410     1200     1210   
                                          SR      EKINR    POTR     PVPR    MOLCAS      S      EKIN      POT      H0       H01  
                                         1080     1600   
                                         AOSYM     SMH  

 PROGRAMS   *        TOTAL       INT
 CPU TIMES  *         1.82      1.62
 REAL TIME  *         2.87 SEC
 DISK USED  *        29.95 MB (local),      487.25 MB (total)
 GA USED    *         0.00 MB       (max)       0.00 MB       (current)
 **********************************************************************************************************************************


 Program * Restricted Hartree-Fock

 Orbital guess generated from atomic densities. Full valence occupancy:    9   6

 Initial alpha occupancy:   9   6
 Initial beta  occupancy:   6   6
 
 SO-SCI SOLVER WITH NELEC=27 SYM=1 MS2=3 THRE=1.0D-08 THRG=3.2D-06
 
 Authors: D.A. Kreplin, H.-J. Werner (2022)
 
 Number of closed-shell orbitals:                12   (    6    6)
 Number of singly occupied active orbitals:       3   (    3    0)
 Number of virtual orbitals:                    134   (   63   71)
 
 ITER.  MIC  NCI          ENERGY    ENERGY CHANGE          GRAD      ORB GRAD        CI RES  NQN        STEP      TIME
    1    1    0   -1391.68158329   -1391.68158329    1.16058465    1.16058465    0.00000000    0    0.32E+00      0.07
    2    1    0   -1391.68051277       0.00107052    1.29997348    1.29997348    0.00000000    0    0.25E+00      0.13
    3    1    0   -1391.72731050      -0.04679773    1.15180585    1.15180585    0.00000000    0    0.22E+00      0.19
    4    1    0   -1391.73037050      -0.00305999    1.06532375    1.06532375    0.00000000    0    0.23E+00      0.24
    5    1    0   -1391.72695985       0.00341064    1.12173197    1.12173197    0.00000000    0    0.21E+00      0.30
    6    2    0   -1391.74641942      -0.01945957    0.99934392    0.99934392    0.00000000    1    0.10E+00      0.37
    7    2    0   -1391.80999871      -0.06357929    0.20049109    0.20049109    0.00000000    2    0.95E-01      0.44
    8    2    0   -1391.81310655      -0.00310784    0.04659800    0.04659800    0.00000000    3    0.35E-01      0.50
    9    2    0   -1391.81337231      -0.00026576    0.00718454    0.00718454    0.00000000    4    0.12E-01      0.56
   10    2    0   -1391.81339177      -0.00001946    0.00277918    0.00277918    0.00000000    5    0.16E-02      0.63
   11    2    0   -1391.81339380      -0.00000204    0.00108993    0.00108993    0.00000000    6    0.46E-03      0.69
   12    2    0   -1391.81339401      -0.00000021    0.00020736    0.00020736    0.00000000    7    0.38E-03      0.75
   13    2    0   -1391.81339402      -0.00000001    0.00008400    0.00008400    0.00000000    8    0.25E-03      0.81
   14    2    0   -1391.81339402      -0.00000000    0.00005332    0.00005332    0.00000000    9    0.11E-03      0.88
   15    2    0   -1391.81339402      -0.00000000    0.00001040    0.00001040    0.00000000   10    0.39E-05      0.94

 CONVERGENCE REACHED!  Final gradient:     0.00000196 ( 0.20E-05)
                       Final energy:   -1391.81339402
 

 Final alpha occupancy:   9   6
 Final beta  occupancy:   6   6

 !RHF STATE 1.1 Energy              -1391.813394024475
  RHF One-electron energy           -1932.561102393600
  RHF Two-electron energy             540.747708369125
  RHF Kinetic energy                 1453.822663602541
  RHF Nuclear energy                    0.000000000000
  RHF Virial quotient                  -0.957347432303

 !RHF STATE 1.1 Dipole moment           0.00000000     0.00000000     0.00000000
 Dipole moment /Debye                   0.00000000     0.00000000     0.00000000

 ELECTRON ORBITALS
 =================

  Orbital  Occupation    Energy    Cen Mu Typ  Coefficients
    1.1     2.00000  -285.57099     1  1  s    0.96113
    2.1     2.00000   -35.23772     1  2  s    1.01449
    3.1     2.00000    -4.40323     1  3  s    0.98507
    4.1     2.00000    -0.40437     1  1  d2-  0.99973
    5.1     2.00000    -0.40437     1  1  d0   0.85953    1  1  d2+ -0.49696
    6.1     2.00000    -0.40437     1  1  d1-  0.99284
    7.1     1.00000    -0.48247     1  1  d1+  0.99967
    8.1     1.00000    -0.48247     1  1  d0   0.49982    1  1  d2+  0.86573
    9.1     1.00000    -0.23835     1  4  s    0.96036
    1.2     2.00000   -30.01104     1  1  px   1.00002
    2.2     2.00000   -30.01104     1  1  py   0.99989
    3.2     2.00000   -30.01104     1  1  pz   0.99989
    4.2     2.00000    -2.82434     1  2  px   1.00070
    5.2     2.00000    -2.82434     1  2  py   0.99928
    6.2     2.00000    -2.82434     1  2  pz   0.99929


 HOMO      9.1    -0.238348 =      -6.4858eV
 LUMO      7.2     0.041324 =       1.1245eV
 LUMO-HOMO         0.279673 =       7.6103eV

 Orbitals saved in record  2100.2


 **********************************************************************************************************************************
 DATASETS  * FILE   NREC   LENGTH (MB)   RECORD NAMES
              1      23       30.52       500      610      700      900      950      970     1000      129      960     1700   
                                          VAR    BASINP    GEOM    SYMINP    ZMAT    AOBASIS   BASIS     P2S    ABASIS    OPER   
                                         1101     1401     1411     1412     1650     1100     1400     1410     1200     1210   
                                          SR      EKINR    POTR     PVPR    MOLCAS      S      EKIN      POT      H0       H01  
                                         1080     1600     1380   
                                         AOSYM     SMH     JKOP   

              2       4        0.70       700     1000      520     2100   
                                         GEOM     BASIS   MCVARS     RHF  

 PROGRAMS   *        TOTAL   RHF-SCF       INT
 CPU TIMES  *         2.72      0.90      1.62
 REAL TIME  *         3.88 SEC
 DISK USED  *        31.32 MB (local),      503.69 MB (total)
 SF USED    *         3.81 MB
 GA USED    *         0.00 MB       (max)       0.00 MB       (current)
 **********************************************************************************************************************************

 PROGRAM * MULTI (Direct Multiconfiguration SCF)       Authors: P.J. Knowles, H.-J. Werner (1984)
                                                                D.A. Kreplin, P.J. Knowles, H.-J. Werner (2019)

 Number of closed-shell orbitals:   5 (    2    3)
 Number of active  orbitals:       10 (    7    3)
 Number of external orbitals:     134 (   63   71)

 State symmetry 1

 Number of active electrons:  17    Spin symmetry=Quartet   Space symmetry=1
 Number of states:             7
 Number of CSFs:              56   (56 determinants, 120 intermediate states)

 Molecular orbitals read from record     2100.2  Type=RHF/CANONICAL (state 1.1)
 *** IN SYMMETRY 1 ORBITAL  2 SYMMETRY CONTAMINATION OF 0.200D-03 HAS BEEN REMOVED
 *** IN SYMMETRY 1 ORBITAL  3 SYMMETRY CONTAMINATION OF 0.211D-02 HAS BEEN REMOVED
 *** IN SYMMETRY 1 ORBITAL  4 SYMMETRY CONTAMINATION OF 0.699D-02 HAS BEEN REMOVED
 *** IN SYMMETRY 1 ORBITAL  5 SYMMETRY CONTAMINATION OF 0.417D+00 HAS BEEN REMOVED
 *** IN SYMMETRY 1 ORBITAL  6 SYMMETRY CONTAMINATION OF 0.139D+00 HAS BEEN REMOVED
 *** IN SYMMETRY 1 ORBITAL  7 SYMMETRY CONTAMINATION OF 0.115D-01 HAS BEEN REMOVED
 *** IN SYMMETRY 1 ORBITAL  8 SYMMETRY CONTAMINATION OF 0.373D+00 HAS BEEN REMOVED
 *** IN SYMMETRY 1 ORBITAL  9 SYMMETRY CONTAMINATION OF 0.269D-02 HAS BEEN REMOVED

 EXTRA SYMMETRY OF MOS IN SYMMETRY 1:   1 1 1 3 2 6 4 5 1 1   5 4 6 2 3 1 4 5 6 3   2 4 5 3 6 2 11215 9  1314 71011 8 4 5 3 2
                                        6 112 91513 714 810  11 4 5 3 2 6 11213 9  15 714 81011 4 5 3 2   6 1
 *** IN SYMMETRY 2 ORBITAL  1 SYMMETRY CONTAMINATION OF 0.317D-02 HAS BEEN REMOVED
 *** IN SYMMETRY 2 ORBITAL  2 SYMMETRY CONTAMINATION OF 0.190D-01 HAS BEEN REMOVED
 *** IN SYMMETRY 2 ORBITAL  3 SYMMETRY CONTAMINATION OF 0.168D-01 HAS BEEN REMOVED
 *** IN SYMMETRY 2 ORBITAL  4 SYMMETRY CONTAMINATION OF 0.171D-01 HAS BEEN REMOVED
 *** IN SYMMETRY 2 ORBITAL  5 SYMMETRY CONTAMINATION OF 0.671D-01 HAS BEEN REMOVED
 *** IN SYMMETRY 2 ORBITAL  6 SYMMETRY CONTAMINATION OF 0.613D-01 HAS BEEN REMOVED
 EXTRA SYMMETRY OF MOS IN SYMMETRY 2:   1 2 3 1 2 3 3 2 1 3   2 1 3 1 210 9 4 6 8   7 5 3 1 210 9 4 7 8   6 5 1 3 210 9 4 7 8
                                        6 51416131715112118  201219 1 2 310 9 4 7   8 6 514161317151121  18201219 1 2 3

 Wavefunction dump at record             2140.2

 Convergence thresholds  0.10E-04 (gradient)  0.10E-05 (energy)

 Weight factors for state symmetry  1:    0.14286   0.14286   0.14286   0.14286   0.14286   0.14286   0.14286
 
 Number of orbital rotations:  1016  ( 23 closed/active, 339 closed/virtual, 0 active/active, 654 active/virtual )
 Total number of variables:    1408
 
 Second-order MCSCF: L-BFGS accelerated
 
 ITER  MIC  NCI  NEG     ENERGY(VAR)    ENERGY(PROJ) ENERGY CHANGE       GRAD(0)  GRAD(ORB)   GRAD(CI)      STEP      TIME
   1    3    3    0  -1391.80932196   -1391.81055667   -0.00123471    0.06017654 0.00001368 0.00000000  0.33E-01      0.39
   2    4    4    0  -1391.81056096   -1391.81056106   -0.00000009    0.00057943 0.00000036 0.00000000  0.46E-03      0.79
   3   20   20    0  -1391.81056106   -1391.81056106    0.00000000    0.00000038 0.00000011 0.00000000  0.30E-06      1.46

 CONVERGENCE REACHED!  Final gradient:    0.00000051 ( 0.51E-06)
                       Final energy:  -1391.81056106
 
 Results for state 1.1
 =====================
 !MCSCF STATE 1.1 Energy                     -1391.810561057136
 Nuclear energy                                  0.00000000
 Kinetic energy                               1453.81996116
 One electron energy                         -1932.56815535
 Two electron energy                           540.75759429
 Virial ratio                                    1.95734726
 
 !MCSCF STATE 1.1 Dipole moment                  0.00000000     0.00000000     0.00000000
 Dipole moment /Debye                            0.00000000     0.00000000     0.00000000
 
 Results for state 2.1
 =====================
 !MCSCF STATE 2.1 Energy                     -1391.810561056287
 Nuclear energy                                  0.00000000
 Kinetic energy                               1453.81996131
 One electron energy                         -1932.56815563
 Two electron energy                           540.75759457
 Virial ratio                                    1.95734726
 
 !MCSCF STATE 2.1 Dipole moment                  0.00000000     0.00000000     0.00000000
 Dipole moment /Debye                            0.00000000     0.00000000     0.00000000
 
 Results for state 3.1
 =====================
 !MCSCF STATE 3.1 Energy                     -1391.810561055994
 Nuclear energy                                  0.00000000
 Kinetic energy                               1453.81996133
 One electron energy                         -1932.56815567
 Two electron energy                           540.75759461
 Virial ratio                                    1.95734726
 
 !MCSCF STATE 3.1 Dipole moment                  0.00000000     0.00000000     0.00000000
 Dipole moment /Debye                            0.00000000     0.00000000     0.00000000
 
 Results for state 4.1
 =====================
 !MCSCF STATE 4.1 Energy                     -1391.810561055291
 Nuclear energy                                  0.00000000
 Kinetic energy                               1453.81996133
 One electron energy                         -1932.56815567
 Two electron energy                           540.75759461
 Virial ratio                                    1.95734726
 
 !MCSCF STATE 4.1 Dipole moment                  0.00000000     0.00000000     0.00000000
 Dipole moment /Debye                            0.00000000     0.00000000     0.00000000
 
 Results for state 5.1
 =====================
 !MCSCF STATE 5.1 Energy                     -1391.810561055237
 Nuclear energy                                  0.00000000
 Kinetic energy                               1453.81996134
 One electron energy                         -1932.56815568
 Two electron energy                           540.75759463
 Virial ratio                                    1.95734726
 
 !MCSCF STATE 5.1 Dipole moment                  0.00000000     0.00000000     0.00000000
 Dipole moment /Debye                            0.00000000     0.00000000     0.00000000
 
 Results for state 6.1
 =====================
 !MCSCF STATE 6.1 Energy                     -1391.810561054453
 Nuclear energy                                  0.00000000
 Kinetic energy                               1453.81996158
 One electron energy                         -1932.56815613
 Two electron energy                           540.75759507
 Virial ratio                                    1.95734726
 
 !MCSCF STATE 6.1 Dipole moment                  0.00000000     0.00000000     0.00000000
 Dipole moment /Debye                            0.00000000     0.00000000     0.00000000
 
 Results for state 7.1
 =====================
 !MCSCF STATE 7.1 Energy                     -1391.810561054090
 Nuclear energy                                  0.00000000
 Kinetic energy                               1453.81996165
 One electron energy                         -1932.56815626
 Two electron energy                           540.75759521
 Virial ratio                                    1.95734726
 
 !MCSCF STATE 7.1 Dipole moment                  0.00000000     0.00000000     0.00000000
 Dipole moment /Debye                            0.00000000     0.00000000     0.00000000
 
 State-averaged charge density matrix saved on record 2140.2 (density set 1)
 
 No non-zero expectation values
 
 Expectation values for two-electron operators:
 
 !MCSCF expec                      <1.1|LXLX|1.1>     0.015124758440
 !MCSCF expec                      <2.1|LXLX|2.1>     1.388047614308
 !MCSCF expec                      <3.1|LXLX|3.1>     1.109754799472
 !MCSCF expec                      <4.1|LXLX|4.1>     8.890358059490
 !MCSCF expec                      <5.1|LXLX|5.1>     8.611895875217
 !MCSCF expec                      <6.1|LXLX|6.1>     3.984872127220
 !MCSCF expec                      <7.1|LXLX|7.1>     3.999999963999
 
 !MCSCF expec                      <1.1|LYLY|1.1>     5.517030049222
 !MCSCF expec                      <2.1|LYLY|2.1>     1.619450320446
 !MCSCF expec                      <3.1|LYLY|3.1>     8.854482964193
 !MCSCF expec                      <4.1|LYLY|4.1>     1.145646676188
 !MCSCF expec                      <5.1|LYLY|5.1>     2.380613871293
 !MCSCF expec                      <6.1|LYLY|6.1>     4.483021387618
 !MCSCF expec                      <7.1|LYLY|7.1>     4.000000071347
 
 !MCSCF expec                      <1.1|LZLZ|1.1>     6.467845192338
 !MCSCF expec                      <2.1|LZLZ|2.1>     8.992502065246
 !MCSCF expec                      <3.1|LZLZ|3.1>     2.035762236334
 !MCSCF expec                      <4.1|LZLZ|4.1>     1.963995264322
 !MCSCF expec                      <5.1|LZLZ|5.1>     1.007490253490
 !MCSCF expec                      <6.1|LZLZ|6.1>     3.532106485162
 !MCSCF expec                      <7.1|LZLZ|7.1>     3.999999964654
 
 !MCSCF expec                      <1.1|L**2|1.1>    12.000000000000
 !MCSCF expec                      <2.1|L**2|2.1>    12.000000000000
 !MCSCF expec                      <3.1|L**2|3.1>    12.000000000000
 !MCSCF expec                      <4.1|L**2|4.1>    12.000000000000
 !MCSCF expec                      <5.1|L**2|5.1>    12.000000000000
 !MCSCF expec                      <6.1|L**2|6.1>    12.000000000000
 !MCSCF expec                      <7.1|L**2|7.1>    12.000000000000
 
 EXTRA SYMMETRY OF MOS IN SYMMETRY 1:   1 1 1 3 2 5 6 4 1 1   2 3 6 5 4 1 2 3 5 6   4 2 3 6 5 4 112 915  14 8 7111013 2 3 6 4
                                        5 112 91415 8 71113  10 4 2 6 5 3 1121415   9 8 7111013 4 6 2 5   3 1
 EXTRA SYMMETRY OF MOS IN SYMMETRY 2:   3 1 2 1 2 3 3 1 2 3   1 2 3 1 2 6 4 5 7 9   810 3 1 2 6 4 5 9 7   810 3 1 2 4 6 5 810
                                        9 71316141115172119  121820 3 1 210 4 8 6   5 7 913141617151121  19122018 3 1 2
 
  NATURAL ORBITALS (STATE AVERAGED)
  =================================

  Orbital  Occupation    Energy    Cen Mu Typ  Coefficients
    1.1     2.00000  -285.57086     1  1  s    0.96113
    2.1     2.00000   -35.23766     1  2  s    1.01449
    3.1     2.00000    -4.40306     1  3  s    0.98507
    4.1     1.60001    -0.24532     1  1  d2-  0.99985
    5.1     1.60001    -0.24532     1  1  d0   0.99985
    6.1     1.60000    -0.24531     1  1  d2+  0.99985
    7.1     1.60000    -0.24531     1  1  d1-  0.99985
    8.1     1.59999    -0.24531     1  1  d1+  0.99985
    9.1     1.00000    -0.09686     1  4  s    0.96169
    1.2     2.00000   -30.01096     1  1  pz   1.00002
    2.2     2.00000   -30.01096     1  1  px   1.00002
    3.2     2.00000   -30.01096     1  1  py   1.00002
    4.2     2.00000    -2.82384     1  2  px   1.00074
    5.2     2.00000    -2.82384     1  2  py   1.00074
    6.2     2.00000    -2.82384     1  2  pz   1.00074
 
 Natural orbital dump (state averaged) at molpro section 2140.2 (Orbital set 2)
 
 Transform the CI vectors
 
 CI Coefficients of symmetry 1
 =============================
 
 22aa22a 222      0.00010508      0.00008651     -0.00001916      0.00001951      0.00001278     -0.00018556      0.99999997
 2a222aa 222      0.89273459     -0.00015968      0.00000198     -0.00002286     -0.00001639     -0.05499940     -0.00010400
 222aa2a 222      0.27643658     -0.00010583     -0.00003207      0.00002619     -0.00007388      0.85063669      0.00012881
 222a2aa 222      0.00014453      0.72354346     -0.00002750      0.00002402      0.52581825      0.00008872     -0.00006931
 2aa222a 222      0.00001637      0.00000385      0.71340070      0.70075634     -0.00000000     -0.00000000     -0.00000000
 2a22a2a 222     -0.00011294     -0.69000719     -0.00004885      0.00005353      0.56911339      0.00000027      0.00005243
 2222aaa 222     -0.00001476     -0.00002005      0.62677551     -0.63808498      0.00008951      0.00004808      0.00002447
 22a22aa 222      0.00001824      0.01936216     -0.00004408      0.00004477      0.63215907      0.00005138     -0.00000975
 22a2a2a 222      0.35581979     -0.00003109      0.00001966     -0.00002832      0.00003319     -0.52286923     -0.00013441
 2a2a22a 222      0.00000738      0.00001002     -0.31338777      0.31904249     -0.00004476     -0.00002404     -0.00001223
 
 Energy:      -1391.81056106  -1391.81056106  -1391.81056106  -1391.81056106  -1391.81056106  -1391.81056105  -1391.81056105
 


 **********************************************************************************************************************************
 DATASETS  * FILE   NREC   LENGTH (MB)   RECORD NAMES
              1      24       45.29       500      610      700      900      950      970     1000      129      960     1700   
                                          VAR    BASINP    GEOM    SYMINP    ZMAT    AOBASIS   BASIS     P2S    ABASIS    OPER   
                                         1101     1401     1411     1412     1650     1100     1400     1410     1200     1210   
                                          SR      EKINR    POTR     PVPR    MOLCAS      S      EKIN      POT      H0       H01  
                                         1080     1600     1380     1700(1)
                                         AOSYM     SMH     JKOP     OPER   

              2       5        1.23       700     1000      520     2100     2140   
                                         GEOM     BASIS   MCVARS     RHF     MCSCF   

 PROGRAMS   *        TOTAL     MULTI   RHF-SCF       INT
 CPU TIMES  *         4.12      1.40      0.90      1.62
 REAL TIME  *         6.49 SEC
 DISK USED  *        46.62 MB (local),      687.37 MB (total)
 SF USED    *        47.65 MB
 GA USED    *         0.00 MB       (max)       0.00 MB       (current)
 **********************************************************************************************************************************

 4F energies and LL values

          ENERGY     LL
    -1391.810561   12.0
    -1391.810561   12.0
    -1391.810561   12.0
    -1391.810561   12.0
    -1391.810561   12.0
    -1391.810561   12.0
    -1391.810561   12.0
                                                  

 PROGRAM * MULTI (Direct Multiconfiguration SCF)       Authors: P.J. Knowles, H.-J. Werner (1984)
                                                                D.A. Kreplin, P.J. Knowles, H.-J. Werner (2019)

 Number of closed-shell orbitals:   5 (    2    3)
 Number of active  orbitals:       10 (    7    3)
 Number of external orbitals:     134 (   63   71)

 State symmetry 1

 Number of active electrons:  17    Spin symmetry=Quartet   Space symmetry=1
 Number of states:            20
 Number of CSFs:              56   (56 determinants, 120 intermediate states)

 State symmetry 2

 Number of active electrons:  17    Spin symmetry=Doublet   Space symmetry=1
 Number of states:            24
 Number of CSFs:             175   (231 determinants, 450 intermediate states)

 Molecular orbitals read from record     2140.2  Type=MCSCF/NATURAL (state averaged)

 EXTRA SYMMETRY OF MOS IN SYMMETRY 1:   1 1 1 3 2 5 6 4 1 1   2 3 6 5 4 1 2 3 5 6   4 2 3 6 5 4 112 915  14 8 7111013 2 3 6 4
                                        5 112 91415 8 71113  10 4 2 6 5 3 1121415   9 8 7111013 4 6 2 5   3 1
 EXTRA SYMMETRY OF MOS IN SYMMETRY 2:   3 1 2 1 2 3 3 1 2 3   1 2 3 1 2 6 4 5 7 9   810 3 1 2 6 4 5 9 7   810 3 1 2 4 6 5 810
                                        9 71316141115172119  121820 3 1 210 4 8 6   5 7 913141617151121  19122018 3 1 2

 Wavefunction dump at record             2141.2

 Convergence thresholds  0.10E-04 (gradient)  0.10E-05 (energy)

 Weight factors for state symmetry  1:    0.13562   0.13562   0.13562   0.13562   0.13562   0.13562   0.13562   0.00137
                                          0.00137   0.00137   0.00137   0.00137   0.00137   0.00137   0.00137   0.00137
                                          0.00137   0.00137   0.00137   0.00137
 Weight factors for state symmetry  2:    0.00137   0.00137   0.00137   0.00137   0.00137   0.00137   0.00137   0.00137
                                          0.00137   0.00137   0.00137   0.00137   0.00137   0.00137   0.00137   0.00137
                                          0.00137   0.00137   0.00137   0.00137   0.00137   0.00137   0.00137   0.00137
 
 Number of orbital rotations:  1016  ( 23 closed/active, 339 closed/virtual, 0 active/active, 654 active/virtual )
 Total number of variables:    7680
 
 Second-order MCSCF: L-BFGS accelerated
 
 ITER  MIC  NCI  NEG     ENERGY(VAR)    ENERGY(PROJ) ENERGY CHANGE       GRAD(0)  GRAD(ORB)   GRAD(CI)      STEP      TIME
   1   16   24    0  -1391.80691338   -1391.80699438   -0.00008099    0.01305556 0.00004556 0.00000000  0.67E-01      1.23
   2    8   14    0  -1391.80678199   -1391.80694348   -0.00016150    0.04957392 0.00000087 0.00000000  0.85E-02      2.24
   3   22   44    0  -1391.80694374   -1391.80694374   -0.00000000    0.00008393 0.00000015 0.00000000  0.33E-04      4.11
   4   21   42    0  -1391.80694374   -1391.80694374    0.00000000    0.00000028 0.00000036 0.00000000  0.27E-06      5.86

 CONVERGENCE REACHED!  Final gradient:    0.00000033 ( 0.33E-06)
                       Final energy:  -1391.80694374
 
 Results for state 1.1 Quartet
 =============================
 !MCSCF STATE 1.1 Quartet Energy             -1391.810537317873
 Nuclear energy                                  0.00000000
 Kinetic energy                               1453.91284957
 One electron energy                         -1932.72490599
 Two electron energy                           540.91436867
 Virial ratio                                    1.95728608
 
 !MCSCF STATE 1.1 Quartet Dipole moment          0.00000000     0.00000000     0.00000000
 Dipole moment /Debye                            0.00000000     0.00000000     0.00000000
 
 Results for state 2.1 Quartet
 =============================
 !MCSCF STATE 2.1 Quartet Energy             -1391.810537309527
 Nuclear energy                                  0.00000000
 Kinetic energy                               1453.91285106
 One electron energy                         -1932.72490872
 Two electron energy                           540.91437141
 Virial ratio                                    1.95728608
 
 !MCSCF STATE 2.1 Quartet Dipole moment          0.00000000     0.00000000     0.00000000
 Dipole moment /Debye                            0.00000000     0.00000000     0.00000000
 
 Results for state 3.1 Quartet
 =============================
 !MCSCF STATE 3.1 Quartet Energy             -1391.810537309148
 Nuclear energy                                  0.00000000
 Kinetic energy                               1453.91285110
 One electron energy                         -1932.72490880
 Two electron energy                           540.91437149
 Virial ratio                                    1.95728608
 
 !MCSCF STATE 3.1 Quartet Dipole moment          0.00000000     0.00000000     0.00000000
 Dipole moment /Debye                            0.00000000     0.00000000     0.00000000
 
 Results for state 4.1 Quartet
 =============================
 !MCSCF STATE 4.1 Quartet Energy             -1391.810537305967
 Nuclear energy                                  0.00000000
 Kinetic energy                               1453.91285166
 One electron energy                         -1932.72490979
 Two electron energy                           540.91437249
 Virial ratio                                    1.95728608
 
 !MCSCF STATE 4.1 Quartet Dipole moment          0.00000000     0.00000000     0.00000000
 Dipole moment /Debye                            0.00000000     0.00000000     0.00000000
 
 Results for state 5.1 Quartet
 =============================
 !MCSCF STATE 5.1 Quartet Energy             -1391.810537302730
 Nuclear energy                                  0.00000000
 Kinetic energy                               1453.91285237
 One electron energy                         -1932.72491112
 Two electron energy                           540.91437381
 Virial ratio                                    1.95728608
 
 !MCSCF STATE 5.1 Quartet Dipole moment          0.00000000     0.00000000     0.00000000
 Dipole moment /Debye                            0.00000000     0.00000000     0.00000000
 
 Results for state 6.1 Quartet
 =============================
 !MCSCF STATE 6.1 Quartet Energy             -1391.810537299123
 Nuclear energy                                  0.00000000
 Kinetic energy                               1453.91285273
 One electron energy                         -1932.72491177
 Two electron energy                           540.91437447
 Virial ratio                                    1.95728608
 
 !MCSCF STATE 6.1 Quartet Dipole moment          0.00000000     0.00000000     0.00000000
 Dipole moment /Debye                            0.00000000     0.00000000     0.00000000
 
 Results for state 7.1 Quartet
 =============================
 !MCSCF STATE 7.1 Quartet Energy             -1391.810537299058
 Nuclear energy                                  0.00000000
 Kinetic energy                               1453.91285271
 One electron energy                         -1932.72491172
 Two electron energy                           540.91437442
 Virial ratio                                    1.95728608
 
 !MCSCF STATE 7.1 Quartet Dipole moment          0.00000000     0.00000000     0.00000000
 Dipole moment /Debye                            0.00000000     0.00000000     0.00000000
 
 Results for state 8.1 Quartet
 =============================
 !MCSCF STATE 8.1 Quartet Energy             -1391.755316567654
 Nuclear energy                                  0.00000000
 Kinetic energy                               1447.24646820
 One electron energy                         -1916.33944963
 Two electron energy                           524.58413306
 Virial ratio                                    1.96165743
 
 !MCSCF STATE 8.1 Quartet Dipole moment          0.00000000     0.00000000     0.00000000
 Dipole moment /Debye                            0.00000000     0.00000000     0.00000000
 
 Results for state 9.1 Quartet
 =============================
 !MCSCF STATE 9.1 Quartet Energy             -1391.755316517256
 Nuclear energy                                  0.00000000
 Kinetic energy                               1447.24646672
 One electron energy                         -1916.33944693
 Two electron energy                           524.58413041
 Virial ratio                                    1.96165743
 
 !MCSCF STATE 9.1 Quartet Dipole moment          0.00000000     0.00000000     0.00000000
 Dipole moment /Debye                            0.00000000     0.00000000     0.00000000
 
 Results for state 10.1 Quartet
 ==============================
 !MCSCF STATE 10.1 Quartet Energy            -1391.755316515526
 Nuclear energy                                  0.00000000
 Kinetic energy                               1447.24646667
 One electron energy                         -1916.33944684
 Two electron energy                           524.58413032
 Virial ratio                                    1.96165743
 
 !MCSCF STATE 10.1 Quartet Dipole moment         0.00000000     0.00000000     0.00000000
 Dipole moment /Debye                            0.00000000     0.00000000     0.00000000
 
 Results for state 11.1 Quartet
 ==============================
 !MCSCF STATE 11.1 Quartet Energy            -1391.755316496721
 Nuclear energy                                  0.00000000
 Kinetic energy                               1447.24646610
 One electron energy                         -1916.33944582
 Two electron energy                           524.58412933
 Virial ratio                                    1.96165743
 
 !MCSCF STATE 11.1 Quartet Dipole moment         0.00000000     0.00000000     0.00000000
 Dipole moment /Debye                            0.00000000     0.00000000     0.00000000
 
 Results for state 12.1 Quartet
 ==============================
 !MCSCF STATE 12.1 Quartet Energy            -1391.755316471180
 Nuclear energy                                  0.00000000
 Kinetic energy                               1447.24646538
 One electron energy                         -1916.33944449
 Two electron energy                           524.58412801
 Virial ratio                                    1.96165743
 
 !MCSCF STATE 12.1 Quartet Dipole moment         0.00000000     0.00000000     0.00000000
 Dipole moment /Debye                            0.00000000     0.00000000     0.00000000
 
 Results for state 13.1 Quartet
 ==============================
 !MCSCF STATE 13.1 Quartet Energy            -1391.755316460496
 Nuclear energy                                  0.00000000
 Kinetic energy                               1447.24646503
 One electron energy                         -1916.33944386
 Two electron energy                           524.58412740
 Virial ratio                                    1.96165743
 
 !MCSCF STATE 13.1 Quartet Dipole moment         0.00000000     0.00000000     0.00000000
 Dipole moment /Debye                            0.00000000     0.00000000     0.00000000
 
 Results for state 14.1 Quartet
 ==============================
 !MCSCF STATE 14.1 Quartet Energy            -1391.755316459093
 Nuclear energy                                  0.00000000
 Kinetic energy                               1447.24646500
 One electron energy                         -1916.33944380
 Two electron energy                           524.58412735
 Virial ratio                                    1.96165743
 
 !MCSCF STATE 14.1 Quartet Dipole moment         0.00000000     0.00000000     0.00000000
 Dipole moment /Debye                            0.00000000     0.00000000     0.00000000
 
 Results for state 15.1 Quartet
 ==============================
 !MCSCF STATE 15.1 Quartet Energy            -1391.741790325165
 Nuclear energy                                  0.00000000
 Kinetic energy                               1453.90436742
 One electron energy                         -1932.70596198
 Two electron energy                           540.96417165
 Virial ratio                                    1.95724438
 
 !MCSCF STATE 15.1 Quartet Dipole moment         0.00000000     0.00000000     0.00000000
 Dipole moment /Debye                            0.00000000     0.00000000     0.00000000
 
 Results for state 16.1 Quartet
 ==============================
 !MCSCF STATE 16.1 Quartet Energy            -1391.741790324148
 Nuclear energy                                  0.00000000
 Kinetic energy                               1453.90436740
 One electron energy                         -1932.70596192
 Two electron energy                           540.96417160
 Virial ratio                                    1.95724438
 
 !MCSCF STATE 16.1 Quartet Dipole moment         0.00000000     0.00000000     0.00000000
 Dipole moment /Debye                            0.00000000     0.00000000     0.00000000
 
 Results for state 17.1 Quartet
 ==============================
 !MCSCF STATE 17.1 Quartet Energy            -1391.741790319072
 Nuclear energy                                  0.00000000
 Kinetic energy                               1453.90436779
 One electron energy                         -1932.70596264
 Two electron energy                           540.96417233
 Virial ratio                                    1.95724438
 
 !MCSCF STATE 17.1 Quartet Dipole moment         0.00000000     0.00000000     0.00000000
 Dipole moment /Debye                            0.00000000     0.00000000     0.00000000
 
 Results for state 18.1 Quartet
 ==============================
 !MCSCF STATE 18.1 Quartet Energy            -1391.686056256417
 Nuclear energy                                  0.00000000
 Kinetic energy                               1447.23914534
 One electron energy                         -1916.32310904
 Two electron energy                           524.63705279
 Virial ratio                                    1.96161444
 
 !MCSCF STATE 18.1 Quartet Dipole moment         0.00000000     0.00000000     0.00000000
 Dipole moment /Debye                            0.00000000     0.00000000     0.00000000
 
 Results for state 19.1 Quartet
 ==============================
 !MCSCF STATE 19.1 Quartet Energy            -1391.686056254244
 Nuclear energy                                  0.00000000
 Kinetic energy                               1447.23914531
 One electron energy                         -1916.32310899
 Two electron energy                           524.63705273
 Virial ratio                                    1.96161444
 
 !MCSCF STATE 19.1 Quartet Dipole moment         0.00000000     0.00000000     0.00000000
 Dipole moment /Debye                            0.00000000     0.00000000     0.00000000
 
 Results for state 20.1 Quartet
 ==============================
 !MCSCF STATE 20.1 Quartet Energy            -1391.686056246872
 Nuclear energy                                  0.00000000
 Kinetic energy                               1447.23914494
 One electron energy                         -1916.32310832
 Two electron energy                           524.63705207
 Virial ratio                                    1.96161444
 
 !MCSCF STATE 20.1 Quartet Dipole moment         0.00000000     0.00000000     0.00000000
 Dipole moment /Debye                            0.00000000     0.00000000     0.00000000
 
 Results for state 1.1 Doublet
 =============================
 !MCSCF STATE 1.1 Doublet Energy             -1391.788031636814
 Nuclear energy                                  0.00000000
 Kinetic energy                               1453.90910210
 One electron energy                         -1932.71166364
 Two electron energy                           540.92363200
 Virial ratio                                    1.95727307
 
 !MCSCF STATE 1.1 Doublet Dipole moment          0.00000000     0.00000000     0.00000000
 Dipole moment /Debye                            0.00000000     0.00000000     0.00000000
 
 Results for state 2.1 Doublet
 =============================
 !MCSCF STATE 2.1 Doublet Energy             -1391.788031622527
 Nuclear energy                                  0.00000000
 Kinetic energy                               1453.90910357
 One electron energy                         -1932.71166635
 Two electron energy                           540.92363472
 Virial ratio                                    1.95727307
 
 !MCSCF STATE 2.1 Doublet Dipole moment          0.00000000     0.00000000     0.00000000
 Dipole moment /Debye                            0.00000000     0.00000000     0.00000000
 
 Results for state 3.1 Doublet
 =============================
 !MCSCF STATE 3.1 Doublet Energy             -1391.788031622014
 Nuclear energy                                  0.00000000
 Kinetic energy                               1453.90910362
 One electron energy                         -1932.71166643
 Two electron energy                           540.92363481
 Virial ratio                                    1.95727307
 
 !MCSCF STATE 3.1 Doublet Dipole moment          0.00000000     0.00000000     0.00000000
 Dipole moment /Debye                            0.00000000     0.00000000     0.00000000
 
 Results for state 4.1 Doublet
 =============================
 !MCSCF STATE 4.1 Doublet Energy             -1391.788031616670
 Nuclear energy                                  0.00000000
 Kinetic energy                               1453.90910417
 One electron energy                         -1932.71166744
 Two electron energy                           540.92363582
 Virial ratio                                    1.95727307
 
 !MCSCF STATE 4.1 Doublet Dipole moment          0.00000000     0.00000000     0.00000000
 Dipole moment /Debye                            0.00000000     0.00000000     0.00000000
 
 Results for state 5.1 Doublet
 =============================
 !MCSCF STATE 5.1 Doublet Energy             -1391.788031610491
 Nuclear energy                                  0.00000000
 Kinetic energy                               1453.90910489
 One electron energy                         -1932.71166877
 Two electron energy                           540.92363716
 Virial ratio                                    1.95727307
 
 !MCSCF STATE 5.1 Doublet Dipole moment          0.00000000     0.00000000     0.00000000
 Dipole moment /Debye                            0.00000000     0.00000000     0.00000000
 
 Results for state 6.1 Doublet
 =============================
 !MCSCF STATE 6.1 Doublet Energy             -1391.788031605518
 Nuclear energy                                  0.00000000
 Kinetic energy                               1453.90910523
 One electron energy                         -1932.71166939
 Two electron energy                           540.92363778
 Virial ratio                                    1.95727307
 
 !MCSCF STATE 6.1 Doublet Dipole moment          0.00000000     0.00000000     0.00000000
 Dipole moment /Debye                            0.00000000     0.00000000     0.00000000
 
 Results for state 7.1 Doublet
 =============================
 !MCSCF STATE 7.1 Doublet Energy             -1391.788031605494
 Nuclear energy                                  0.00000000
 Kinetic energy                               1453.90910526
 One electron energy                         -1932.71166944
 Two electron energy                           540.92363783
 Virial ratio                                    1.95727307
 
 !MCSCF STATE 7.1 Doublet Dipole moment          0.00000000     0.00000000     0.00000000
 Dipole moment /Debye                            0.00000000     0.00000000     0.00000000
 
 Results for state 8.1 Doublet
 =============================
 !MCSCF STATE 8.1 Doublet Energy             -1391.751906828681
 Nuclear energy                                  0.00000000
 Kinetic energy                               1453.88353475
 One electron energy                         -1932.64150907
 Two electron energy                           540.88960224
 Virial ratio                                    1.95726506
 
 !MCSCF STATE 8.1 Doublet Dipole moment          0.00000000     0.00000000     0.00000000
 Dipole moment /Debye                            0.00000000     0.00000000     0.00000000
 
 Results for state 9.1 Doublet
 =============================
 !MCSCF STATE 9.1 Doublet Energy             -1391.751906825312
 Nuclear energy                                  0.00000000
 Kinetic energy                               1453.88353508
 One electron energy                         -1932.64150967
 Two electron energy                           540.88960285
 Virial ratio                                    1.95726506
 
 !MCSCF STATE 9.1 Doublet Dipole moment          0.00000000     0.00000000     0.00000000
 Dipole moment /Debye                            0.00000000     0.00000000     0.00000000
 
 Results for state 10.1 Doublet
 ==============================
 !MCSCF STATE 10.1 Doublet Energy            -1391.751906824842
 Nuclear energy                                  0.00000000
 Kinetic energy                               1453.88353591
 One electron energy                         -1932.64151117
 Two electron energy                           540.88960434
 Virial ratio                                    1.95726506
 
 !MCSCF STATE 10.1 Doublet Dipole moment         0.00000000     0.00000000     0.00000000
 Dipole moment /Debye                            0.00000000     0.00000000     0.00000000
 
 Results for state 11.1 Doublet
 ==============================
 !MCSCF STATE 11.1 Doublet Energy            -1391.751906823549
 Nuclear energy                                  0.00000000
 Kinetic energy                               1453.88353583
 One electron energy                         -1932.64151104
 Two electron energy                           540.88960422
 Virial ratio                                    1.95726506
 
 !MCSCF STATE 11.1 Doublet Dipole moment         0.00000000     0.00000000     0.00000000
 Dipole moment /Debye                            0.00000000     0.00000000     0.00000000
 
 Results for state 12.1 Doublet
 ==============================
 !MCSCF STATE 12.1 Doublet Energy            -1391.751906823240
 Nuclear energy                                  0.00000000
 Kinetic energy                               1453.88353583
 One electron energy                         -1932.64151104
 Two electron energy                           540.88960422
 Virial ratio                                    1.95726506
 
 !MCSCF STATE 12.1 Doublet Dipole moment         0.00000000     0.00000000     0.00000000
 Dipole moment /Debye                            0.00000000     0.00000000     0.00000000
 
 Results for state 13.1 Doublet
 ==============================
 !MCSCF STATE 13.1 Doublet Energy            -1391.721700887350
 Nuclear energy                                  0.00000000
 Kinetic energy                               1453.61936073
 One electron energy                         -1931.92335102
 Two electron energy                           540.20165013
 Virial ratio                                    1.95741825
 
 !MCSCF STATE 13.1 Doublet Dipole moment         0.00000000     0.00000000     0.00000000
 Dipole moment /Debye                            0.00000000     0.00000000     0.00000000
 
 Results for state 14.1 Doublet
 ==============================
 !MCSCF STATE 14.1 Doublet Energy            -1391.721700886700
 Nuclear energy                                  0.00000000
 Kinetic energy                               1453.61936068
 One electron energy                         -1931.92335088
 Two electron energy                           540.20164999
 Virial ratio                                    1.95741825
 
 !MCSCF STATE 14.1 Doublet Dipole moment         0.00000000     0.00000000     0.00000000
 Dipole moment /Debye                            0.00000000     0.00000000     0.00000000
 
 Results for state 15.1 Doublet
 ==============================
 !MCSCF STATE 15.1 Doublet Energy            -1391.721700880256
 Nuclear energy                                  0.00000000
 Kinetic energy                               1453.61936098
 One electron energy                         -1931.92335138
 Two electron energy                           540.20165050
 Virial ratio                                    1.95741825
 
 !MCSCF STATE 15.1 Doublet Dipole moment         0.00000000     0.00000000     0.00000000
 Dipole moment /Debye                            0.00000000     0.00000000     0.00000000
 
 Results for state 16.1 Doublet
 ==============================
 !MCSCF STATE 16.1 Doublet Energy            -1391.706106947565
 Nuclear energy                                  0.00000000
 Kinetic energy                               1453.70553693
 One electron energy                         -1932.18782084
 Two electron energy                           540.48171390
 Virial ratio                                    1.95735076
 
 !MCSCF STATE 16.1 Doublet Dipole moment         0.00000000     0.00000000     0.00000000
 Dipole moment /Debye                            0.00000000     0.00000000     0.00000000
 
 Results for state 17.1 Doublet
 ==============================
 !MCSCF STATE 17.1 Doublet Energy            -1391.706106947411
 Nuclear energy                                  0.00000000
 Kinetic energy                               1453.70553714
 One electron energy                         -1932.18782126
 Two electron energy                           540.48171431
 Virial ratio                                    1.95735076
 
 !MCSCF STATE 17.1 Doublet Dipole moment         0.00000000     0.00000000     0.00000000
 Dipole moment /Debye                            0.00000000     0.00000000     0.00000000
 
 Results for state 18.1 Doublet
 ==============================
 !MCSCF STATE 18.1 Doublet Energy            -1391.706106946530
 Nuclear energy                                  0.00000000
 Kinetic energy                               1453.70553723
 One electron energy                         -1932.18782142
 Two electron energy                           540.48171447
 Virial ratio                                    1.95735076
 
 !MCSCF STATE 18.1 Doublet Dipole moment         0.00000000     0.00000000     0.00000000
 Dipole moment /Debye                            0.00000000     0.00000000     0.00000000
 
 Results for state 19.1 Doublet
 ==============================
 !MCSCF STATE 19.1 Doublet Energy            -1391.706106945467
 Nuclear energy                                  0.00000000
 Kinetic energy                               1453.70553840
 One electron energy                         -1932.18782379
 Two electron energy                           540.48171684
 Virial ratio                                    1.95735076
 
 !MCSCF STATE 19.1 Doublet Dipole moment         0.00000000     0.00000000     0.00000000
 Dipole moment /Debye                            0.00000000     0.00000000     0.00000000
 
 Results for state 20.1 Doublet
 ==============================
 !MCSCF STATE 20.1 Doublet Energy            -1391.706106945271
 Nuclear energy                                  0.00000000
 Kinetic energy                               1453.70553715
 One electron energy                         -1932.18782123
 Two electron energy                           540.48171428
 Virial ratio                                    1.95735076
 
 !MCSCF STATE 20.1 Doublet Dipole moment         0.00000000     0.00000000     0.00000000
 Dipole moment /Debye                            0.00000000     0.00000000     0.00000000
 
 Results for state 21.1 Doublet
 ==============================
 !MCSCF STATE 21.1 Doublet Energy            -1391.706106942898
 Nuclear energy                                  0.00000000
 Kinetic energy                               1453.70553829
 One electron energy                         -1932.18782350
 Two electron energy                           540.48171656
 Virial ratio                                    1.95735076
 
 !MCSCF STATE 21.1 Doublet Dipole moment         0.00000000     0.00000000     0.00000000
 Dipole moment /Debye                            0.00000000     0.00000000     0.00000000
 
 Results for state 22.1 Doublet
 ==============================
 !MCSCF STATE 22.1 Doublet Energy            -1391.706106942893
 Nuclear energy                                  0.00000000
 Kinetic energy                               1453.70553810
 One electron energy                         -1932.18782311
 Two electron energy                           540.48171617
 Virial ratio                                    1.95735076
 
 !MCSCF STATE 22.1 Doublet Dipole moment         0.00000000     0.00000000     0.00000000
 Dipole moment /Debye                            0.00000000     0.00000000     0.00000000
 
 Results for state 23.1 Doublet
 ==============================
 !MCSCF STATE 23.1 Doublet Energy            -1391.706106939338
 Nuclear energy                                  0.00000000
 Kinetic energy                               1453.70553747
 One electron energy                         -1932.18782173
 Two electron energy                           540.48171479
 Virial ratio                                    1.95735076
 
 !MCSCF STATE 23.1 Doublet Dipole moment         0.00000000     0.00000000     0.00000000
 Dipole moment /Debye                            0.00000000     0.00000000     0.00000000
 
 Results for state 24.1 Doublet
 ==============================
 !MCSCF STATE 24.1 Doublet Energy            -1391.706106939302
 Nuclear energy                                  0.00000000
 Kinetic energy                               1453.70553746
 One electron energy                         -1932.18782172
 Two electron energy                           540.48171478
 Virial ratio                                    1.95735076
 
 !MCSCF STATE 24.1 Doublet Dipole moment         0.00000000     0.00000000     0.00000000
 Dipole moment /Debye                            0.00000000     0.00000000     0.00000000
 
 State-averaged charge density matrix saved on record 2141.2 (density set 1)
 
 No non-zero expectation values
 
 Expectation values for two-electron operators:
 
 ? Warning
 ? Transition properties are only calculated between states of the same symmetry
 ? The problem occurs in mu_properties_expec2

 !MCSCF expec      <1.1 Quartet|LXLX|1.1 Quartet>     4.000000000000
 !MCSCF expec      <2.1 Quartet|LXLX|2.1 Quartet>     4.847185894202
 !MCSCF expec      <3.1 Quartet|LXLX|3.1 Quartet>     3.967289920877
 !MCSCF expec      <4.1 Quartet|LXLX|4.1 Quartet>     4.482057109681
 !MCSCF expec      <5.1 Quartet|LXLX|5.1 Quartet>     5.518096998732
 !MCSCF expec      <6.1 Quartet|LXLX|6.1 Quartet>     5.152785622982
 !MCSCF expec      <7.1 Quartet|LXLX|7.1 Quartet>     0.032711448701
 !MCSCF expec      <8.1 Quartet|LXLX|8.1 Quartet>     4.000000000001
 !MCSCF expec      <9.1 Quartet|LXLX|9.1 Quartet>     3.946803758914
 !MCSCF expec    <10.1 Quartet|LXLX|10.1 Quartet>     3.999964010582
 !MCSCF expec    <11.1 Quartet|LXLX|11.1 Quartet>     3.928867435896
 !MCSCF expec    <12.1 Quartet|LXLX|12.1 Quartet>     6.071140058156
 !MCSCF expec    <13.1 Quartet|LXLX|13.1 Quartet>     0.000036027414
 !MCSCF expec    <14.1 Quartet|LXLX|14.1 Quartet>     6.053195877093
 !MCSCF expec    <15.1 Quartet|LXLX|15.1 Quartet>     0.000000000513
 !MCSCF expec    <16.1 Quartet|LXLX|16.1 Quartet>     0.999999998133
 !MCSCF expec    <17.1 Quartet|LXLX|17.1 Quartet>     0.999999999892
 !MCSCF expec    <18.1 Quartet|LXLX|18.1 Quartet>     0.999999999555
 !MCSCF expec    <19.1 Quartet|LXLX|19.1 Quartet>     0.000000000947
 !MCSCF expec    <20.1 Quartet|LXLX|20.1 Quartet>     0.999999999614
 !MCSCF expec      <1.1 Doublet|LXLX|1.1 Doublet>     4.000000000003
 !MCSCF expec      <2.1 Doublet|LXLX|2.1 Doublet>     4.516044608539
 !MCSCF expec      <3.1 Doublet|LXLX|3.1 Doublet>     3.987346390093
 !MCSCF expec      <4.1 Doublet|LXLX|4.1 Doublet>     4.238446831120
 !MCSCF expec      <5.1 Doublet|LXLX|5.1 Doublet>     5.761462744668
 !MCSCF expec      <6.1 Doublet|LXLX|6.1 Doublet>     0.012721169891
 !MCSCF expec      <7.1 Doublet|LXLX|7.1 Doublet>     5.483905357656
 !MCSCF expec      <8.1 Doublet|LXLX|8.1 Doublet>     0.885810034296
 !MCSCF expec      <9.1 Doublet|LXLX|9.1 Doublet>     3.114174324468
 !MCSCF expec    <10.1 Doublet|LXLX|10.1 Doublet>     1.000000000567
 !MCSCF expec    <11.1 Doublet|LXLX|11.1 Doublet>     1.000000147326
 !MCSCF expec    <12.1 Doublet|LXLX|12.1 Doublet>     3.999999451133
 !MCSCF expec    <13.1 Doublet|LXLX|13.1 Doublet>     0.000000457784
 !MCSCF expec    <14.1 Doublet|LXLX|14.1 Doublet>     0.999999238107
 !MCSCF expec    <15.1 Doublet|LXLX|15.1 Doublet>     0.999999999071
 !MCSCF expec    <16.1 Doublet|LXLX|16.1 Doublet>    13.344247010956
 !MCSCF expec    <17.1 Doublet|LXLX|17.1 Doublet>    15.071236443812
 !MCSCF expec    <18.1 Doublet|LXLX|18.1 Doublet>     5.278200053446
 !MCSCF expec    <19.1 Doublet|LXLX|19.1 Doublet>     8.197141978935
 !MCSCF expec    <20.1 Doublet|LXLX|20.1 Doublet>     4.855796773976
 !MCSCF expec    <21.1 Doublet|LXLX|21.1 Doublet>     4.928742303445
 !MCSCF expec    <22.1 Doublet|LXLX|22.1 Doublet>     4.721926706145
 !MCSCF expec    <23.1 Doublet|LXLX|23.1 Doublet>     1.802900029900
 !MCSCF expec    <24.1 Doublet|LXLX|24.1 Doublet>     1.799806518627
 
 !MCSCF expec      <1.1 Quartet|LYLY|1.1 Quartet>     4.000000000000
 !MCSCF expec      <2.1 Quartet|LYLY|2.1 Quartet>     3.954179756030
 !MCSCF expec      <3.1 Quartet|LYLY|3.1 Quartet>     4.713950100375
 !MCSCF expec      <4.1 Quartet|LYLY|4.1 Quartet>     3.533011128549
 !MCSCF expec      <5.1 Quartet|LYLY|5.1 Quartet>     6.466844280209
 !MCSCF expec      <6.1 Quartet|LYLY|6.1 Quartet>     0.045837536087
 !MCSCF expec      <7.1 Quartet|LYLY|7.1 Quartet>     5.286041715702
 !MCSCF expec      <8.1 Quartet|LYLY|8.1 Quartet>     4.000000000005
 !MCSCF expec      <9.1 Quartet|LYLY|9.1 Quartet>     3.999810662388
 !MCSCF expec    <10.1 Quartet|LYLY|10.1 Quartet>     3.976783365406
 !MCSCF expec    <11.1 Quartet|LYLY|11.1 Quartet>     4.071471524889
 !MCSCF expec    <12.1 Quartet|LYLY|12.1 Quartet>     5.928520905854
 !MCSCF expec    <13.1 Quartet|LYLY|13.1 Quartet>     6.023218460193
 !MCSCF expec    <14.1 Quartet|LYLY|14.1 Quartet>     0.000189364684
 !MCSCF expec    <15.1 Quartet|LYLY|15.1 Quartet>     0.999999999681
 !MCSCF expec    <16.1 Quartet|LYLY|16.1 Quartet>     0.000000002049
 !MCSCF expec    <17.1 Quartet|LYLY|17.1 Quartet>     0.999999999771
 !MCSCF expec    <18.1 Quartet|LYLY|18.1 Quartet>     0.000000000662
 !MCSCF expec    <19.1 Quartet|LYLY|19.1 Quartet>     0.999999999480
 !MCSCF expec    <20.1 Quartet|LYLY|20.1 Quartet>     0.999999999704
 !MCSCF expec      <1.1 Doublet|LYLY|1.1 Doublet>     4.000000000002
 !MCSCF expec      <2.1 Doublet|LYLY|2.1 Doublet>     3.982760434660
 !MCSCF expec      <3.1 Doublet|LYLY|3.1 Doublet>     4.441303579629
 !MCSCF expec      <4.1 Doublet|LYLY|4.1 Doublet>     3.765287973995
 !MCSCF expec      <5.1 Doublet|LYLY|5.1 Doublet>     6.234799626668
 !MCSCF expec      <6.1 Doublet|LYLY|6.1 Doublet>     5.558629677582
 !MCSCF expec      <7.1 Doublet|LYLY|7.1 Doublet>     0.017286471202
 !MCSCF expec      <8.1 Doublet|LYLY|8.1 Doublet>     1.118715498788
 !MCSCF expec      <9.1 Doublet|LYLY|9.1 Doublet>     2.881301407715
 !MCSCF expec    <10.1 Doublet|LYLY|10.1 Doublet>     1.000000087651
 !MCSCF expec    <11.1 Doublet|LYLY|11.1 Doublet>     3.999999796191
 !MCSCF expec    <12.1 Doublet|LYLY|12.1 Doublet>     1.000000546880
 !MCSCF expec    <13.1 Doublet|LYLY|13.1 Doublet>     0.999999543085
 !MCSCF expec    <14.1 Doublet|LYLY|14.1 Doublet>     0.000000763211
 !MCSCF expec    <15.1 Doublet|LYLY|15.1 Doublet>     0.999999998481
 !MCSCF expec    <16.1 Doublet|LYLY|16.1 Doublet>     6.364839108039
 !MCSCF expec    <17.1 Doublet|LYLY|17.1 Doublet>     3.878378529680
 !MCSCF expec    <18.1 Doublet|LYLY|18.1 Doublet>    13.646041764336
 !MCSCF expec    <19.1 Doublet|LYLY|19.1 Doublet>     7.784595045522
 !MCSCF expec    <20.1 Doublet|LYLY|20.1 Doublet>    11.416434476608
 !MCSCF expec    <21.1 Doublet|LYLY|21.1 Doublet>     6.121646904600
 !MCSCF expec    <22.1 Doublet|LYLY|22.1 Doublet>     6.353808987827
 !MCSCF expec    <23.1 Doublet|LYLY|23.1 Doublet>     2.215354786849
 !MCSCF expec    <24.1 Doublet|LYLY|24.1 Doublet>     2.218905805124
 
 !MCSCF expec      <1.1 Quartet|LZLZ|1.1 Quartet>     4.000000000001
 !MCSCF expec      <2.1 Quartet|LZLZ|2.1 Quartet>     3.198634349769
 !MCSCF expec      <3.1 Quartet|LZLZ|3.1 Quartet>     3.318759978749
 !MCSCF expec      <4.1 Quartet|LZLZ|4.1 Quartet>     3.984931761772
 !MCSCF expec      <5.1 Quartet|LZLZ|5.1 Quartet>     0.015058721061
 !MCSCF expec      <6.1 Quartet|LZLZ|6.1 Quartet>     6.801376840932
 !MCSCF expec      <7.1 Quartet|LZLZ|7.1 Quartet>     6.681246835598
 !MCSCF expec      <8.1 Quartet|LZLZ|8.1 Quartet>     3.999999999995
 !MCSCF expec      <9.1 Quartet|LZLZ|9.1 Quartet>     4.053385578700
 !MCSCF expec    <10.1 Quartet|LZLZ|10.1 Quartet>     4.023252624013
 !MCSCF expec    <11.1 Quartet|LZLZ|11.1 Quartet>     3.999661039216
 !MCSCF expec    <12.1 Quartet|LZLZ|12.1 Quartet>     0.000339035991
 !MCSCF expec    <13.1 Quartet|LZLZ|13.1 Quartet>     5.976745512393
 !MCSCF expec    <14.1 Quartet|LZLZ|14.1 Quartet>     5.946614758222
 !MCSCF expec    <15.1 Quartet|LZLZ|15.1 Quartet>     0.999999999808
 !MCSCF expec    <16.1 Quartet|LZLZ|16.1 Quartet>     0.999999999820
 !MCSCF expec    <17.1 Quartet|LZLZ|17.1 Quartet>     0.000000000339
 !MCSCF expec    <18.1 Quartet|LZLZ|18.1 Quartet>     0.999999999786
 !MCSCF expec    <19.1 Quartet|LZLZ|19.1 Quartet>     0.999999999576
 !MCSCF expec    <20.1 Quartet|LZLZ|20.1 Quartet>     0.000000000684
 !MCSCF expec      <1.1 Doublet|LZLZ|1.1 Doublet>     3.999999999996
 !MCSCF expec      <2.1 Doublet|LZLZ|2.1 Doublet>     3.501194956802
 !MCSCF expec      <3.1 Doublet|LZLZ|3.1 Doublet>     3.571350030280
 !MCSCF expec      <4.1 Doublet|LZLZ|4.1 Doublet>     3.996265194886
 !MCSCF expec      <5.1 Doublet|LZLZ|5.1 Doublet>     0.003737628666
 !MCSCF expec      <6.1 Doublet|LZLZ|6.1 Doublet>     6.428649152528
 !MCSCF expec      <7.1 Doublet|LZLZ|7.1 Doublet>     6.498808171144
 !MCSCF expec      <8.1 Doublet|LZLZ|8.1 Doublet>     3.995474466918
 !MCSCF expec      <9.1 Doublet|LZLZ|9.1 Doublet>     0.004524267819
 !MCSCF expec    <10.1 Doublet|LZLZ|10.1 Doublet>     3.999999911784
 !MCSCF expec    <11.1 Doublet|LZLZ|11.1 Doublet>     1.000000056485
 !MCSCF expec    <12.1 Doublet|LZLZ|12.1 Doublet>     1.000000001989
 !MCSCF expec    <13.1 Doublet|LZLZ|13.1 Doublet>     0.999999999134
 !MCSCF expec    <14.1 Doublet|LZLZ|14.1 Doublet>     0.999999998685
 !MCSCF expec    <15.1 Doublet|LZLZ|15.1 Doublet>     0.000000002452
 !MCSCF expec    <16.1 Doublet|LZLZ|16.1 Doublet>     0.290913881006
 !MCSCF expec    <17.1 Doublet|LZLZ|17.1 Doublet>     1.050385026509
 !MCSCF expec    <18.1 Doublet|LZLZ|18.1 Doublet>     1.075758182220
 !MCSCF expec    <19.1 Doublet|LZLZ|19.1 Doublet>     4.018262975544
 !MCSCF expec    <20.1 Doublet|LZLZ|20.1 Doublet>     3.727768749417
 !MCSCF expec    <21.1 Doublet|LZLZ|21.1 Doublet>     8.949610791957
 !MCSCF expec    <22.1 Doublet|LZLZ|22.1 Doublet>     8.924264306028
 !MCSCF expec    <23.1 Doublet|LZLZ|23.1 Doublet>    15.981745183251
 !MCSCF expec    <24.1 Doublet|LZLZ|24.1 Doublet>    15.981287676249
 
 !MCSCF expec      <1.1 Quartet|L**2|1.1 Quartet>    12.000000000001
 !MCSCF expec      <2.1 Quartet|L**2|2.1 Quartet>    12.000000000001
 !MCSCF expec      <3.1 Quartet|L**2|3.1 Quartet>    12.000000000001
 !MCSCF expec      <4.1 Quartet|L**2|4.1 Quartet>    12.000000000001
 !MCSCF expec      <5.1 Quartet|L**2|5.1 Quartet>    12.000000000002
 !MCSCF expec      <6.1 Quartet|L**2|6.1 Quartet>    12.000000000001
 !MCSCF expec      <7.1 Quartet|L**2|7.1 Quartet>    12.000000000001
 !MCSCF expec      <8.1 Quartet|L**2|8.1 Quartet>    12.000000000001
 !MCSCF expec      <9.1 Quartet|L**2|9.1 Quartet>    12.000000000001
 !MCSCF expec    <10.1 Quartet|L**2|10.1 Quartet>    12.000000000001
 !MCSCF expec    <11.1 Quartet|L**2|11.1 Quartet>    12.000000000001
 !MCSCF expec    <12.1 Quartet|L**2|12.1 Quartet>    12.000000000001
 !MCSCF expec    <13.1 Quartet|L**2|13.1 Quartet>    12.000000000000
 !MCSCF expec    <14.1 Quartet|L**2|14.1 Quartet>    12.000000000000
 !MCSCF expec    <15.1 Quartet|L**2|15.1 Quartet>     2.000000000002
 !MCSCF expec    <16.1 Quartet|L**2|16.1 Quartet>     2.000000000002
 !MCSCF expec    <17.1 Quartet|L**2|17.1 Quartet>     2.000000000002
 !MCSCF expec    <18.1 Quartet|L**2|18.1 Quartet>     2.000000000003
 !MCSCF expec    <19.1 Quartet|L**2|19.1 Quartet>     2.000000000003
 !MCSCF expec    <20.1 Quartet|L**2|20.1 Quartet>     2.000000000002
 !MCSCF expec      <1.1 Doublet|L**2|1.1 Doublet>    12.000000000001
 !MCSCF expec      <2.1 Doublet|L**2|2.1 Doublet>    12.000000000001
 !MCSCF expec      <3.1 Doublet|L**2|3.1 Doublet>    12.000000000001
 !MCSCF expec      <4.1 Doublet|L**2|4.1 Doublet>    12.000000000001
 !MCSCF expec      <5.1 Doublet|L**2|5.1 Doublet>    12.000000000002
 !MCSCF expec      <6.1 Doublet|L**2|6.1 Doublet>    12.000000000001
 !MCSCF expec      <7.1 Doublet|L**2|7.1 Doublet>    12.000000000001
 !MCSCF expec      <8.1 Doublet|L**2|8.1 Doublet>     6.000000000002
 !MCSCF expec      <9.1 Doublet|L**2|9.1 Doublet>     6.000000000002
 !MCSCF expec    <10.1 Doublet|L**2|10.1 Doublet>     6.000000000002
 !MCSCF expec    <11.1 Doublet|L**2|11.1 Doublet>     6.000000000002
 !MCSCF expec    <12.1 Doublet|L**2|12.1 Doublet>     6.000000000002
 !MCSCF expec    <13.1 Doublet|L**2|13.1 Doublet>     2.000000000003
 !MCSCF expec    <14.1 Doublet|L**2|14.1 Doublet>     2.000000000003
 !MCSCF expec    <15.1 Doublet|L**2|15.1 Doublet>     2.000000000003
 !MCSCF expec    <16.1 Doublet|L**2|16.1 Doublet>    20.000000000001
 !MCSCF expec    <17.1 Doublet|L**2|17.1 Doublet>    20.000000000001
 !MCSCF expec    <18.1 Doublet|L**2|18.1 Doublet>    20.000000000001
 !MCSCF expec    <19.1 Doublet|L**2|19.1 Doublet>    20.000000000001
 !MCSCF expec    <20.1 Doublet|L**2|20.1 Doublet>    20.000000000001
 !MCSCF expec    <21.1 Doublet|L**2|21.1 Doublet>    20.000000000001
 !MCSCF expec    <22.1 Doublet|L**2|22.1 Doublet>    20.000000000001
 !MCSCF expec    <23.1 Doublet|L**2|23.1 Doublet>    20.000000000000
 !MCSCF expec    <24.1 Doublet|L**2|24.1 Doublet>    20.000000000000
 
 ? Warning
 ? Extra symmerty contamination removed!
 ? The problem occurs in mu_orbitals_clean_extra
 EXTRA SYMMETRY OF MOS IN SYMMETRY 1:   1 1 1 2 3 6 5 4 1 1   2 5 6 3 4 1 2 5 6 3   4 2 6 5 3 4 1111514  121013 8 7 9 6 2 5 3
                                        4 1111415121310 8 7   9 6 5 3 2 4 1111415  121013 8 7 9 6 5 3 2   4 1
 EXTRA SYMMETRY OF MOS IN SYMMETRY 2:   2 3 1 2 3 1 2 3 1 2   3 1 2 3 1 5 8 7 9 6  10 4 3 2 1 5 6 9 710   8 4 2 3 1 5 9 710 6
                                        8 41217151614131820  211911 2 3 1 510 8 7   9 6 412171514161320  18211911 2 3 1
 
  NATURAL ORBITALS (STATE AVERAGED)
  =================================

  Orbital  Occupation    Energy    Cen Mu Typ  Coefficients
    1.1     2.00000  -285.57410     1  1  s    0.96113
    2.1     2.00000   -35.18893     1  2  s    1.01439
    3.1     1.99999    -4.45858     1  3  s    0.98601
    4.1     1.59715    -0.24698     1  1  d0   0.99988
    5.1     1.59715    -0.24698     1  1  d2-  0.99988
    6.1     1.59715    -0.24698     1  1  d1-  0.99988
    7.1     1.59715    -0.24698     1  1  d2+  0.99988
    8.1     1.59715    -0.24698     1  1  d1+  0.99988
    9.1     1.01435    -0.09903     1  4  s    0.96490
    1.2     2.00000   -29.94397     1  1  py   0.99912
    2.2     2.00000   -29.94397     1  1  pz   0.99912
    3.2     2.00000   -29.94397     1  1  px   0.99912
    4.2     1.99997    -2.89730     1  2  py   0.99984
    5.2     1.99997    -2.89730     1  2  pz   0.99984
    6.2     1.99997    -2.89730     1  2  px   0.99984
 
 Natural orbital dump (state averaged) at molpro section 2141.2 (Orbital set 2)
 
 Transform the CI vectors
 
 CI Coefficients of symmetry 1 (Quartet)
 =======================================

 State:                1               2               3               4               5               6               7
 2a22a2a 222      1.00000000      0.00000000      0.00000000     -0.00000000     -0.00000000     -0.00000000      0.00000000
 22aa2a2 222     -0.00000000      0.00000000     -0.00000000     -0.00000000     -0.00000000     -0.00000000     -0.00000000
 222aaa2 222     -0.00000000     -0.00000000      0.00000000      0.00000000      0.00000001     -0.00000000     -0.00000000
 2aa222a 222      0.00000000      0.00003178     -0.00001339      0.99811469     -0.06137637      0.00002034      0.00000364
 2a2aa22 222      0.00000000      0.00000000     -0.00000001     -0.00000000      0.00000000     -0.00000000     -0.00000001
 2a22aa2 222      0.00000000      0.00000000      0.00000000     -0.00000000      0.00000000      0.00000000     -0.00000000
 2aa2a22 222      0.00000000      0.00000000      0.00000000     -0.00000001      0.00000001     -0.00000000     -0.00000000
 22a2a2a 222     -0.00000000     -0.00000241     -0.00000839     -0.02744835     -0.44637043      0.00001153     -0.00000583
 2a2a2a2 222     -0.00000000      0.00000000     -0.00000000      0.00000000      0.00000000      0.00000000      0.00000000
 222a2aa 222      0.00000000      0.00000482      0.00001679      0.05489669      0.89274093     -0.00002307      0.00001167
 22a22aa 222     -0.00000000     -0.00000373      0.08088271     -0.00000299     -0.00001294      0.00155206      0.89076120
 22aa22a 222      0.00000000      0.09572902      0.00000511     -0.00001971      0.00002369      0.88928820     -0.00154955
 2aaa222 222     -0.00000000      0.00000000      0.00000000     -0.00000000     -0.00000000     -0.00000001      0.00000000
 2aa22a2 222     -0.00000000      0.00000000      0.00000000      0.00000000      0.00000000     -0.00000000     -0.00000001
 222aa2a 222     -0.00000000     -0.00002082      0.84225646      0.00001163     -0.00001263     -0.00052709     -0.30100458
 2222aaa 222     -0.00000000      0.83711865      0.00002030     -0.00002094     -0.00001138     -0.31501118      0.00055054
 2a222aa 222      0.00000000      0.53857990      0.00001467     -0.00002347      0.00000711      0.33155906     -0.00057678
 2a2a22a 222     -0.00000000     -0.00001417      0.53297469      0.00000499     -0.00001476      0.00059177      0.34049623
 22a2aa2 222     -0.00000000     -0.00000000      0.00000001      0.00000000      0.00000000      0.00000000      0.00000000
 22aaa22 222     -0.00000000      0.00000000     -0.00000000      0.00000000     -0.00000000     -0.00000001      0.00000000
 
 Energy:      -1391.81053732  -1391.81053731  -1391.81053731  -1391.81053731  -1391.81053730  -1391.81053730  -1391.81053730

 State:                8               9              10              11              12              13              14
 2a22a2a 222     -0.00000000      0.00000000      0.00000000     -0.00000000     -0.00000000     -0.00000000     -0.00000000
 22aa2a2 222      0.99956088     -0.00000014     -0.00000167     -0.00000000     -0.00000062     -0.00000031     -0.00000005
 222aaa2 222     -0.00000000      0.00000117      0.00000873      0.99951853     -0.00920140     -0.00000108      0.00000031
 2aa222a 222      0.00000000      0.00000000     -0.00000000      0.00000000      0.00000001      0.00000000      0.00000000
 2a2aa22 222      0.00000027      0.00000059     -0.00268174      0.00000084     -0.00001644      0.89403025     -0.00006264
 2a22aa2 222      0.00000005     -0.00615094      0.00000068     -0.00000039     -0.00001310      0.00006265      0.89401309
 2aa2a22 222      0.00000056     -0.00000080     -0.00000137      0.00822998      0.89399647      0.00001643      0.00001310
 22a2a2a 222      0.00000000     -0.00000000      0.00000000      0.00000003     -0.00000010      0.00000000     -0.00000000
 2a2a2a2 222     -0.00000028      0.00000040      0.00000069     -0.00411500     -0.44699844     -0.00000822     -0.00000655
 222a2aa 222      0.00000000     -0.00000000      0.00000000      0.00000000     -0.00000006      0.00000000     -0.00000000
 22a22aa 222      0.00000000      0.00000000     -0.00000001      0.00000000     -0.00000000      0.00000005     -0.00000000
 22aa22a 222      0.00000000     -0.00000001     -0.00000000     -0.00000000     -0.00000000      0.00000000      0.00000001
 2aaa222 222      0.00000011      0.86716236      0.00009680     -0.00000091      0.00000398     -0.00001552     -0.21754786
 2aa22a2 222      0.00000138     -0.00009711      0.86631165     -0.00000775      0.00000546     -0.22091118      0.00001415
 222aa2a 222      0.00000000      0.00000000     -0.00000003     -0.00000000     -0.00000000      0.00000006     -0.00000000
 2222aaa 222      0.00000000     -0.00000001     -0.00000000     -0.00000000     -0.00000000      0.00000000      0.00000002
 2a222aa 222     -0.00000000      0.00000002      0.00000000      0.00000000      0.00000000     -0.00000000     -0.00000004
 2a2a22a 222     -0.00000000     -0.00000000      0.00000005      0.00000000      0.00000000     -0.00000007      0.00000000
 22a2aa2 222     -0.00000095      0.00005573     -0.49861696      0.00000399      0.00000634     -0.38862593      0.00002800
 22aaa22 222     -0.00000009     -0.49710516     -0.00005628      0.00000075      0.00000527     -0.00002721     -0.39055789
 
 Energy:      -1391.75531657  -1391.75531652  -1391.75531652  -1391.75531650  -1391.75531647  -1391.75531646  -1391.75531646

 State:               15              16              17              18              19              20
 2a22a2a 222      0.00000000     -0.00000000      0.00000000     -0.00000000     -0.00000000     -0.00000000
 22aa2a2 222      0.00000000      0.00000000     -0.00000000     -0.00000000     -0.00000000      0.00000000
 222aaa2 222     -0.00000000     -0.00000000     -0.00000003     -0.00000000      0.00000000      0.00000001
 2aa222a 222      0.00000000     -0.00000000      0.00000001      0.00000000     -0.00000000      0.00000000
 2a2aa22 222      0.00015852      0.00000000     -0.00000000      0.00000943      0.44672640      0.00000921
 2a22aa2 222     -0.00000000      0.00015847      0.00000000      0.44672643     -0.00000943      0.00000656
 2aa2a22 222      0.00000000     -0.00000000      0.00015853     -0.00000656     -0.00000921      0.44672624
 22a2a2a 222      0.00001241     -0.00001203      0.89375181      0.00000000      0.00000001     -0.00032417
 2a2a2a2 222      0.00000000     -0.00000000      0.00031679     -0.00001312     -0.00001843      0.89345208
 222a2aa 222      0.00000620     -0.00000601      0.44687587      0.00000000      0.00000000     -0.00016209
 22a22aa 222     -0.44687596     -0.00000799      0.00000620      0.00000000      0.00016209      0.00000000
 22aa22a 222      0.00000799     -0.44687595     -0.00000601      0.00016211     -0.00000000      0.00000000
 2aaa222 222     -0.00000000      0.00015839      0.00000000      0.44672598     -0.00000943      0.00000656
 2aa22a2 222      0.00015835      0.00000000     -0.00000000      0.00000943      0.44672600      0.00000921
 222aa2a 222     -0.44687591     -0.00000799      0.00000620      0.00000000      0.00016209      0.00000000
 2222aaa 222      0.00000799     -0.44687591     -0.00000601      0.00016209     -0.00000000      0.00000000
 2a222aa 222     -0.00001385      0.77401173      0.00001042     -0.00028075      0.00000001     -0.00000000
 2a2a22a 222      0.77401172      0.00001385     -0.00001074     -0.00000001     -0.00028074     -0.00000001
 22a2aa2 222      0.00027438      0.00000000     -0.00000000      0.00001634      0.77375213      0.00001596
 22aaa22 222     -0.00000000      0.00027440      0.00000000      0.77375212     -0.00001634      0.00001136
 
 Energy:      -1391.74179033  -1391.74179032  -1391.74179032  -1391.68605626  -1391.68605625  -1391.68605625
 
 
 CI Coefficients of symmetry 1 (Doublet)
 =======================================

[...]
   82    2.1  0.5  0.5   0.000%   0.000%   0.000%   0.000%   0.000%   0.000%   0.000%   0.000%   0.000%   0.000%
   83    3.1  0.5  0.5   0.000%   0.000%   0.000%   0.000%   0.000%   0.000%   0.000%   0.000%   0.000%   0.000%
   84    4.1  0.5  0.5   0.000%   0.000%   0.000%   0.000%   0.000%   0.000%   0.000%   0.000%   0.000%   0.000%
   85    5.1  0.5  0.5   0.000%   0.000%   0.000%   0.000%   0.000%   0.000%   0.000%   0.000%   0.000%   0.000%
   86    6.1  0.5  0.5   0.000%   0.000%   0.000%   0.000%   0.000%   0.000%   0.000%   0.000%   0.000%   0.000%
   87    7.1  0.5  0.5   0.000%   0.000%   0.000%   0.000%   0.000%   0.000%   0.000%   0.000%   0.000%   0.000%
   88    8.1  0.5  0.5   0.000%   0.000%   0.000%   0.000%   0.000%   0.000%   0.000%   0.000%   0.000%   0.000%
   89    9.1  0.5  0.5   0.000%   0.000%   0.000%   0.000%   0.000%   0.000%   0.000%   0.000%   0.000%   0.000%
   90   10.1  0.5  0.5   0.000%   0.000%   0.000%   0.000%   0.000%   0.000%   0.000%   0.000%   0.000%   0.000%
   91   11.1  0.5  0.5   0.000%   0.000%   0.000%   0.000%   0.000%   0.000%   0.000%   0.000%   0.000%   0.000%
   92   12.1  0.5  0.5   0.000%   0.000%   0.000%   0.000%   0.000%   0.000%   0.000%   0.000%   0.000%   0.000%
   93   13.1  0.5  0.5   0.000%   0.000%   0.000%   0.000%   0.000%   0.000%   0.000%   0.000%   0.000%   0.000%
   94   14.1  0.5  0.5   0.000%   0.000%   0.000%   0.000%   0.000%   0.000%   0.000%   0.000%   0.000%   0.000%
   95   15.1  0.5  0.5   0.000%   0.000%   0.000%   0.000%   0.000%   0.000%   0.000%   0.000%   0.000%   0.000%
   96   16.1  0.5  0.5   0.001%  52.371%   0.000%   2.066%   0.001%   1.028%   0.000%   0.259%   0.000%   0.005%
   97   17.1  0.5  0.5  18.525%   0.000%  27.766%   0.008%   8.274%   0.001%   0.156%   0.001%   0.867%   0.001%
   98   18.1  0.5  0.5   0.014%   0.001%  53.158%   0.012%   0.225%   0.002%   0.513%   0.001%   1.565%   0.005%
   99   19.1  0.5  0.5  18.294%   0.000%   0.009%   0.003%  34.238%   0.010%   1.475%   0.001%   1.385%   0.000%
  100   20.1  0.5  0.5   0.001%   8.986%   0.009%  16.783%   0.010%  25.314%   0.000%   3.975%   0.003%   0.517%
  101   21.1  0.5  0.5   0.043%   0.000%   0.036%   0.000%  20.454%   0.001%  34.813%   0.000%   0.298%   0.003%
  102   22.1  0.5  0.5   0.000%   0.608%   0.000%   0.010%   0.000%   4.010%   0.000%  49.602%   0.010%   1.008%
  103   23.1  0.5  0.5   0.309%   0.000%   0.068%   0.000%   4.278%   0.003%   1.596%   0.021%  49.132%   0.058%
  104   24.1  0.5  0.5   0.000%   0.779%   0.000%   0.005%   0.004%   2.081%   0.012%   7.508%   0.091%  44.985%
  105    1.1  0.5 -0.5   0.000%   0.000%   0.000%   0.000%   0.000%   0.000%   0.000%   0.000%   0.000%   0.000%
  106    2.1  0.5 -0.5   0.000%   0.000%   0.000%   0.000%   0.000%   0.000%   0.000%   0.000%   0.000%   0.000%
  107    3.1  0.5 -0.5   0.000%   0.000%   0.000%   0.000%   0.000%   0.000%   0.000%   0.000%   0.000%   0.000%
  108    4.1  0.5 -0.5   0.000%   0.000%   0.000%   0.000%   0.000%   0.000%   0.000%   0.000%   0.000%   0.000%
  109    5.1  0.5 -0.5   0.000%   0.000%   0.000%   0.000%   0.000%   0.000%   0.000%   0.000%   0.000%   0.000%
  110    6.1  0.5 -0.5   0.000%   0.000%   0.000%   0.000%   0.000%   0.000%   0.000%   0.000%   0.000%   0.000%
  111    7.1  0.5 -0.5   0.000%   0.000%   0.000%   0.000%   0.000%   0.000%   0.000%   0.000%   0.000%   0.000%
  112    8.1  0.5 -0.5   0.000%   0.000%   0.000%   0.000%   0.000%   0.000%   0.000%   0.000%   0.000%   0.000%
  113    9.1  0.5 -0.5   0.000%   0.000%   0.000%   0.000%   0.000%   0.000%   0.000%   0.000%   0.000%   0.000%
  114   10.1  0.5 -0.5   0.000%   0.000%   0.000%   0.000%   0.000%   0.000%   0.000%   0.000%   0.000%   0.000%
  115   11.1  0.5 -0.5   0.000%   0.000%   0.000%   0.000%   0.000%   0.000%   0.000%   0.000%   0.000%   0.000%
  116   12.1  0.5 -0.5   0.000%   0.000%   0.000%   0.000%   0.000%   0.000%   0.000%   0.000%   0.000%   0.000%
  117   13.1  0.5 -0.5   0.000%   0.000%   0.000%   0.000%   0.000%   0.000%   0.000%   0.000%   0.000%   0.000%
  118   14.1  0.5 -0.5   0.000%   0.000%   0.000%   0.000%   0.000%   0.000%   0.000%   0.000%   0.000%   0.000%
  119   15.1  0.5 -0.5   0.000%   0.000%   0.000%   0.000%   0.000%   0.000%   0.000%   0.000%   0.000%   0.000%
  120   16.1  0.5 -0.5  52.371%   0.001%   2.066%   0.000%   1.028%   0.001%   0.259%   0.000%   0.005%   0.000%
  121   17.1  0.5 -0.5   0.000%  18.525%   0.008%  27.766%   0.001%   8.274%   0.001%   0.156%   0.001%   0.867%
  122   18.1  0.5 -0.5   0.001%   0.014%   0.012%  53.158%   0.002%   0.225%   0.001%   0.513%   0.005%   1.565%
  123   19.1  0.5 -0.5   0.000%  18.294%   0.003%   0.009%   0.010%  34.238%   0.001%   1.475%   0.000%   1.385%
  124   20.1  0.5 -0.5   8.986%   0.001%  16.783%   0.009%  25.314%   0.010%   3.975%   0.000%   0.517%   0.003%
  125   21.1  0.5 -0.5   0.000%   0.043%   0.000%   0.036%   0.001%  20.454%   0.000%  34.813%   0.003%   0.298%
  126   22.1  0.5 -0.5   0.608%   0.000%   0.010%   0.000%   4.010%   0.000%  49.602%   0.000%   1.008%   0.010%
  127   23.1  0.5 -0.5   0.000%   0.309%   0.000%   0.068%   0.003%   4.278%   0.021%   1.596%   0.058%  49.132%
  128   24.1  0.5 -0.5   0.779%   0.000%   0.005%   0.000%   2.081%   0.004%   7.508%   0.012%  44.985%   0.091%

   Nr   State  S   Sz     121      122      123      124      125      126      127      128

    1    1.1  1.5  1.5   0.000%   0.000%   0.003%   0.000%   0.001%   0.000%   0.000%   0.001%
    2    2.1  1.5  1.5   0.001%   0.000%   0.000%   0.002%   0.000%   0.001%   0.000%   0.000%
    3    3.1  1.5  1.5   0.000%   0.000%   0.000%   0.000%   0.000%   0.002%   0.002%   0.000%
    4    4.1  1.5  1.5   0.000%   0.000%   0.000%   0.000%   0.003%   0.000%   0.000%   0.003%
    5    5.1  1.5  1.5   0.000%   0.000%   0.000%   0.000%   0.000%   0.000%   0.002%   0.000%
    6    6.1  1.5  1.5   0.002%   0.000%   0.000%   0.001%   0.000%   0.000%   0.000%   0.000%
    7    7.1  1.5  1.5   0.000%   0.004%   0.000%   0.000%   0.001%   0.000%   0.000%   0.000%
    8    8.1  1.5  1.5   0.000%   0.000%   0.000%   0.000%   0.000%   0.000%   0.000%   0.000%
    9    9.1  1.5  1.5   0.000%   0.000%   0.000%   0.000%   0.000%   0.000%   0.000%   0.000%
   10   10.1  1.5  1.5   0.000%   0.000%   0.000%   0.000%   0.000%   0.000%   0.000%   0.000%
   11   11.1  1.5  1.5   0.000%   0.000%   0.000%   0.000%   0.000%   0.000%   0.000%   0.000%
   12   12.1  1.5  1.5   0.000%   0.000%   0.000%   0.000%   0.000%   0.000%   0.000%   0.000%
   13   13.1  1.5  1.5   0.000%   0.000%   0.000%   0.000%   0.000%   0.000%   0.000%   0.000%
   14   14.1  1.5  1.5   0.000%   0.000%   0.000%   0.000%   0.000%   0.000%   0.001%   0.000%
   15   15.1  1.5  1.5   0.000%   0.000%   0.000%   0.000%   0.000%   0.000%   0.000%   0.000%
   16   16.1  1.5  1.5   0.000%   0.000%   0.000%   0.000%   0.000%   0.000%   0.000%   0.000%
   17   17.1  1.5  1.5   0.000%   0.000%   0.000%   0.000%   0.000%   0.000%   0.000%   0.000%
   18   18.1  1.5  1.5   0.000%   0.000%   0.000%   0.000%   0.000%   0.000%   0.000%   0.000%
   19   19.1  1.5  1.5   0.000%   0.000%   0.000%   0.000%   0.000%   0.000%   0.000%   0.000%
   20   20.1  1.5  1.5   0.000%   0.000%   0.000%   0.000%   0.000%   0.000%   0.000%   0.000%
   21    1.1  1.5  0.5   0.002%   0.000%   0.000%   0.000%   0.000%   0.000%   0.001%   0.000%
   22    2.1  1.5  0.5   0.000%   0.000%   0.001%   0.000%   0.000%   0.000%   0.000%   0.002%
   23    3.1  1.5  0.5   0.000%   0.003%   0.000%   0.000%   0.001%   0.000%   0.000%   0.000%
   24    4.1  1.5  0.5   0.000%   0.000%   0.000%   0.001%   0.000%   0.001%   0.001%   0.000%
   25    5.1  1.5  0.5   0.000%   0.001%   0.001%   0.000%   0.002%   0.000%   0.000%   0.001%
   26    6.1  1.5  0.5   0.000%   0.000%   0.006%   0.000%   0.000%   0.000%   0.000%   0.000%
   27    7.1  1.5  0.5   0.001%   0.000%   0.000%   0.000%   0.000%   0.002%   0.000%   0.000%
   28    8.1  1.5  0.5   0.000%   0.000%   0.000%   0.000%   0.000%   0.000%   0.000%   0.000%
   29    9.1  1.5  0.5   0.000%   0.000%   0.000%   0.000%   0.000%   0.000%   0.000%   0.000%
   30   10.1  1.5  0.5   0.000%   0.000%   0.001%   0.000%   0.000%   0.000%   0.000%   0.000%
   31   11.1  1.5  0.5   0.000%   0.000%   0.000%   0.000%   0.000%   0.000%   0.000%   0.000%
   32   12.1  1.5  0.5   0.000%   0.000%   0.000%   0.000%   0.000%   0.000%   0.000%   0.000%
   33   13.1  1.5  0.5   0.000%   0.000%   0.000%   0.000%   0.000%   0.000%   0.000%   0.000%
   34   14.1  1.5  0.5   0.000%   0.000%   0.000%   0.000%   0.000%   0.000%   0.000%   0.000%
   35   15.1  1.5  0.5   0.000%   0.000%   0.000%   0.000%   0.000%   0.000%   0.000%   0.000%
   36   16.1  1.5  0.5   0.000%   0.000%   0.000%   0.000%   0.000%   0.000%   0.000%   0.000%
   37   17.1  1.5  0.5   0.000%   0.000%   0.000%   0.000%   0.000%   0.000%   0.000%   0.000%
   38   18.1  1.5  0.5   0.000%   0.000%   0.000%   0.000%   0.000%   0.000%   0.000%   0.000%
   39   19.1  1.5  0.5   0.000%   0.000%   0.000%   0.000%   0.000%   0.000%   0.000%   0.000%
   40   20.1  1.5  0.5   0.000%   0.000%   0.000%   0.000%   0.000%   0.000%   0.000%   0.000%
   41    1.1  1.5 -0.5   0.000%   0.002%   0.000%   0.000%   0.000%   0.000%   0.000%   0.001%
   42    2.1  1.5 -0.5   0.000%   0.000%   0.000%   0.001%   0.000%   0.000%   0.002%   0.000%
   43    3.1  1.5 -0.5   0.003%   0.000%   0.000%   0.000%   0.000%   0.001%   0.000%   0.000%
   44    4.1  1.5 -0.5   0.000%   0.000%   0.001%   0.000%   0.001%   0.000%   0.000%   0.001%
   45    5.1  1.5 -0.5   0.001%   0.000%   0.000%   0.001%   0.000%   0.002%   0.001%   0.000%
   46    6.1  1.5 -0.5   0.000%   0.000%   0.000%   0.006%   0.000%   0.000%   0.000%   0.000%
   47    7.1  1.5 -0.5   0.000%   0.001%   0.000%   0.000%   0.002%   0.000%   0.000%   0.000%
   48    8.1  1.5 -0.5   0.000%   0.000%   0.000%   0.000%   0.000%   0.000%   0.000%   0.000%
   49    9.1  1.5 -0.5   0.000%   0.000%   0.000%   0.000%   0.000%   0.000%   0.000%   0.000%
   50   10.1  1.5 -0.5   0.000%   0.000%   0.000%   0.001%   0.000%   0.000%   0.000%   0.000%
   51   11.1  1.5 -0.5   0.000%   0.000%   0.000%   0.000%   0.000%   0.000%   0.000%   0.000%
   52   12.1  1.5 -0.5   0.000%   0.000%   0.000%   0.000%   0.000%   0.000%   0.000%   0.000%
   53   13.1  1.5 -0.5   0.000%   0.000%   0.000%   0.000%   0.000%   0.000%   0.000%   0.000%
   54   14.1  1.5 -0.5   0.000%   0.000%   0.000%   0.000%   0.000%   0.000%   0.000%   0.000%
   55   15.1  1.5 -0.5   0.000%   0.000%   0.000%   0.000%   0.000%   0.000%   0.000%   0.000%
   56   16.1  1.5 -0.5   0.000%   0.000%   0.000%   0.000%   0.000%   0.000%   0.000%   0.000%
   57   17.1  1.5 -0.5   0.000%   0.000%   0.000%   0.000%   0.000%   0.000%   0.000%   0.000%
   58   18.1  1.5 -0.5   0.000%   0.000%   0.000%   0.000%   0.000%   0.000%   0.000%   0.000%
   59   19.1  1.5 -0.5   0.000%   0.000%   0.000%   0.000%   0.000%   0.000%   0.000%   0.000%
   60   20.1  1.5 -0.5   0.000%   0.000%   0.000%   0.000%   0.000%   0.000%   0.000%   0.000%
   61    1.1  1.5 -1.5   0.000%   0.000%   0.000%   0.003%   0.000%   0.001%   0.001%   0.000%
   62    2.1  1.5 -1.5   0.000%   0.001%   0.002%   0.000%   0.001%   0.000%   0.000%   0.000%
   63    3.1  1.5 -1.5   0.000%   0.000%   0.000%   0.000%   0.002%   0.000%   0.000%   0.002%
   64    4.1  1.5 -1.5   0.000%   0.000%   0.000%   0.000%   0.000%   0.003%   0.003%   0.000%
   65    5.1  1.5 -1.5   0.000%   0.000%   0.000%   0.000%   0.000%   0.000%   0.000%   0.002%
   66    6.1  1.5 -1.5   0.000%   0.002%   0.001%   0.000%   0.000%   0.000%   0.000%   0.000%
   67    7.1  1.5 -1.5   0.004%   0.000%   0.000%   0.000%   0.000%   0.001%   0.000%   0.000%
   68    8.1  1.5 -1.5   0.000%   0.000%   0.000%   0.000%   0.000%   0.000%   0.000%   0.000%
   69    9.1  1.5 -1.5   0.000%   0.000%   0.000%   0.000%   0.000%   0.000%   0.000%   0.000%
   70   10.1  1.5 -1.5   0.000%   0.000%   0.000%   0.000%   0.000%   0.000%   0.000%   0.000%
   71   11.1  1.5 -1.5   0.000%   0.000%   0.000%   0.000%   0.000%   0.000%   0.000%   0.000%
   72   12.1  1.5 -1.5   0.000%   0.000%   0.000%   0.000%   0.000%   0.000%   0.000%   0.000%
   73   13.1  1.5 -1.5   0.000%   0.000%   0.000%   0.000%   0.000%   0.000%   0.000%   0.000%
   74   14.1  1.5 -1.5   0.000%   0.000%   0.000%   0.000%   0.000%   0.000%   0.000%   0.001%
   75   15.1  1.5 -1.5   0.000%   0.000%   0.000%   0.000%   0.000%   0.000%   0.000%   0.000%
   76   16.1  1.5 -1.5   0.000%   0.000%   0.000%   0.000%   0.000%   0.000%   0.000%   0.000%
   77   17.1  1.5 -1.5   0.000%   0.000%   0.000%   0.000%   0.000%   0.000%   0.000%   0.000%
   78   18.1  1.5 -1.5   0.000%   0.000%   0.000%   0.000%   0.000%   0.000%   0.000%   0.000%
   79   19.1  1.5 -1.5   0.000%   0.000%   0.000%   0.000%   0.000%   0.000%   0.000%   0.000%
   80   20.1  1.5 -1.5   0.000%   0.000%   0.000%   0.000%   0.000%   0.000%   0.000%   0.000%
   81    1.1  0.5  0.5   0.001%   0.000%   0.000%   0.010%   0.000%   0.026%   0.001%   0.000%
   82    2.1  0.5  0.5   0.000%   0.034%   0.003%   0.000%   0.000%   0.000%   0.000%   0.000%
   83    3.1  0.5  0.5   0.000%   0.004%   0.032%   0.000%   0.001%   0.000%   0.000%   0.001%
   84    4.1  0.5  0.5   0.000%   0.000%   0.008%   0.000%   0.028%   0.000%   0.000%   0.001%
   85    5.1  0.5  0.5   0.001%   0.000%   0.000%   0.001%   0.000%   0.001%   0.033%   0.000%
   86    6.1  0.5  0.5   0.024%   0.000%   0.000%   0.010%   0.000%   0.000%   0.003%   0.000%
   87    7.1  0.5  0.5   0.000%   0.001%   0.001%   0.000%   0.009%   0.000%   0.000%   0.027%
   88    8.1  0.5  0.5   0.000%   0.000%   0.000%   0.000%   0.000%   0.000%   0.000%   0.000%
   89    9.1  0.5  0.5   0.000%   0.000%   0.000%   0.000%   0.000%   0.000%   0.000%   0.000%
   90   10.1  0.5  0.5   0.000%   0.000%   0.000%   0.000%   0.000%   0.000%   0.000%   0.000%
   91   11.1  0.5  0.5   0.000%   0.000%   0.000%   0.000%   0.000%   0.000%   0.000%   0.000%
   92   12.1  0.5  0.5   0.000%   0.000%   0.000%   0.000%   0.000%   0.000%   0.000%   0.000%
   93   13.1  0.5  0.5   0.000%   0.000%   0.000%   0.000%   0.000%   0.000%   0.000%   0.000%
   94   14.1  0.5  0.5   0.000%   0.000%   0.000%   0.000%   0.000%   0.000%   0.000%   0.000%
   95   15.1  0.5  0.5   0.000%   0.000%   0.000%   0.000%   0.000%   0.000%   0.000%   0.000%
   96   16.1  0.5  0.5   0.039%  38.710%   4.988%   0.001%   0.031%   0.000%   0.000%   0.427%
   97   17.1  0.5  0.5  24.241%   0.018%   0.004%  16.360%   0.001%   1.958%   1.744%   0.000%
   98   18.1  0.5  0.5  13.845%   0.007%   0.003%  29.836%   0.000%   0.708%   0.031%   0.000%
   99   19.1  0.5  0.5  19.318%   0.016%   0.006%  15.107%   0.002%   8.136%   1.926%   0.001%
  100   20.1  0.5  0.5   0.010%   3.348%  28.662%   0.012%   7.119%   0.001%   0.000%   5.175%
  101   21.1  0.5  0.5   0.138%   0.000%   0.000%   0.508%   0.011%  41.937%   1.682%   0.002%
  102   22.1  0.5  0.5   0.000%   0.173%   0.087%   0.000%  33.132%   0.005%   0.000%  11.281%
  103   23.1  0.5  0.5   0.045%   0.000%   0.004%   1.447%   0.002%   3.146%  39.804%   0.013%
  104   24.1  0.5  0.5   0.000%   0.009%   2.889%   0.003%   3.730%   0.000%   0.014%  37.815%
  105    1.1  0.5 -0.5   0.000%   0.001%   0.010%   0.000%   0.026%   0.000%   0.000%   0.001%
  106    2.1  0.5 -0.5   0.034%   0.000%   0.000%   0.003%   0.000%   0.000%   0.000%   0.000%
  107    3.1  0.5 -0.5   0.004%   0.000%   0.000%   0.032%   0.000%   0.001%   0.001%   0.000%
  108    4.1  0.5 -0.5   0.000%   0.000%   0.000%   0.008%   0.000%   0.028%   0.001%   0.000%
  109    5.1  0.5 -0.5   0.000%   0.001%   0.001%   0.000%   0.001%   0.000%   0.000%   0.033%
  110    6.1  0.5 -0.5   0.000%   0.024%   0.010%   0.000%   0.000%   0.000%   0.000%   0.003%
  111    7.1  0.5 -0.5   0.001%   0.000%   0.000%   0.001%   0.000%   0.009%   0.027%   0.000%
  112    8.1  0.5 -0.5   0.000%   0.000%   0.000%   0.000%   0.000%   0.000%   0.000%   0.000%
  113    9.1  0.5 -0.5   0.000%   0.000%   0.000%   0.000%   0.000%   0.000%   0.000%   0.000%
  114   10.1  0.5 -0.5   0.000%   0.000%   0.000%   0.000%   0.000%   0.000%   0.000%   0.000%
  115   11.1  0.5 -0.5   0.000%   0.000%   0.000%   0.000%   0.000%   0.000%   0.000%   0.000%
  116   12.1  0.5 -0.5   0.000%   0.000%   0.000%   0.000%   0.000%   0.000%   0.000%   0.000%
  117   13.1  0.5 -0.5   0.000%   0.000%   0.000%   0.000%   0.000%   0.000%   0.000%   0.000%
  118   14.1  0.5 -0.5   0.000%   0.000%   0.000%   0.000%   0.000%   0.000%   0.000%   0.000%
  119   15.1  0.5 -0.5   0.000%   0.000%   0.000%   0.000%   0.000%   0.000%   0.000%   0.000%
  120   16.1  0.5 -0.5  38.710%   0.039%   0.001%   4.988%   0.000%   0.031%   0.427%   0.000%
  121   17.1  0.5 -0.5   0.018%  24.241%  16.360%   0.004%   1.958%   0.001%   0.000%   1.744%
  122   18.1  0.5 -0.5   0.007%  13.845%  29.836%   0.003%   0.708%   0.000%   0.000%   0.031%
  123   19.1  0.5 -0.5   0.016%  19.318%  15.107%   0.006%   8.136%   0.002%   0.001%   1.926%
  124   20.1  0.5 -0.5   3.348%   0.010%   0.012%  28.662%   0.001%   7.119%   5.175%   0.000%
  125   21.1  0.5 -0.5   0.000%   0.138%   0.508%   0.000%  41.937%   0.011%   0.002%   1.682%
  126   22.1  0.5 -0.5   0.173%   0.000%   0.000%   0.087%   0.005%  33.132%  11.281%   0.000%
  127   23.1  0.5 -0.5   0.000%   0.045%   1.447%   0.004%   3.146%   0.002%   0.013%  39.804%
  128   24.1  0.5 -0.5   0.009%   0.000%   0.003%   2.889%   0.000%   3.730%  37.815%   0.014%


 Property matrices transformed in SO basis (not sym. adapted)
 ============================================================

 No matrix element <i|DMX|i> larger than 5E-7
 No matrix element <i|DMX|1> larger than 5E-7

 No matrix element <i|DMY|i> larger than 5E-7
 No matrix element <i|DMY|1> larger than 5E-7

 No matrix element <i|DMZ|i> larger than 5E-7
 No matrix element <i|DMZ|1> larger than 5E-7


 **********************************************************************************************************************************
 DATASETS  * FILE   NREC   LENGTH (MB)   RECORD NAMES
              1      24      601.51       500      610      700      900      950      970     1000      129      960     1700   
                                          VAR    BASINP    GEOM    SYMINP    ZMAT    AOBASIS   BASIS     P2S    ABASIS    OPER   
                                         1101     1401     1411     1412     1650     1100     1400     1410     1200     1210   
                                          SR      EKINR    POTR     PVPR    MOLCAS      S      EKIN      POT      H0       H01  
                                         1080     1600     1700(1)  1380   
                                         AOSYM     SMH     OPER     JKOP   

              2       8     3290.67       700     1000      520     2100     2140     2141     5103     5101   
                                         GEOM     BASIS   MCVARS     RHF     MCSCF    MCSCF    MRCI     MRCI   

 PROGRAMS   *        TOTAL        CI     LSINT        CI        CI     MULTI     MULTI   RHF-SCF       INT
 CPU TIMES  *    252783.98 217585.17     11.25  26239.99   8937.87      5.52      1.40      0.90      1.62
 REAL TIME  *    258038.43 SEC
 DISK USED  *         3.26 GB (local),       41.18 GB (total)
 SF USED    *        18.52 GB
 GA USED    *         0.00 MB       (max)       0.00 MB       (current)
 **********************************************************************************************************************************

 CI/cc-pWCVQZ-DK energy=  -1392.528050420995

              CI              CI           MULTI           MULTI         RHF-SCF
  -1392.44417898  -1392.45432525  -1391.75190682  -1391.81056105  -1391.81339402
 **********************************************************************************************************************************
 Molpro calculation terminated with 2 warning(s)
