
 Working directory              : /scratch/irikura/molpro.ouP5mjlP9x/
 Global scratch directory       : /scratch/irikura/molpro.ouP5mjlP9x/
 Wavefunction directory         : /home/irikura/wfu/
 Main file repository           : /scratch/irikura/molpro.ouP5mjlP9x/

 id        : nistki

 Nodes     nprocs
 n517.becn    4
 GA implementation: MPI file
 GA implementation (serial work in mppx): MPI file

 Using customized tuning parameters: mindgm=1; mindgv=20; mindgc=4; mindgr=1; noblas=0; minvec=7
 default implementation of scratch files=sf  


 Variables initialized (1040), CPU time= 0.01 sec
 ***,Co atom
                                                                                 ! Orbitals optimized mostly for ground 4F term
 memory,1500,M;
 
 gprint,orbitals,civector
 
 symmetry,xyz
 geometry={Co}
 
 basis=cc-pwCVTZ-DK
 
 set,dkho=101
 
 {rhf,so-sci;wf,nelec=27,sym=1, spin=3}
 
                                                                                 ! 4F term only
 {multi
     closed,2,3
     wf,nelec=27,sym=1,spin=3; state,7;
     expec2,lxx,lyy,lzz;
  }
 table, energy, ll
 title, 4F energies and LL values
 
                                                                                 ! Add other terms but with low weights
 {multi
     closed,2,3
     wf,nelec=27,sym=1,spin=3; state,20;
       weight,99,99,99,99,99,99,99, 1,1,1, 1,1,1,1,1,1,1, 1,1,1
     wf,nelec=27,sym=1,spin=1; state,12;
       weight,all,1
     expec2,lxx,lyy,lzz;
  }
 table, energy, ll
 title, CASSCF energies and LL values
 
                                                                                 ! MRCI and SO-CI
                                                                                 ! 4F,4F,4P,4F + 2F,2D
 {ci;wf,sym=1,spin=3; state,20;save,5103.2}
 hlsdiag = energd4
 {ci;wf,sym=1,spin=1; state,12;save,5101.2}
 hlsdiag(21) = energd4
 
 table, hlsdiag
 
 lsint
 {ci;hlsmat,ls,5103.2,5101.2;print,vls=0,hls=0}
 
 Commands initialized (846), CPU time= 0.00 sec, 717 directives.
 Default parameters read. Elapsed time= 0.15 sec

 Checking input...
 Passed
1


                                         ***  PROGRAM SYSTEM MOLPRO  ***
                                       Copyright, TTI GmbH Stuttgart, 2015
                                    Version 2023.2 linked Fri Sep 22 03:27:09 2023


 **********************************************************************************************************************************
 LABEL *   Co atom                                                                                                                                                       
  (32 PROC) 64 bit mpp version                                                           DATE: 09-Feb-24          TIME: 13:31:59  
 **********************************************************************************************************************************

 SHA1:             3c61bfe44d37c8635c785372c339f5cbdd4e4b59
 **********************************************************************************************************************************

 Memory per process:      1500 MW
 Total memory per node:   6000 MW

 GA preallocation disabled
 GA check disabled

 Variable memory set to 1500.0 MW


 ZSYMEL=XYZ

 SETTING BASIS          =    CC-PWCVTZ-DK
 SETTING DKHO           =       101.00000000                                  


 Recomputing integrals since basis changed


 Using spherical harmonics

 Library entry CO     S cc-pwCVTZ-DK         selected for orbital group  1
 Library entry CO     P cc-pwCVTZ-DK         selected for orbital group  1
 Library entry CO     D cc-pwCVTZ-DK         selected for orbital group  1
 Library entry CO     F cc-pwCVTZ-DK         selected for orbital group  1
 Library entry CO     G cc-pwCVTZ-DK         selected for orbital group  1


 PROGRAM * SEWARD (Integral evaluation for generally contracted gaussian basis sets)     Author: Roland Lindh, 1990

 Geometry written to block  1 of record 700

 Orientation using atomic masses  
 Molecule type: Atom
 User-specified symmetry elements: XYZ
 Symmetry elements: XYZ
 Rotational constants:       0.0000000      0.0000000      0.0000000 GHz  (calculated with average atomic masses)

 Point group  Ci  



 ATOMIC COORDINATES

 NR  ATOM    CHARGE       X              Y              Z

   1  CO     27.00    0.000000000    0.000000000    0.000000000

 NUCLEAR CHARGE:                   27
 NUMBER OF PRIMITIVE AOS:         196
 NUMBER OF SYMMETRY AOS:          165
 NUMBER OF CONTRACTIONS:          102   (   57Ag  +   45Au  )
 NUMBER OF INNER CORE ORBITALS:     5   (    2Ag  +    3Au  )
 NUMBER OF OUTER CORE ORBITALS:     4   (    1Ag  +    3Au  )
 NUMBER OF VALENCE ORBITALS:        6   (    6Ag  +    0Au  )


 NUCLEAR REPULSION ENERGY    0.00000000

 One-electron integrals computed with SEWARD

 eXact-2-Component (X2C) method activated

 Computing Douglas-Kroll / X2C integrals

 AO integral compression algorithm  1   Integral accuracy      1.0D-11

     15.729 MB (compressed) written to integral file ( 14.7%)

     Node minimum: 3.146 MB, node maximum: 5.243 MB


 NUMBER OF SORTED TWO-ELECTRON INTEGRALS:    1755030.     BUFFER LENGTH:  32768
 NUMBER OF SEGMENTS:   1  SEGMENT LENGTH:    1755030      RECORD LENGTH: 524288

 Memory used in sort:       2.31 MW

 SORT1 READ    12883698. AND WROTE      339780. INTEGRALS IN      1 RECORDS. CPU TIME:     0.04 SEC, REAL TIME:     0.05 SEC
 SORT2 READ     1353984. AND WROTE     7035726. INTEGRALS IN     56 RECORDS. CPU TIME:     0.05 SEC, REAL TIME:     0.05 SEC

 Node minimum:     1755030.  Node maximum:     1760662. integrals

 OPERATOR DM      FOR CENTER  0  COORDINATES:    0.000000    0.000000    0.000000

 EXTRA SYMMETRY OF AOS IN SYMMETRY 1:   1 1 1 1 1 1 1 1 1 2   3 4 5 6 2 3 4 5 6 2   3 4 5 6 2 3 4 5 6 2   3 4 5 6 2 3 4 5 6 7
                                        8 9101112131415 7 8   9101112131415
 EXTRA SYMMETRY OF AOS IN SYMMETRY 2:   1 2 3 1 2 3 1 2 3 1   2 3 1 2 3 1 2 3 1 2   3 1 2 3 4 5 6 7 8 9  10 4 5 6 7 8 910 4 5
                                        6 7 8 910

 Eigenvalues of metric

         1 0.366E-03 0.267E-02 0.154E-01 0.154E-01 0.154E-01 0.154E-01 0.154E-01 0.248E-01
         2 0.242E-03 0.242E-03 0.242E-03 0.177E-02 0.177E-02 0.177E-02 0.125E+00 0.125E+00


 **********************************************************************************************************************************
 DATASETS  * FILE   NREC   LENGTH (MB)   RECORD NAMES
              1      22       29.09       500      610      700      900      950      970     1000      129      960     1700   
                                          VAR    BASINP    GEOM    SYMINP    ZMAT    AOBASIS   BASIS     P2S    ABASIS    OPER   
                                         1101     1401     1411     1412     1650     1100     1400     1410     1200     1210   
                                          SR      EKINR    POTR     PVPR    MOLCAS      S      EKIN      POT      H0       H01  
                                         1080     1600   
                                         AOSYM     SMH  

 PROGRAMS   *        TOTAL       INT
 CPU TIMES  *         1.02      0.87
 REAL TIME  *         1.86 SEC
 DISK USED  *        29.44 MB (local),      141.36 MB (total)
 GA USED    *         0.00 MB       (max)       0.00 MB       (current)
 **********************************************************************************************************************************


 Program * Restricted Hartree-Fock

 Orbital guess generated from atomic densities. Full valence occupancy:    9   6

 Initial alpha occupancy:   9   6
 Initial beta  occupancy:   6   6
 
 SO-SCI SOLVER WITH NELEC=27 SYM=1 MS2=3 THRE=1.0D-08 THRG=3.2D-06
 
 Authors: D.A. Kreplin, H.-J. Werner (2022)
 
 Number of closed-shell orbitals:                12   (    6    6)
 Number of singly occupied active orbitals:       3   (    3    0)
 Number of virtual orbitals:                     87   (   48   39)
 
 ITER.  MIC  NCI          ENERGY    ENERGY CHANGE          GRAD      ORB GRAD        CI RES  NQN        STEP      TIME
    1    1    0   -1391.67823286   -1391.67823286    1.15980972    1.15980972    0.00000000    0    0.32E+00      0.07
    2    1    0   -1391.67724189       0.00099098    1.29905931    1.29905931    0.00000000    0    0.25E+00      0.11
    3    1    0   -1391.72411255      -0.04687066    1.15056184    1.15056184    0.00000000    0    0.22E+00      0.14
    4    1    0   -1391.72728604      -0.00317349    1.06376690    1.06376690    0.00000000    0    0.23E+00      0.18
    5    1    0   -1391.72397177       0.00331428    1.12014364    1.12014364    0.00000000    0    0.21E+00      0.22
    6    2    0   -1391.74344446      -0.01947269    0.99766109    0.99766109    0.00000000    1    0.10E+00      0.26
    7    2    0   -1391.80691811      -0.06347365    0.20073354    0.20073354    0.00000000    2    0.96E-01      0.30
    8    1    0   -1391.81005281      -0.00313470    0.04675527    0.04675527    0.00000000    3    0.35E-01      0.33
    9    2    0   -1391.81031981      -0.00026700    0.00709662    0.00709662    0.00000000    4    0.12E-01      0.38
   10    2    0   -1391.81033886      -0.00001905    0.00269840    0.00269840    0.00000000    5    0.16E-02      0.42
   11    1    0   -1391.81034087      -0.00000202    0.00107370    0.00107370    0.00000000    6    0.37E-03      0.45
   12    2    0   -1391.81034108      -0.00000020    0.00018954    0.00018954    0.00000000    7    0.23E-03      0.49
   13    2    0   -1391.81034109      -0.00000001    0.00004125    0.00004125    0.00000000    8    0.26E-04      0.53
   14    2    0   -1391.81034109      -0.00000000    0.00001727    0.00001727    0.00000000    9    0.13E-04      0.58
   15    2    0   -1391.81034109      -0.00000000    0.00000490    0.00000490    0.00000000   10    0.98E-05      0.62

 CONVERGENCE REACHED!  Final gradient:     0.00000221 ( 0.22E-05)
                       Final energy:   -1391.81034109
 

 Final alpha occupancy:   9   6
 Final beta  occupancy:   6   6

 !RHF STATE 1.1 Energy              -1391.810341090510
  RHF One-electron energy           -1932.565598575939
  RHF Two-electron energy             540.755257485429
  RHF Kinetic energy                 1454.632321033402
  RHF Nuclear energy                    0.000000000000
  RHF Virial quotient                  -0.956812467979

 !RHF STATE 1.1 Dipole moment           0.00000000     0.00000000     0.00000000
 Dipole moment /Debye                   0.00000000     0.00000000     0.00000000

 ELECTRON ORBITALS
 =================

  Orbital  Occupation    Energy    Cen Mu Typ  Coefficients
    1.1     2.00000  -285.56635     1  1  s    0.97812
    2.1     2.00000   -35.23766     1  2  s    0.99666
    3.1     2.00000    -4.40336     1  3  s    0.99088
    4.1     2.00000    -0.40428     1  1  d1+  0.99638
    5.1     2.00000    -0.40428     1  1  d2-  0.99684
    6.1     2.00000    -0.40428     1  1  d0   0.86249    1  1  d2+  0.49822
    7.1     1.00000    -0.48242     1  1  d1-  0.99801
    8.1     1.00000    -0.48242     1  1  d0  -0.49900    1  1  d2+  0.86448
    9.1     1.00000    -0.23846     1  4  s    0.96027
    1.2     2.00000   -30.01080     1  1  py   0.99999
    2.2     2.00000   -30.01080     1  1  px   0.99998
    3.2     2.00000   -30.01080     1  1  pz   0.99994
    4.2     2.00000    -2.82443     1  2  pz   1.00135
    5.2     2.00000    -2.82443     1  2  px   1.00140
    6.2     2.00000    -2.82443     1  2  py   1.00137


 HOMO      9.1    -0.238458 =      -6.4888eV
 LUMO      7.2     0.046874 =       1.2755eV
 LUMO-HOMO         0.285331 =       7.7643eV

 Orbitals saved in record  2100.2


 **********************************************************************************************************************************
 DATASETS  * FILE   NREC   LENGTH (MB)   RECORD NAMES
              1      23       29.54       500      610      700      900      950      970     1000      129      960     1700   
                                          VAR    BASINP    GEOM    SYMINP    ZMAT    AOBASIS   BASIS     P2S    ABASIS    OPER   
                                         1101     1401     1411     1412     1650     1100     1400     1410     1200     1210   
                                          SR      EKINR    POTR     PVPR    MOLCAS      S      EKIN      POT      H0       H01  
                                         1080     1600     1380   
                                         AOSYM     SMH     JKOP   

              2       4        0.53       700     1000      520     2100   
                                         GEOM     BASIS   MCVARS     RHF  

 PROGRAMS   *        TOTAL   RHF-SCF       INT
 CPU TIMES  *         1.60      0.58      0.87
 REAL TIME  *         2.54 SEC
 DISK USED  *        30.16 MB (local),      144.24 MB (total)
 SF USED    *         1.97 MB
 GA USED    *         0.00 MB       (max)       0.00 MB       (current)
 **********************************************************************************************************************************

 PROGRAM * MULTI (Direct Multiconfiguration SCF)       Authors: P.J. Knowles, H.-J. Werner (1984)
                                                                D.A. Kreplin, P.J. Knowles, H.-J. Werner (2019)

 Number of closed-shell orbitals:   5 (    2    3)
 Number of active  orbitals:       10 (    7    3)
 Number of external orbitals:      87 (   48   39)

 State symmetry 1

 Number of active electrons:  17    Spin symmetry=Quartet   Space symmetry=1
 Number of states:             7
 Number of CSFs:              56   (56 determinants, 120 intermediate states)

 Molecular orbitals read from record     2100.2  Type=RHF/CANONICAL (state 1.1)
 *** IN SYMMETRY 1 ORBITAL  2 SYMMETRY CONTAMINATION OF 0.230D-03 HAS BEEN REMOVED
 *** IN SYMMETRY 1 ORBITAL  3 SYMMETRY CONTAMINATION OF 0.154D-02 HAS BEEN REMOVED
 *** IN SYMMETRY 1 ORBITAL  4 SYMMETRY CONTAMINATION OF 0.558D-01 HAS BEEN REMOVED
 *** IN SYMMETRY 1 ORBITAL  5 SYMMETRY CONTAMINATION OF 0.454D-01 HAS BEEN REMOVED
 *** IN SYMMETRY 1 ORBITAL  6 SYMMETRY CONTAMINATION OF 0.401D+00 HAS BEEN REMOVED
 *** IN SYMMETRY 1 ORBITAL  7 SYMMETRY CONTAMINATION OF 0.319D-01 HAS BEEN REMOVED
 *** IN SYMMETRY 1 ORBITAL  8 SYMMETRY CONTAMINATION OF 0.374D+00 HAS BEEN REMOVED
 *** IN SYMMETRY 1 ORBITAL  9 SYMMETRY CONTAMINATION OF 0.783D-03 HAS BEEN REMOVED

 EXTRA SYMMETRY OF MOS IN SYMMETRY 1:   1 1 1 4 3 2 6 5 1 1   6 5 4 2 3 1 6 5 4 2   3 1 6 5 4 2 3121411  13 715 910 8 1 6 5 4
                                        2 312111314 715 810   9 6 5 2 3 4 1
 *** IN SYMMETRY 2 ORBITAL  1 SYMMETRY CONTAMINATION OF 0.118D-01 HAS BEEN REMOVED
 *** IN SYMMETRY 2 ORBITAL  2 SYMMETRY CONTAMINATION OF 0.124D-01 HAS BEEN REMOVED
 *** IN SYMMETRY 2 ORBITAL  3 SYMMETRY CONTAMINATION OF 0.194D-01 HAS BEEN REMOVED
 *** IN SYMMETRY 2 ORBITAL  4 SYMMETRY CONTAMINATION OF 0.262D-01 HAS BEEN REMOVED
 *** IN SYMMETRY 2 ORBITAL  5 SYMMETRY CONTAMINATION OF 0.201D-01 HAS BEEN REMOVED
 *** IN SYMMETRY 2 ORBITAL  6 SYMMETRY CONTAMINATION OF 0.227D-01 HAS BEEN REMOVED
 EXTRA SYMMETRY OF MOS IN SYMMETRY 2:   2 1 3 3 1 2 3 1 2 3   1 2 2 3 1 5 710 6 8   9 4 2 3 110 7 5 9 8   6 4 3 1 210 7 5 9 8
                                        6 4 2 3 1

 Wavefunction dump at record             2140.2

 Convergence thresholds  0.10E-04 (gradient)  0.10E-05 (energy)

 Weight factors for state symmetry  1:    0.14286   0.14286   0.14286   0.14286   0.14286   0.14286   0.14286
 
 Number of orbital rotations:  689  ( 23 closed/active, 213 closed/virtual, 0 active/active, 453 active/virtual )
 Total number of variables:    1081
 
 Second-order MCSCF: L-BFGS accelerated
 
 ITER  MIC  NCI  NEG     ENERGY(VAR)    ENERGY(PROJ) ENERGY CHANGE       GRAD(0)  GRAD(ORB)   GRAD(CI)      STEP      TIME
   1    3    3    0  -1391.80634565   -1391.80758013   -0.00123448    0.06020390 0.00001360 0.00000000  0.33E-01      0.18
   2    4    4    0  -1391.80758443   -1391.80758452   -0.00000009    0.00057964 0.00000006 0.00000000  0.45E-03      0.36
   3   20   20    0  -1391.80758452   -1391.80758452    0.00000000    0.00000093 0.00000055 0.00000000  0.79E-07      0.70

 CONVERGENCE REACHED!  Final gradient:    0.00000028 ( 0.28E-06)
                       Final energy:  -1391.80758452
 
 Results for state 1.1
 =====================
 !MCSCF STATE 1.1 Energy                     -1391.807584522173
 Nuclear energy                                  0.00000000
 Kinetic energy                               1454.62949365
 One electron energy                         -1932.57186663
 Two electron energy                           540.76428211
 Virial ratio                                    1.95681243
 
 !MCSCF STATE 1.1 Dipole moment                  0.00000000     0.00000000     0.00000000
 Dipole moment /Debye                            0.00000000     0.00000000     0.00000000
 
 Results for state 2.1
 =====================
 !MCSCF STATE 2.1 Energy                     -1391.807584521913
 Nuclear energy                                  0.00000000
 Kinetic energy                               1454.62949379
 One electron energy                         -1932.57186689
 Two electron energy                           540.76428237
 Virial ratio                                    1.95681243
 
 !MCSCF STATE 2.1 Dipole moment                  0.00000000     0.00000000     0.00000000
 Dipole moment /Debye                            0.00000000     0.00000000     0.00000000
 
 Results for state 3.1
 =====================
 !MCSCF STATE 3.1 Energy                     -1391.807584521326
 Nuclear energy                                  0.00000000
 Kinetic energy                               1454.62949384
 One electron energy                         -1932.57186698
 Two electron energy                           540.76428246
 Virial ratio                                    1.95681243
 
 !MCSCF STATE 3.1 Dipole moment                  0.00000000     0.00000000     0.00000000
 Dipole moment /Debye                            0.00000000     0.00000000     0.00000000
 
 Results for state 4.1
 =====================
 !MCSCF STATE 4.1 Energy                     -1391.807584520832
 Nuclear energy                                  0.00000000
 Kinetic energy                               1454.62949390
 One electron energy                         -1932.57186711
 Two electron energy                           540.76428259
 Virial ratio                                    1.95681243
 
 !MCSCF STATE 4.1 Dipole moment                  0.00000000     0.00000000     0.00000000
 Dipole moment /Debye                            0.00000000     0.00000000     0.00000000
 
 Results for state 5.1
 =====================
 !MCSCF STATE 5.1 Energy                     -1391.807584519669
 Nuclear energy                                  0.00000000
 Kinetic energy                               1454.62949408
 One electron energy                         -1932.57186743
 Two electron energy                           540.76428291
 Virial ratio                                    1.95681243
 
 !MCSCF STATE 5.1 Dipole moment                  0.00000000     0.00000000     0.00000000
 Dipole moment /Debye                            0.00000000     0.00000000     0.00000000
 
 Results for state 6.1
 =====================
 !MCSCF STATE 6.1 Energy                     -1391.807584518816
 Nuclear energy                                  0.00000000
 Kinetic energy                               1454.62949420
 One electron energy                         -1932.57186765
 Two electron energy                           540.76428313
 Virial ratio                                    1.95681243
 
 !MCSCF STATE 6.1 Dipole moment                  0.00000000     0.00000000     0.00000000
 Dipole moment /Debye                            0.00000000     0.00000000     0.00000000
 
 Results for state 7.1
 =====================
 !MCSCF STATE 7.1 Energy                     -1391.807584517834
 Nuclear energy                                  0.00000000
 Kinetic energy                               1454.62949447
 One electron energy                         -1932.57186814
 Two electron energy                           540.76428362
 Virial ratio                                    1.95681243
 
 !MCSCF STATE 7.1 Dipole moment                  0.00000000     0.00000000     0.00000000
 Dipole moment /Debye                            0.00000000     0.00000000     0.00000000
 
 State-averaged charge density matrix saved on record 2140.2 (density set 1)
 
 No non-zero expectation values
 
 Expectation values for two-electron operators:
 
 !MCSCF expec                      <1.1|LXLX|1.1>     3.999411210326
 !MCSCF expec                      <2.1|LXLX|2.1>     6.438548326584
 !MCSCF expec                      <3.1|LXLX|3.1>     5.343459833941
 !MCSCF expec                      <4.1|LXLX|4.1>     4.000000009208
 !MCSCF expec                      <5.1|LXLX|5.1>     4.656868425677
 !MCSCF expec                      <6.1|LXLX|6.1>     0.000589682543
 !MCSCF expec                      <7.1|LXLX|7.1>     3.561468683568
 
 !MCSCF expec                      <1.1|LYLY|1.1>     4.094265369176
 !MCSCF expec                      <2.1|LYLY|2.1>     5.548194584046
 !MCSCF expec                      <3.1|LYLY|3.1>     3.886407624830
 !MCSCF expec                      <4.1|LYLY|4.1>     4.000000080816
 !MCSCF expec                      <5.1|LYLY|5.1>     0.113538233578
 !MCSCF expec                      <6.1|LYLY|6.1>     5.905671627407
 !MCSCF expec                      <7.1|LYLY|7.1>     4.451786298409
 
 !MCSCF expec                      <1.1|LZLZ|1.1>     3.906323420498
 !MCSCF expec                      <2.1|LZLZ|2.1>     0.013257089370
 !MCSCF expec                      <3.1|LZLZ|3.1>     2.770132541229
 !MCSCF expec                      <4.1|LZLZ|4.1>     3.999999909976
 !MCSCF expec                      <5.1|LZLZ|5.1>     7.229593340745
 !MCSCF expec                      <6.1|LZLZ|6.1>     6.093738690050
 !MCSCF expec                      <7.1|LZLZ|7.1>     3.986745018023
 
 !MCSCF expec                      <1.1|L**2|1.1>    12.000000000000
 !MCSCF expec                      <2.1|L**2|2.1>    12.000000000000
 !MCSCF expec                      <3.1|L**2|3.1>    12.000000000000
 !MCSCF expec                      <4.1|L**2|4.1>    12.000000000000
 !MCSCF expec                      <5.1|L**2|5.1>    12.000000000000
 !MCSCF expec                      <6.1|L**2|6.1>    12.000000000000
 !MCSCF expec                      <7.1|L**2|7.1>    12.000000000000
 
 EXTRA SYMMETRY OF MOS IN SYMMETRY 1:   1 1 1 5 4 6 2 3 1 1   5 4 6 2 3 1 5 4 6 2   3 1 6 5 2 4 311 7 8  12 914151013 1 6 2 4
                                        5 311 7 812 9151410  13 6 2 3 4 5 1
 EXTRA SYMMETRY OF MOS IN SYMMETRY 2:   3 2 1 3 1 2 3 2 1 3   2 1 3 2 1 510 6 4 8   9 7 2 3 1 5 610 8 4   7 9 3 2 1 5 6 810 4
                                        7 9 3 2 1
 
  NATURAL ORBITALS (STATE AVERAGED)
  =================================

  Orbital  Occupation    Energy    Cen Mu Typ  Coefficients
    1.1     2.00000  -285.56626     1  1  s    0.97812
    2.1     2.00000   -35.23764     1  2  s    0.99666
    3.1     2.00000    -4.40321     1  3  s    0.99089
    4.1     1.60000    -0.24529     1  1  d2+  0.99764
    5.1     1.60000    -0.24529     1  1  d1+  0.99764
    6.1     1.60000    -0.24529     1  1  d1-  0.99764
    7.1     1.60000    -0.24529     1  1  d0   0.99764
    8.1     1.60000    -0.24529     1  1  d2-  0.99764
    9.1     1.00000    -0.09695     1  4  s    0.96202
    1.2     2.00000   -30.01076     1  1  pz   1.00003
    2.2     2.00000   -30.01076     1  1  py   1.00003
    3.2     2.00000   -30.01076     1  1  px   1.00003
    4.2     2.00000    -2.82396     1  2  pz   1.00146
    5.2     2.00000    -2.82396     1  2  px   1.00146
    6.2     2.00000    -2.82396     1  2  py   1.00146
 
 Natural orbital dump (state averaged) at molpro section 2140.2 (Orbital set 2)
 
 Transform the CI vectors
 
 CI Coefficients of symmetry 1
 =============================
 
 2a22a2a 222     -0.00027437     -0.00005696     -0.00005074      0.99999996      0.00001468     -0.00003219     -0.00000345
 2222aaa 222      0.00001890     -0.05756754      0.00009290      0.00000018     -0.00019893      0.00012692      0.99834158
 22a22aa 222      0.01085163     -0.00003485     -0.00004234      0.00003176      0.00010305      0.89436133     -0.00011589
 22aa22a 222      0.00005442      0.89294374     -0.00052647      0.00005103     -0.00001327      0.00004078      0.05149001
 222a2aa 222      0.00000365     -0.00008641     -0.15072661     -0.00002060      0.88163566     -0.00010874      0.00018473
 2a2a22a 222      0.86324872     -0.00004254      0.00004533      0.00022931     -0.00002470     -0.23409741      0.00001096
 2aa222a 222     -0.00003321      0.00048508      0.81595827      0.00003604      0.36634937     -0.00000316      0.00002504
 22a2a2a 222      0.00002128     -0.00032995     -0.55811579     -0.00003270      0.29750068     -0.00006096      0.00009220
 222aa2a 222      0.50466208     -0.00004468      0.00000173      0.00015073      0.00004524      0.38120359     -0.00006058
 2a222aa 222     -0.00002721     -0.44647184      0.00026323     -0.00002552      0.00000664     -0.00002039     -0.02574499
 
 Energy:      -1391.80758452  -1391.80758452  -1391.80758452  -1391.80758452  -1391.80758452  -1391.80758452  -1391.80758452
 


 **********************************************************************************************************************************
 DATASETS  * FILE   NREC   LENGTH (MB)   RECORD NAMES
              1      24       36.48       500      610      700      900      950      970     1000      129      960     1700   
                                          VAR    BASINP    GEOM    SYMINP    ZMAT    AOBASIS   BASIS     P2S    ABASIS    OPER   
                                         1101     1401     1411     1412     1650     1100     1400     1410     1200     1210   
                                          SR      EKINR    POTR     PVPR    MOLCAS      S      EKIN      POT      H0       H01  
                                         1080     1600     1380     1700(1)
                                         AOSYM     SMH     JKOP     OPER   

              2       5        0.83       700     1000      520     2100     2140   
                                         GEOM     BASIS   MCVARS     RHF     MCSCF   

 PROGRAMS   *        TOTAL     MULTI   RHF-SCF       INT
 CPU TIMES  *         2.62      1.02      0.58      0.87
 REAL TIME  *         4.02 SEC
 DISK USED  *        37.40 MB (local),      173.21 MB (total)
 SF USED    *        22.51 MB
 GA USED    *         0.00 MB       (max)       0.00 MB       (current)
 **********************************************************************************************************************************

 4F energies and LL values

          ENERGY     LL
    -1391.807585   12.0
    -1391.807585   12.0
    -1391.807585   12.0
    -1391.807585   12.0
    -1391.807585   12.0
    -1391.807585   12.0
    -1391.807585   12.0
                                                  

 PROGRAM * MULTI (Direct Multiconfiguration SCF)       Authors: P.J. Knowles, H.-J. Werner (1984)
                                                                D.A. Kreplin, P.J. Knowles, H.-J. Werner (2019)

 Number of closed-shell orbitals:   5 (    2    3)
 Number of active  orbitals:       10 (    7    3)
 Number of external orbitals:      87 (   48   39)

 State symmetry 1

 Number of active electrons:  17    Spin symmetry=Quartet   Space symmetry=1
 Number of states:            20
 Number of CSFs:              56   (56 determinants, 120 intermediate states)

 State symmetry 2

 Number of active electrons:  17    Spin symmetry=Doublet   Space symmetry=1
 Number of states:            12
 Number of CSFs:             175   (231 determinants, 450 intermediate states)

 Molecular orbitals read from record     2140.2  Type=MCSCF/NATURAL (state averaged)

 EXTRA SYMMETRY OF MOS IN SYMMETRY 1:   1 1 1 5 4 6 2 3 1 1   5 4 6 2 3 1 5 4 6 2   3 1 6 5 2 4 311 7 8  12 914151013 1 6 2 4
                                        5 311 7 812 9151410  13 6 2 3 4 5 1
 EXTRA SYMMETRY OF MOS IN SYMMETRY 2:   3 2 1 3 1 2 3 2 1 3   2 1 3 2 1 510 6 4 8   9 7 2 3 1 5 610 8 4   7 9 3 2 1 5 6 810 4
                                        7 9 3 2 1

 Wavefunction dump at record             2141.2

 Convergence thresholds  0.10E-04 (gradient)  0.10E-05 (energy)

 Weight factors for state symmetry  1:    0.13788   0.13788   0.13788   0.13788   0.13788   0.13788   0.13788   0.00139
                                          0.00139   0.00139   0.00139   0.00139   0.00139   0.00139   0.00139   0.00139
                                          0.00139   0.00139   0.00139   0.00139
 Weight factors for state symmetry  2:    0.00139   0.00139   0.00139   0.00139   0.00139   0.00139   0.00139   0.00139
                                          0.00139   0.00139   0.00139   0.00139
 
 Number of orbital rotations:  689  ( 23 closed/active, 213 closed/virtual, 0 active/active, 453 active/virtual )
 Total number of variables:    4581
 
 Second-order MCSCF: L-BFGS accelerated
 
 ITER  MIC  NCI  NEG     ENERGY(VAR)    ENERGY(PROJ) ENERGY CHANGE       GRAD(0)  GRAD(ORB)   GRAD(CI)      STEP      TIME
   1   15   22    0  -1391.80555879   -1391.80564189   -0.00008310    0.01313223 0.00000853 0.00000000  0.67E-01      0.67
   2    7   12    0  -1391.80543616   -1391.80558917   -0.00015301    0.04818984 0.00000243 0.00000000  0.80E-02      1.16
   3   22   44    0  -1391.80558939   -1391.80558940   -0.00000000    0.00007856 0.00000011 0.00000000  0.29E-04      2.31
   4   20   40    0  -1391.80558940   -1391.80558940   -0.00000000    0.00000024 0.00000033 0.00000000  0.64E-07      3.31

 CONVERGENCE REACHED!  Final gradient:    0.00000016 ( 0.16E-06)
                       Final energy:  -1391.80558940
 
 Results for state 1.1 Quartet
 =============================
 !MCSCF STATE 1.1 Quartet Energy             -1391.807559576605
 Nuclear energy                                  0.00000000
 Kinetic energy                               1454.72173193
 One electron energy                         -1932.73156633
 Two electron energy                           540.92400676
 Virial ratio                                    1.95675175
 
 !MCSCF STATE 1.1 Quartet Dipole moment          0.00000000     0.00000000     0.00000000
 Dipole moment /Debye                            0.00000000     0.00000000     0.00000000
 
 Results for state 2.1 Quartet
 =============================
 !MCSCF STATE 2.1 Quartet Energy             -1391.807559576587
 Nuclear energy                                  0.00000000
 Kinetic energy                               1454.72173197
 One electron energy                         -1932.73156641
 Two electron energy                           540.92400683
 Virial ratio                                    1.95675175
 
 !MCSCF STATE 2.1 Quartet Dipole moment          0.00000000     0.00000000     0.00000000
 Dipole moment /Debye                            0.00000000     0.00000000     0.00000000
 
 Results for state 3.1 Quartet
 =============================
 !MCSCF STATE 3.1 Quartet Energy             -1391.807559575315
 Nuclear energy                                  0.00000000
 Kinetic energy                               1454.72173199
 One electron energy                         -1932.73156646
 Two electron energy                           540.92400689
 Virial ratio                                    1.95675175
 
 !MCSCF STATE 3.1 Quartet Dipole moment          0.00000000     0.00000000     0.00000000
 Dipole moment /Debye                            0.00000000     0.00000000     0.00000000
 
 Results for state 4.1 Quartet
 =============================
 !MCSCF STATE 4.1 Quartet Energy             -1391.807559573264
 Nuclear energy                                  0.00000000
 Kinetic energy                               1454.72173228
 One electron energy                         -1932.73156698
 Two electron energy                           540.92400740
 Virial ratio                                    1.95675175
 
 !MCSCF STATE 4.1 Quartet Dipole moment          0.00000000     0.00000000     0.00000000
 Dipole moment /Debye                            0.00000000     0.00000000     0.00000000
 
 Results for state 5.1 Quartet
 =============================
 !MCSCF STATE 5.1 Quartet Energy             -1391.807559572957
 Nuclear energy                                  0.00000000
 Kinetic energy                               1454.72173220
 One electron energy                         -1932.73156684
 Two electron energy                           540.92400727
 Virial ratio                                    1.95675175
 
 !MCSCF STATE 5.1 Quartet Dipole moment          0.00000000     0.00000000     0.00000000
 Dipole moment /Debye                            0.00000000     0.00000000     0.00000000
 
 Results for state 6.1 Quartet
 =============================
 !MCSCF STATE 6.1 Quartet Energy             -1391.807559571861
 Nuclear energy                                  0.00000000
 Kinetic energy                               1454.72173247
 One electron energy                         -1932.73156733
 Two electron energy                           540.92400776
 Virial ratio                                    1.95675175
 
 !MCSCF STATE 6.1 Quartet Dipole moment          0.00000000     0.00000000     0.00000000
 Dipole moment /Debye                            0.00000000     0.00000000     0.00000000
 
 Results for state 7.1 Quartet
 =============================
 !MCSCF STATE 7.1 Quartet Energy             -1391.807559571804
 Nuclear energy                                  0.00000000
 Kinetic energy                               1454.72173260
 One electron energy                         -1932.73156756
 Two electron energy                           540.92400799
 Virial ratio                                    1.95675175
 
 !MCSCF STATE 7.1 Quartet Dipole moment          0.00000000     0.00000000     0.00000000
 Dipole moment /Debye                            0.00000000     0.00000000     0.00000000
 
 Results for state 8.1 Quartet
 =============================
 !MCSCF STATE 8.1 Quartet Energy             -1391.752589096988
 Nuclear energy                                  0.00000000
 Kinetic energy                               1448.05804500
 One electron energy                         -1916.35205650
 Two electron energy                           524.59946741
 Virial ratio                                    1.96111658
 
 !MCSCF STATE 8.1 Quartet Dipole moment          0.00000000     0.00000000     0.00000000
 Dipole moment /Debye                            0.00000000     0.00000000     0.00000000
 
 Results for state 9.1 Quartet
 =============================
 !MCSCF STATE 9.1 Quartet Energy             -1391.752589095187
 Nuclear energy                                  0.00000000
 Kinetic energy                               1448.05804495
 One electron energy                         -1916.35205641
 Two electron energy                           524.59946732
 Virial ratio                                    1.96111658
 
 !MCSCF STATE 9.1 Quartet Dipole moment          0.00000000     0.00000000     0.00000000
 Dipole moment /Debye                            0.00000000     0.00000000     0.00000000
 
 Results for state 10.1 Quartet
 ==============================
 !MCSCF STATE 10.1 Quartet Energy            -1391.752589093579
 Nuclear energy                                  0.00000000
 Kinetic energy                               1448.05804489
 One electron energy                         -1916.35205631
 Two electron energy                           524.59946722
 Virial ratio                                    1.96111658
 
 !MCSCF STATE 10.1 Quartet Dipole moment         0.00000000     0.00000000     0.00000000
 Dipole moment /Debye                            0.00000000     0.00000000     0.00000000
 
 Results for state 11.1 Quartet
 ==============================
 !MCSCF STATE 11.1 Quartet Energy            -1391.752589087189
 Nuclear energy                                  0.00000000
 Kinetic energy                               1448.05804468
 One electron energy                         -1916.35205593
 Two electron energy                           524.59946684
 Virial ratio                                    1.96111658
 
 !MCSCF STATE 11.1 Quartet Dipole moment         0.00000000     0.00000000     0.00000000
 Dipole moment /Debye                            0.00000000     0.00000000     0.00000000
 
 Results for state 12.1 Quartet
 ==============================
 !MCSCF STATE 12.1 Quartet Energy            -1391.752589083161
 Nuclear energy                                  0.00000000
 Kinetic energy                               1448.05804458
 One electron energy                         -1916.35205575
 Two electron energy                           524.59946666
 Virial ratio                                    1.96111658
 
 !MCSCF STATE 12.1 Quartet Dipole moment         0.00000000     0.00000000     0.00000000
 Dipole moment /Debye                            0.00000000     0.00000000     0.00000000
 
 Results for state 13.1 Quartet
 ==============================
 !MCSCF STATE 13.1 Quartet Energy            -1391.752589076294
 Nuclear energy                                  0.00000000
 Kinetic energy                               1448.05804438
 One electron energy                         -1916.35205538
 Two electron energy                           524.59946630
 Virial ratio                                    1.96111658
 
 !MCSCF STATE 13.1 Quartet Dipole moment         0.00000000     0.00000000     0.00000000
 Dipole moment /Debye                            0.00000000     0.00000000     0.00000000
 
 Results for state 14.1 Quartet
 ==============================
 !MCSCF STATE 14.1 Quartet Energy            -1391.752589073073
 Nuclear energy                                  0.00000000
 Kinetic energy                               1448.05804429
 One electron energy                         -1916.35205520
 Two electron energy                           524.59946613
 Virial ratio                                    1.96111658
 
 !MCSCF STATE 14.1 Quartet Dipole moment         0.00000000     0.00000000     0.00000000
 Dipole moment /Debye                            0.00000000     0.00000000     0.00000000
 
 Results for state 15.1 Quartet
 ==============================
 !MCSCF STATE 15.1 Quartet Energy            -1391.738814446435
 Nuclear energy                                  0.00000000
 Kinetic energy                               1454.71319439
 One electron energy                         -1932.71260116
 Two electron energy                           540.97378672
 Virial ratio                                    1.95671011
 
 !MCSCF STATE 15.1 Quartet Dipole moment         0.00000000     0.00000000     0.00000000
 Dipole moment /Debye                            0.00000000     0.00000000     0.00000000
 
 Results for state 16.1 Quartet
 ==============================
 !MCSCF STATE 16.1 Quartet Energy            -1391.738814441565
 Nuclear energy                                  0.00000000
 Kinetic energy                               1454.71319469
 One electron energy                         -1932.71260171
 Two electron energy                           540.97378727
 Virial ratio                                    1.95671011
 
 !MCSCF STATE 16.1 Quartet Dipole moment         0.00000000     0.00000000     0.00000000
 Dipole moment /Debye                            0.00000000     0.00000000     0.00000000
 
 Results for state 17.1 Quartet
 ==============================
 !MCSCF STATE 17.1 Quartet Energy            -1391.738814439800
 Nuclear energy                                  0.00000000
 Kinetic energy                               1454.71319482
 One electron energy                         -1932.71260196
 Two electron energy                           540.97378752
 Virial ratio                                    1.95671011
 
 !MCSCF STATE 17.1 Quartet Dipole moment         0.00000000     0.00000000     0.00000000
 Dipole moment /Debye                            0.00000000     0.00000000     0.00000000
 
 Results for state 18.1 Quartet
 ==============================
 !MCSCF STATE 18.1 Quartet Energy            -1391.683330558520
 Nuclear energy                                  0.00000000
 Kinetic energy                               1448.05067798
 One electron energy                         -1916.33570464
 Two electron energy                           524.65237408
 Virial ratio                                    1.96107364
 
 !MCSCF STATE 18.1 Quartet Dipole moment         0.00000000     0.00000000     0.00000000
 Dipole moment /Debye                            0.00000000     0.00000000     0.00000000
 
 Results for state 19.1 Quartet
 ==============================
 !MCSCF STATE 19.1 Quartet Energy            -1391.683330552443
 Nuclear energy                                  0.00000000
 Kinetic energy                               1448.05067769
 One electron energy                         -1916.33570410
 Two electron energy                           524.65237354
 Virial ratio                                    1.96107364
 
 !MCSCF STATE 19.1 Quartet Dipole moment         0.00000000     0.00000000     0.00000000
 Dipole moment /Debye                            0.00000000     0.00000000     0.00000000
 
 Results for state 20.1 Quartet
 ==============================
 !MCSCF STATE 20.1 Quartet Energy            -1391.683330549100
 Nuclear energy                                  0.00000000
 Kinetic energy                               1448.05067755
 One electron energy                         -1916.33570385
 Two electron energy                           524.65237330
 Virial ratio                                    1.96107364
 
 !MCSCF STATE 20.1 Quartet Dipole moment         0.00000000     0.00000000     0.00000000
 Dipole moment /Debye                            0.00000000     0.00000000     0.00000000
 
 Results for state 1.1 Doublet
 =============================
 !MCSCF STATE 1.1 Doublet Energy             -1391.785031977912
 Nuclear energy                                  0.00000000
 Kinetic energy                               1454.71797630
 One electron energy                         -1932.71828644
 Two electron energy                           540.93325446
 Virial ratio                                    1.95673873
 
 !MCSCF STATE 1.1 Doublet Dipole moment          0.00000000     0.00000000     0.00000000
 Dipole moment /Debye                            0.00000000     0.00000000     0.00000000
 
 Results for state 2.1 Doublet
 =============================
 !MCSCF STATE 2.1 Doublet Energy             -1391.785031977703
 Nuclear energy                                  0.00000000
 Kinetic energy                               1454.71797635
 One electron energy                         -1932.71828652
 Two electron energy                           540.93325455
 Virial ratio                                    1.95673873
 
 !MCSCF STATE 2.1 Doublet Dipole moment          0.00000000     0.00000000     0.00000000
 Dipole moment /Debye                            0.00000000     0.00000000     0.00000000
 
 Results for state 3.1 Doublet
 =============================
 !MCSCF STATE 3.1 Doublet Energy             -1391.785031976304
 Nuclear energy                                  0.00000000
 Kinetic energy                               1454.71797639
 One electron energy                         -1932.71828660
 Two electron energy                           540.93325462
 Virial ratio                                    1.95673873
 
 !MCSCF STATE 3.1 Doublet Dipole moment          0.00000000     0.00000000     0.00000000
 Dipole moment /Debye                            0.00000000     0.00000000     0.00000000
 
 Results for state 4.1 Doublet
 =============================
 !MCSCF STATE 4.1 Doublet Energy             -1391.785031973144
 Nuclear energy                                  0.00000000
 Kinetic energy                               1454.71797660
 One electron energy                         -1932.71828698
 Two electron energy                           540.93325500
 Virial ratio                                    1.95673873
 
 !MCSCF STATE 4.1 Doublet Dipole moment          0.00000000     0.00000000     0.00000000
 Dipole moment /Debye                            0.00000000     0.00000000     0.00000000
 
 Results for state 5.1 Doublet
 =============================
 !MCSCF STATE 5.1 Doublet Energy             -1391.785031973120
 Nuclear energy                                  0.00000000
 Kinetic energy                               1454.71797668
 One electron energy                         -1932.71828714
 Two electron energy                           540.93325517
 Virial ratio                                    1.95673873
 
 !MCSCF STATE 5.1 Doublet Dipole moment          0.00000000     0.00000000     0.00000000
 Dipole moment /Debye                            0.00000000     0.00000000     0.00000000
 
 Results for state 6.1 Doublet
 =============================
 !MCSCF STATE 6.1 Doublet Energy             -1391.785031970910
 Nuclear energy                                  0.00000000
 Kinetic energy                               1454.71797688
 One electron energy                         -1932.71828750
 Two electron energy                           540.93325553
 Virial ratio                                    1.95673873
 
 !MCSCF STATE 6.1 Doublet Dipole moment          0.00000000     0.00000000     0.00000000
 Dipole moment /Debye                            0.00000000     0.00000000     0.00000000
 
 Results for state 7.1 Doublet
 =============================
 !MCSCF STATE 7.1 Doublet Energy             -1391.785031970387
 Nuclear energy                                  0.00000000
 Kinetic energy                               1454.71797699
 One electron energy                         -1932.71828770
 Two electron energy                           540.93325573
 Virial ratio                                    1.95673873
 
 !MCSCF STATE 7.1 Doublet Dipole moment          0.00000000     0.00000000     0.00000000
 Dipole moment /Debye                            0.00000000     0.00000000     0.00000000
 
 Results for state 8.1 Doublet
 =============================
 !MCSCF STATE 8.1 Doublet Energy             -1391.748923726047
 Nuclear energy                                  0.00000000
 Kinetic energy                               1454.69219604
 One electron energy                         -1932.64777841
 Two electron energy                           540.89885468
 Virial ratio                                    1.95673087
 
 !MCSCF STATE 8.1 Doublet Dipole moment          0.00000000     0.00000000     0.00000000
 Dipole moment /Debye                            0.00000000     0.00000000     0.00000000
 
 Results for state 9.1 Doublet
 =============================
 !MCSCF STATE 9.1 Doublet Energy             -1391.748923726045
 Nuclear energy                                  0.00000000
 Kinetic energy                               1454.69219614
 One electron energy                         -1932.64777858
 Two electron energy                           540.89885486
 Virial ratio                                    1.95673087
 
 !MCSCF STATE 9.1 Doublet Dipole moment          0.00000000     0.00000000     0.00000000
 Dipole moment /Debye                            0.00000000     0.00000000     0.00000000
 
 Results for state 10.1 Doublet
 ==============================
 !MCSCF STATE 10.1 Doublet Energy            -1391.748923725151
 Nuclear energy                                  0.00000000
 Kinetic energy                               1454.69219615
 One electron energy                         -1932.64777860
 Two electron energy                           540.89885487
 Virial ratio                                    1.95673087
 
 !MCSCF STATE 10.1 Doublet Dipole moment         0.00000000     0.00000000     0.00000000
 Dipole moment /Debye                            0.00000000     0.00000000     0.00000000
 
 Results for state 11.1 Doublet
 ==============================
 !MCSCF STATE 11.1 Doublet Energy            -1391.748923723952
 Nuclear energy                                  0.00000000
 Kinetic energy                               1454.69219608
 One electron energy                         -1932.64777847
 Two electron energy                           540.89885474
 Virial ratio                                    1.95673087
 
 !MCSCF STATE 11.1 Doublet Dipole moment         0.00000000     0.00000000     0.00000000
 Dipole moment /Debye                            0.00000000     0.00000000     0.00000000
 
 Results for state 12.1 Doublet
 ==============================
 !MCSCF STATE 12.1 Doublet Energy            -1391.748923722804
 Nuclear energy                                  0.00000000
 Kinetic energy                               1454.69219640
 One electron energy                         -1932.64777906
 Two electron energy                           540.89885534
 Virial ratio                                    1.95673087
 
 !MCSCF STATE 12.1 Doublet Dipole moment         0.00000000     0.00000000     0.00000000
 Dipole moment /Debye                            0.00000000     0.00000000     0.00000000
 
 State-averaged charge density matrix saved on record 2141.2 (density set 1)
 
 No non-zero expectation values
 
 Expectation values for two-electron operators:
 
 ? Warning
 ? Transition properties are only calculated between states of the same symmetry
 ? The problem occurs in mu_properties_expec2

 !MCSCF expec      <1.1 Quartet|LXLX|1.1 Quartet>     8.108936073007
 !MCSCF expec      <2.1 Quartet|LXLX|2.1 Quartet>     7.863003850961
 !MCSCF expec      <3.1 Quartet|LXLX|3.1 Quartet>     3.768422080825
 !MCSCF expec      <4.1 Quartet|LXLX|4.1 Quartet>     2.137189804449
 !MCSCF expec      <5.1 Quartet|LXLX|5.1 Quartet>     0.231581990285
 !MCSCF expec      <6.1 Quartet|LXLX|6.1 Quartet>     1.891089293880
 !MCSCF expec      <7.1 Quartet|LXLX|7.1 Quartet>     3.999997252352
 !MCSCF expec      <8.1 Quartet|LXLX|8.1 Quartet>     6.366542531405
 !MCSCF expec      <9.1 Quartet|LXLX|9.1 Quartet>     5.691513212866
 !MCSCF expec    <10.1 Quartet|LXLX|10.1 Quartet>     3.777204449235
 !MCSCF expec    <11.1 Quartet|LXLX|11.1 Quartet>     0.222788937064
 !MCSCF expec    <12.1 Quartet|LXLX|12.1 Quartet>     4.308470833066
 !MCSCF expec    <13.1 Quartet|LXLX|13.1 Quartet>     3.633460767092
 !MCSCF expec    <14.1 Quartet|LXLX|14.1 Quartet>     4.000000000388
 !MCSCF expec    <15.1 Quartet|LXLX|15.1 Quartet>     0.000000000272
 !MCSCF expec    <16.1 Quartet|LXLX|16.1 Quartet>     0.999999999728
 !MCSCF expec    <17.1 Quartet|LXLX|17.1 Quartet>     1.000000000000
 !MCSCF expec    <18.1 Quartet|LXLX|18.1 Quartet>     0.000000000134
 !MCSCF expec    <19.1 Quartet|LXLX|19.1 Quartet>     0.999999999826
 !MCSCF expec    <20.1 Quartet|LXLX|20.1 Quartet>     0.999999999999
 !MCSCF expec      <1.1 Doublet|LXLX|1.1 Doublet>     7.641927686466
 !MCSCF expec      <2.1 Doublet|LXLX|2.1 Doublet>     7.356107194730
 !MCSCF expec      <3.1 Doublet|LXLX|3.1 Doublet>     3.768853664507
 !MCSCF expec      <4.1 Doublet|LXLX|4.1 Doublet>     0.231120944772
 !MCSCF expec      <5.1 Doublet|LXLX|5.1 Doublet>     2.643852842046
 !MCSCF expec      <6.1 Doublet|LXLX|6.1 Doublet>     2.358036897119
 !MCSCF expec      <7.1 Doublet|LXLX|7.1 Doublet>     3.999999840808
 !MCSCF expec      <8.1 Doublet|LXLX|8.1 Doublet>     0.999986968502
 !MCSCF expec      <9.1 Doublet|LXLX|9.1 Doublet>     0.035586167439
 !MCSCF expec    <10.1 Doublet|LXLX|10.1 Doublet>     1.000000044211
 !MCSCF expec    <11.1 Doublet|LXLX|11.1 Doublet>     3.999999557474
 !MCSCF expec    <12.1 Doublet|LXLX|12.1 Doublet>     3.964448969189
 
 !MCSCF expec      <1.1 Quartet|LYLY|1.1 Quartet>     0.392959951432
 !MCSCF expec      <2.1 Quartet|LYLY|2.1 Quartet>     3.847230962008
 !MCSCF expec      <3.1 Quartet|LYLY|3.1 Quartet>     5.924811557241
 !MCSCF expec      <4.1 Quartet|LYLY|4.1 Quartet>     6.152503023594
 !MCSCF expec      <5.1 Quartet|LYLY|5.1 Quartet>     4.075171606736
 !MCSCF expec      <6.1 Quartet|LYLY|6.1 Quartet>     3.607090505509
 !MCSCF expec      <7.1 Quartet|LYLY|7.1 Quartet>     3.999999449867
 !MCSCF expec      <8.1 Quartet|LYLY|8.1 Quartet>     0.009204440263
 !MCSCF expec      <9.1 Quartet|LYLY|9.1 Quartet>     6.302260209620
 !MCSCF expec    <10.1 Quartet|LYLY|10.1 Quartet>     5.887852479489
 !MCSCF expec    <11.1 Quartet|LYLY|11.1 Quartet>     4.112175646514
 !MCSCF expec    <12.1 Quartet|LYLY|12.1 Quartet>     3.697755082320
 !MCSCF expec    <13.1 Quartet|LYLY|13.1 Quartet>     3.990795760342
 !MCSCF expec    <14.1 Quartet|LYLY|14.1 Quartet>     4.000000000057
 !MCSCF expec    <15.1 Quartet|LYLY|15.1 Quartet>     0.999999999728
 !MCSCF expec    <16.1 Quartet|LYLY|16.1 Quartet>     0.000000001736
 !MCSCF expec    <17.1 Quartet|LYLY|17.1 Quartet>     0.999999999695
 !MCSCF expec    <18.1 Quartet|LYLY|18.1 Quartet>     0.999999999867
 !MCSCF expec    <19.1 Quartet|LYLY|19.1 Quartet>     0.000000000656
 !MCSCF expec    <20.1 Quartet|LYLY|20.1 Quartet>     0.999999999967
 !MCSCF expec      <1.1 Doublet|LYLY|1.1 Doublet>     0.215760251973
 !MCSCF expec      <2.1 Doublet|LYLY|2.1 Doublet>     4.503310592940
 !MCSCF expec      <3.1 Doublet|LYLY|3.1 Doublet>     5.923012758016
 !MCSCF expec      <4.1 Doublet|LYLY|4.1 Doublet>     4.077096190635
 !MCSCF expec      <5.1 Doublet|LYLY|5.1 Doublet>     5.496737809107
 !MCSCF expec      <6.1 Doublet|LYLY|6.1 Doublet>     3.784229435746
 !MCSCF expec      <7.1 Doublet|LYLY|7.1 Doublet>     3.999999980604
 !MCSCF expec      <8.1 Doublet|LYLY|8.1 Doublet>     1.000022249582
 !MCSCF expec      <9.1 Doublet|LYLY|9.1 Doublet>     2.657047253506
 !MCSCF expec    <10.1 Doublet|LYLY|10.1 Doublet>     3.999999856240
 !MCSCF expec    <11.1 Doublet|LYLY|11.1 Doublet>     1.000000426062
 !MCSCF expec    <12.1 Doublet|LYLY|12.1 Doublet>     1.342898793722
 
 !MCSCF expec      <1.1 Quartet|LZLZ|1.1 Quartet>     3.498103975561
 !MCSCF expec      <2.1 Quartet|LZLZ|2.1 Quartet>     0.289765187030
 !MCSCF expec      <3.1 Quartet|LZLZ|3.1 Quartet>     2.306766361934
 !MCSCF expec      <4.1 Quartet|LZLZ|4.1 Quartet>     3.710307171957
 !MCSCF expec      <5.1 Quartet|LZLZ|5.1 Quartet>     7.693246402980
 !MCSCF expec      <6.1 Quartet|LZLZ|6.1 Quartet>     6.501820200611
 !MCSCF expec      <7.1 Quartet|LZLZ|7.1 Quartet>     4.000003297781
 !MCSCF expec      <8.1 Quartet|LZLZ|8.1 Quartet>     5.624253028332
 !MCSCF expec      <9.1 Quartet|LZLZ|9.1 Quartet>     0.006226577514
 !MCSCF expec    <10.1 Quartet|LZLZ|10.1 Quartet>     2.334943071277
 !MCSCF expec    <11.1 Quartet|LZLZ|11.1 Quartet>     7.665035416422
 !MCSCF expec    <12.1 Quartet|LZLZ|12.1 Quartet>     3.993774084615
 !MCSCF expec    <13.1 Quartet|LZLZ|13.1 Quartet>     4.375743472567
 !MCSCF expec    <14.1 Quartet|LZLZ|14.1 Quartet>     3.999999999555
 !MCSCF expec    <15.1 Quartet|LZLZ|15.1 Quartet>     1.000000000000
 !MCSCF expec    <16.1 Quartet|LZLZ|16.1 Quartet>     0.999999998536
 !MCSCF expec    <17.1 Quartet|LZLZ|17.1 Quartet>     0.000000000305
 !MCSCF expec    <18.1 Quartet|LZLZ|18.1 Quartet>     0.999999999999
 !MCSCF expec    <19.1 Quartet|LZLZ|19.1 Quartet>     0.999999999518
 !MCSCF expec    <20.1 Quartet|LZLZ|20.1 Quartet>     0.000000000034
 !MCSCF expec      <1.1 Doublet|LZLZ|1.1 Doublet>     4.142312061561
 !MCSCF expec      <2.1 Doublet|LZLZ|2.1 Doublet>     0.140582212330
 !MCSCF expec      <3.1 Doublet|LZLZ|3.1 Doublet>     2.308133577478
 !MCSCF expec      <4.1 Doublet|LZLZ|4.1 Doublet>     7.691782864594
 !MCSCF expec      <5.1 Doublet|LZLZ|5.1 Doublet>     3.859409348847
 !MCSCF expec      <6.1 Doublet|LZLZ|6.1 Doublet>     5.857733667135
 !MCSCF expec      <7.1 Doublet|LZLZ|7.1 Doublet>     4.000000178588
 !MCSCF expec      <8.1 Doublet|LZLZ|8.1 Doublet>     3.999990781917
 !MCSCF expec      <9.1 Doublet|LZLZ|9.1 Doublet>     3.307366579056
 !MCSCF expec    <10.1 Doublet|LZLZ|10.1 Doublet>     1.000000099549
 !MCSCF expec    <11.1 Doublet|LZLZ|11.1 Doublet>     1.000000016465
 !MCSCF expec    <12.1 Doublet|LZLZ|12.1 Doublet>     0.692652237090
 
 !MCSCF expec      <1.1 Quartet|L**2|1.1 Quartet>    12.000000000000
 !MCSCF expec      <2.1 Quartet|L**2|2.1 Quartet>    12.000000000000
 !MCSCF expec      <3.1 Quartet|L**2|3.1 Quartet>    12.000000000000
 !MCSCF expec      <4.1 Quartet|L**2|4.1 Quartet>    12.000000000000
 !MCSCF expec      <5.1 Quartet|L**2|5.1 Quartet>    12.000000000000
 !MCSCF expec      <6.1 Quartet|L**2|6.1 Quartet>    12.000000000000
 !MCSCF expec      <7.1 Quartet|L**2|7.1 Quartet>    12.000000000000
 !MCSCF expec      <8.1 Quartet|L**2|8.1 Quartet>    12.000000000000
 !MCSCF expec      <9.1 Quartet|L**2|9.1 Quartet>    12.000000000000
 !MCSCF expec    <10.1 Quartet|L**2|10.1 Quartet>    12.000000000000
 !MCSCF expec    <11.1 Quartet|L**2|11.1 Quartet>    12.000000000000
 !MCSCF expec    <12.1 Quartet|L**2|12.1 Quartet>    12.000000000000
 !MCSCF expec    <13.1 Quartet|L**2|13.1 Quartet>    12.000000000000
 !MCSCF expec    <14.1 Quartet|L**2|14.1 Quartet>    12.000000000000
 !MCSCF expec    <15.1 Quartet|L**2|15.1 Quartet>     2.000000000000
 !MCSCF expec    <16.1 Quartet|L**2|16.1 Quartet>     2.000000000000
 !MCSCF expec    <17.1 Quartet|L**2|17.1 Quartet>     2.000000000000
 !MCSCF expec    <18.1 Quartet|L**2|18.1 Quartet>     2.000000000000
 !MCSCF expec    <19.1 Quartet|L**2|19.1 Quartet>     2.000000000000
 !MCSCF expec    <20.1 Quartet|L**2|20.1 Quartet>     2.000000000000
 !MCSCF expec      <1.1 Doublet|L**2|1.1 Doublet>    12.000000000000
 !MCSCF expec      <2.1 Doublet|L**2|2.1 Doublet>    12.000000000000
 !MCSCF expec      <3.1 Doublet|L**2|3.1 Doublet>    12.000000000000
 !MCSCF expec      <4.1 Doublet|L**2|4.1 Doublet>    12.000000000000
 !MCSCF expec      <5.1 Doublet|L**2|5.1 Doublet>    12.000000000000
 !MCSCF expec      <6.1 Doublet|L**2|6.1 Doublet>    12.000000000000
 !MCSCF expec      <7.1 Doublet|L**2|7.1 Doublet>    12.000000000000
 !MCSCF expec      <8.1 Doublet|L**2|8.1 Doublet>     6.000000000000
 !MCSCF expec      <9.1 Doublet|L**2|9.1 Doublet>     6.000000000000
 !MCSCF expec    <10.1 Doublet|L**2|10.1 Doublet>     6.000000000000
 !MCSCF expec    <11.1 Doublet|L**2|11.1 Doublet>     6.000000000000
 !MCSCF expec    <12.1 Doublet|L**2|12.1 Doublet>     6.000000000000
 
 ? Warning
 ? Extra symmerty contamination removed!
 ? The problem occurs in mu_orbitals_clean_extra
 EXTRA SYMMETRY OF MOS IN SYMMETRY 1:   1 1 1 6 4 5 3 2 1 1   6 4 5 3 2 1 6 4 5 3   2 1 6 5 3 4 2111013   7 8121415 9 1 6 5 3
                                        2 4111013 7 8121514   9 6 2 3 5 4 1
 EXTRA SYMMETRY OF MOS IN SYMMETRY 2:   2 1 3 1 3 2 2 3 1 2   3 1 2 3 110 5 8 9 7   6 4 2 3 1 510 8 7 9   6 4 2 3 1 5 7 9 6 8
                                       10 4 2 3 1
 
  NATURAL ORBITALS (STATE AVERAGED)
  =================================

  Orbital  Occupation    Energy    Cen Mu Typ  Coefficients
    1.1     2.00000  -285.56908     1  1  s    0.97812
    2.1     2.00000   -35.19296     1  2  s    0.99637
    3.1     1.99999    -4.45390     1  3  s    0.99100
    4.1     1.59722    -0.24670     1  1  d1-  0.99778
    5.1     1.59722    -0.24670     1  1  d1+  0.99778
    6.1     1.59722    -0.24670     1  1  d2+  0.99778
    7.1     1.59722    -0.24669     1  1  d2-  0.99778
    8.1     1.59722    -0.24669     1  1  d0   0.99778
    9.1     1.01397    -0.09898     1  4  s    0.96621
    1.2     2.00000   -29.94451     1  1  py   0.99913
    2.2     2.00000   -29.94451     1  1  px   0.99913
    3.2     2.00000   -29.94451     1  1  pz   0.99913
    4.2     1.99998    -2.89591     1  2  px   1.00057
    5.2     1.99998    -2.89591     1  2  pz   1.00057
    6.2     1.99998    -2.89591     1  2  py   1.00057
 
 Natural orbital dump (state averaged) at molpro section 2141.2 (Orbital set 2)
 
 Transform the CI vectors
 
 CI Coefficients of symmetry 1 (Quartet)
 =======================================

 State:                1               2               3               4               5               6               7
 222a2aa 222      0.00001647      0.00001266      0.00010674      0.00000355      0.00005850     -0.00161170      0.99999869
 2aa2a22 222     -0.00000000      0.00000000      0.00000000      0.00000000      0.00000000      0.00000000     -0.00000000
 2aaa222 222      0.00000000      0.00000000     -0.00000000      0.00000000      0.00000000      0.00000000      0.00000000
 2222aaa 222     -0.00076690     -0.26914788      0.00001242      0.96309856      0.00000000     -0.00000000     -0.00000000
 222aa2a 222      0.00139239      0.43070848      0.00000026      0.12036704     -0.00000829     -0.00002033     -0.00000594
 2aa22a2 222     -0.00000000     -0.00000000      0.00000000      0.00000000      0.00000000      0.00000000     -0.00000000
 222aaa2 222     -0.00000000     -0.00000000      0.00000000     -0.00000000      0.00000000      0.00000000     -0.00000000
 22aa2a2 222      0.00000000     -0.00000000      0.00000000     -0.00000000     -0.00000000     -0.00000000     -0.00000000
 22aa22a 222      0.05908670     -0.00015029      0.00001031      0.00000505      0.00001469      0.89247221      0.00143743
 2a22aa2 222     -0.00000000      0.00000000     -0.00000000      0.00000000      0.00000000      0.00000000      0.00000000
 2a2a2a2 222     -0.00000000     -0.00000000     -0.00000000     -0.00000000     -0.00000000      0.00000000      0.00000000
 22a2a2a 222      0.00000610      0.00001489     -0.21521056      0.00000694      0.86814997     -0.00001216     -0.00002783
 2aa222a 222      0.00278478      0.86141706      0.00000053      0.24073416     -0.00001659     -0.00004065     -0.00001187
 2a22a2a 222      0.84935752     -0.00273448     -0.00003128     -0.00008785     -0.00001761     -0.28032859     -0.00046576
 22a2aa2 222      0.00000000     -0.00000000      0.00000000      0.00000000     -0.00000000     -0.00000000      0.00000000
 2a2a22a 222      0.00003183      0.00000967      0.78677996     -0.00000741      0.42541425     -0.00001802     -0.00010890
 22a22aa 222      0.52449050     -0.00166552     -0.00001211     -0.00004780     -0.00000169      0.35342134      0.00056099
 2a222aa 222     -0.00001485      0.00000301     -0.57849953      0.00000829      0.25561365      0.00000338      0.00004680
 2a2aa22 222     -0.00000000      0.00000000      0.00000000      0.00000000     -0.00000000     -0.00000000     -0.00000000
 22aaa22 222     -0.00000000      0.00000000     -0.00000000      0.00000000      0.00000000      0.00000000      0.00000000
 
 Energy:      -1391.80755958  -1391.80755958  -1391.80755958  -1391.80755957  -1391.80755957  -1391.80755957  -1391.80755957

 State:                8               9              10              11              12              13              14
 222a2aa 222      0.00000000      0.00000000      0.00000000     -0.00000000     -0.00000000      0.00000000      0.00000000
 2aa2a22 222      0.00000237      0.00000704     -0.00001442     -0.00000268     -0.00000277      0.00000190      0.99956070
 2aaa222 222     -0.00002566      0.03943694      0.00000059     -0.00000123      0.99878242      0.00001794      0.00000249
 2222aaa 222      0.00000000     -0.00000000      0.00000000      0.00000000      0.00000000     -0.00000000      0.00000000
 222aa2a 222      0.00000000     -0.00000001      0.00000000     -0.00000000     -0.00000002      0.00000000     -0.00000000
 2aa22a2 222     -0.00002190      0.44666897     -0.00000819     -0.00000318     -0.01763672      0.00000494     -0.00000319
 222aaa2 222     -0.00004380      0.89333821     -0.00001638     -0.00000635     -0.03527348      0.00000987     -0.00000639
 22aa2a2 222      0.89300509      0.00004512      0.00002476     -0.00000136      0.00002193     -0.04288666     -0.00000203
 22aa22a 222     -0.00000001     -0.00000000      0.00000000      0.00000000      0.00000000     -0.00000002      0.00000000
 2a22aa2 222     -0.18172640     -0.00001936     -0.00000606     -0.00000029     -0.00001962      0.87537007     -0.00000124
 2a2a2a2 222      0.00000719      0.00000235     -0.21099754      0.86877919      0.00000110      0.00000032     -0.00000071
 22a2a2a 222      0.00000000     -0.00000000     -0.00000000      0.00000002     -0.00000000     -0.00000000     -0.00000000
 2aa222a 222     -0.00000000      0.00000001     -0.00000000      0.00000000      0.00000001     -0.00000000      0.00000000
 2a22a2a 222     -0.00000001     -0.00000000     -0.00000000      0.00000000      0.00000000     -0.00000001      0.00000000
 22a2aa2 222     -0.00002116      0.00001743      0.78844244      0.42149233     -0.00000063      0.00000120      0.00001250
 2a2a22a 222     -0.00000000     -0.00000000      0.00000001     -0.00000001      0.00000000      0.00000000      0.00000000
 22a22aa 222      0.00000002     -0.00000000      0.00000000     -0.00000000      0.00000000      0.00000003     -0.00000000
 2a222aa 222      0.00000000      0.00000000      0.00000001     -0.00000003     -0.00000000      0.00000000      0.00000000
 2a2aa22 222      0.41065682      0.00001487      0.00001080     -0.00000095      0.00000133      0.48063456     -0.00000189
 22aaa22 222      0.00001637     -0.00000870     -0.57702700      0.25824124      0.00000100     -0.00000051     -0.00000763
 
 Energy:      -1391.75258910  -1391.75258910  -1391.75258909  -1391.75258909  -1391.75258908  -1391.75258908  -1391.75258907

 State:               15              16              17              18              19              20
 222a2aa 222     -0.00000000      0.00000000     -0.00000000      0.00000000      0.00000000     -0.00000000
 2aa2a22 222     -0.00000000      0.00000000      0.00000000      0.00000000     -0.00000000     -0.00000000
 2aaa222 222      0.00000000     -0.00000000      0.00000003     -0.00000000     -0.00000000     -0.00000001
 2222aaa 222      0.00000000      0.00000000      0.00000003     -0.00000000     -0.00000000     -0.00000000
 222aa2a 222      0.00000028     -0.00003419      0.89375153     -0.00000000      0.00000001      0.00032579
 2aa22a2 222     -0.00000000      0.00000001     -0.00031845     -0.00000079      0.00001961      0.89345183
 222aaa2 222      0.00000000     -0.00000001      0.00015924      0.00000040     -0.00000980     -0.44672578
 22aa2a2 222     -0.00000000      0.00015921      0.00000001      0.00000516     -0.44672580      0.00000980
 22aa22a 222      0.00000737     -0.44687579     -0.00001710      0.00000000     -0.00016290      0.00000000
 2a22aa2 222     -0.00000000      0.00015921      0.00000001      0.00000516     -0.44672594      0.00000980
 2a2a2a2 222     -0.00015920     -0.00000000      0.00000000     -0.44672593     -0.00000516     -0.00000040
 22a2a2a 222     -0.44687580     -0.00000737      0.00000014      0.00016290      0.00000000      0.00000000
 2aa222a 222     -0.00000014      0.00001710     -0.44687571      0.00000000     -0.00000000     -0.00016289
 2a22a2a 222      0.00000737     -0.44687573     -0.00001710      0.00000000     -0.00016290      0.00000000
 22a2aa2 222      0.00015923      0.00000000     -0.00000000      0.44672591      0.00000516      0.00000040
 2a2a22a 222      0.44687576      0.00000737     -0.00000014     -0.00016290     -0.00000000     -0.00000000
 22a22aa 222     -0.00001276      0.77401150      0.00002961     -0.00000000      0.00028215     -0.00000001
 2a222aa 222      0.77401149      0.00001276     -0.00000025     -0.00028215     -0.00000000     -0.00000000
 2a2aa22 222      0.00000000     -0.00027582     -0.00000001     -0.00000893      0.77375197     -0.00001698
 22aaa22 222      0.00027581      0.00000000     -0.00000000      0.77375190      0.00000893      0.00000069
 
 Energy:      -1391.73881445  -1391.73881444  -1391.73881444  -1391.68333056  -1391.68333055  -1391.68333055
 
 
 CI Coefficients of symmetry 1 (Doublet)
 =======================================

 State:                1               2               3               4               5               6               7
 222a2ab 222     -0.00001870      0.00000791      0.00001563      0.00004307     -0.00000635     -0.00031449      0.81612180
 2222aab 222      0.00002130     -0.15299920      0.00000221      0.00039810      0.80165204      0.00001268      0.00000771
 22aa22b 222     -0.01335035      0.00003295      0.00001653      0.00006902     -0.00000493      0.72983942      0.00028093
 2aa222b 222      0.00015998      0.71701947      0.00001003      0.00006035      0.13684663     -0.00002853     -0.00000590
 2a22a2b 222      0.71000163     -0.00015637     -0.00006205     -0.00006528     -0.00004599     -0.16953345     -0.00004906
 22a2a2b 222      0.00003489      0.00000952     -0.17547430      0.70855665     -0.00034956     -0.00006238     -0.00003406
 2a2a22b 222      0.00007705     -0.00000481      0.64218854      0.34704143     -0.00017503     -0.00004594     -0.00003063
 2222aba 222     -0.00001065      0.07649959     -0.00000111     -0.00019905     -0.40082602     -0.00000634     -0.00000385
 2222baa 222     -0.00001065      0.07649960     -0.00000111     -0.00019905     -0.40082602     -0.00000634     -0.00000385
 202222a 222      0.00000000     -0.00000000      0.00000000     -0.00000000     -0.00000000     -0.00000000      0.00000000
 222220a 222      0.00000000     -0.00000000      0.00000000      0.00000000     -0.00000000      0.00000000     -0.00000000
 222022a 222     -0.00000000     -0.00000000     -0.00000000     -0.00000000     -0.00000000     -0.00000000      0.00000000
 222202a 222     -0.00000000     -0.00000000     -0.00000000     -0.00000000     -0.00000000      0.00000000      0.00000000
 222b2aa 222      0.00000935     -0.00000396     -0.00000781     -0.00002153      0.00000318      0.00015724     -0.40806089
 222a2ba 222      0.00000935     -0.00000396     -0.00000781     -0.00002153      0.00000318      0.00015724     -0.40806091
 2a222ab 222     -0.00002434      0.00000827     -0.47207790      0.20872097     -0.00010077     -0.00000949     -0.00000198
 2a22b2a 222     -0.35500080      0.00007819      0.00003103      0.00003264      0.00002300      0.08476672      0.00002453
 2b22a2a 222     -0.35500083      0.00007819      0.00003103      0.00003264      0.00002300      0.08476672      0.00002453
 2a2b22a 222     -0.00003852      0.00000241     -0.32109425     -0.17352071      0.00008752      0.00002297      0.00001531
 2b2a22a 222     -0.00003852      0.00000241     -0.32109429     -0.17352072      0.00008752      0.00002297      0.00001531
 22ba22a 222      0.00667517     -0.00001648     -0.00000826     -0.00003451      0.00000247     -0.36491971     -0.00014047
 22ab22a 222      0.00667518     -0.00001648     -0.00000826     -0.00003451      0.00000247     -0.36491970     -0.00014047
 22b2a2a 222     -0.00001744     -0.00000476      0.08773716     -0.35427832      0.00017478      0.00003119      0.00001703
 22a2b2a 222     -0.00001744     -0.00000476      0.08773714     -0.35427833      0.00017478      0.00003119      0.00001703
 2ab222a 222     -0.00007999     -0.35850972     -0.00000502     -0.00003018     -0.06842332      0.00001426      0.00000295
 2ba222a 222     -0.00007999     -0.35850975     -0.00000502     -0.00003018     -0.06842332      0.00001426      0.00000295
 220222a 222      0.00000000     -0.00000000     -0.00000000      0.00000000     -0.00000000      0.00000000     -0.00000000
 22a22ab 222      0.40221178     -0.00007126     -0.00002628      0.00000216     -0.00002940      0.32349286      0.00013387
 222aa2b 222      0.00007999      0.35850968      0.00000502      0.00003018      0.06842328     -0.00001426     -0.00000295
 22a22ba 222     -0.20110589      0.00003563      0.00001314     -0.00000108      0.00001470     -0.16174643     -0.00006694
 22b22aa 222     -0.20110589      0.00003563      0.00001314     -0.00000108      0.00001470     -0.16174643     -0.00006694
 2a222ba 222      0.00001217     -0.00000414      0.23603894     -0.10436048      0.00005038      0.00000475      0.00000099
 2b222aa 222      0.00001217     -0.00000414      0.23603896     -0.10436049      0.00005038      0.00000475      0.00000099
 222ab2a 222     -0.00003999     -0.17925484     -0.00000251     -0.00001509     -0.03421164      0.00000713      0.00000147
 222ba2a 222     -0.00003999     -0.17925484     -0.00000251     -0.00001509     -0.03421164      0.00000713      0.00000147
 
 Energy:      -1391.78503198  -1391.78503198  -1391.78503198  -1391.78503197  -1391.78503197  -1391.78503197  -1391.78503197

 State:                8               9              10              11              12
 222a2ab 222     -0.00000000     -0.00000001      0.00000000     -0.00000000      0.00000000
 2222aab 222     -0.00000000      0.00000000     -0.00000000      0.00000000     -0.00000000
 22aa22b 222      0.00000000      0.00000000      0.00000000     -0.00000000     -0.00000000
 2aa222b 222      0.00000001     -0.00000000     -0.00000000     -0.00000000      0.00000000
 2a22a2b 222     -0.00000000      0.00000000     -0.00000000     -0.00000000     -0.00000000
 22a2a2b 222      0.00000000      0.00000000      0.00000000      0.00000000     -0.00000000
 2a2a22b 222      0.00000000     -0.00000000      0.00000000      0.00000002     -0.00000000
 2222aba 222      0.53270076     -0.00196162     -0.00000435     -0.00001350      0.00000847
 2222baa 222     -0.53270076      0.00196162      0.00000435      0.00001350     -0.00000847
 202222a 222      0.00195209      0.53032835      0.00009734      0.00014725      0.05021939
 222220a 222      0.00080859      0.22167321      0.00004813      0.00014914      0.48439065
 222022a 222     -0.00080859     -0.22167316     -0.00004813     -0.00014914     -0.48439063
 222202a 222     -0.00080859     -0.22167320     -0.00004813     -0.00014914     -0.48439062
 222b2aa 222      0.00178724      0.48438732      0.00008461      0.00008392     -0.22167471
 222a2ba 222     -0.00178724     -0.48438731     -0.00008461     -0.00008392      0.22167470
 2a222ab 222      0.00000000      0.00000000     -0.00000000     -0.00000002      0.00000000
 2a22b2a 222      0.00000346     -0.00008397      0.46133553     -0.00008088     -0.00000740
 2b22a2a 222     -0.00000346      0.00008397     -0.46133552      0.00008088      0.00000740
 2a2b22a 222     -0.00001126      0.00011989     -0.00008086     -0.46133552      0.00008720
 2b2a22a 222      0.00001126     -0.00011989      0.00008086      0.46133550     -0.00008720
 22ba22a 222     -0.00000346      0.00008397     -0.46133550      0.00008088      0.00000740
 22ab22a 222      0.00000346     -0.00008397      0.46133550     -0.00008088     -0.00000740
 22b2a2a 222     -0.00001126      0.00011989     -0.00008086     -0.46133549      0.00008720
 22a2b2a 222      0.00001126     -0.00011989      0.00008086      0.46133548     -0.00008720
 2ab222a 222     -0.46133242      0.00169882      0.00000377      0.00001170     -0.00000734
 2ba222a 222      0.46133241     -0.00169882     -0.00000377     -0.00001170      0.00000734
 220222a 222     -0.00114350     -0.30865515     -0.00004921      0.00000189      0.43417122
 22a22ab 222     -0.00000000      0.00000000     -0.00000002      0.00000000     -0.00000000
 222aa2b 222      0.00000001     -0.00000000      0.00000000      0.00000000     -0.00000000
 22a22ba 222      0.00000200     -0.00004848      0.26635222     -0.00004670     -0.00000427
 22b22aa 222     -0.00000200      0.00004848     -0.26635220      0.00004670      0.00000427
 2a222ba 222      0.00000650     -0.00006922      0.00004668      0.26635220     -0.00005035
 2b222aa 222     -0.00000650      0.00006922     -0.00004668     -0.26635218      0.00005035
 222ab2a 222      0.00000001     -0.00000000     -0.00000000     -0.00000000      0.00000000
 222ba2a 222     -0.00000003      0.00000000     -0.00000000     -0.00000000      0.00000000
 
 Energy:      -1391.74892373  -1391.74892373  -1391.74892373  -1391.74892372  -1391.74892372
 


 **********************************************************************************************************************************
 DATASETS  * FILE   NREC   LENGTH (MB)   RECORD NAMES
              1      24       36.58       500      610      700      900      950      970     1000      129      960     1700   
                                          VAR    BASINP    GEOM    SYMINP    ZMAT    AOBASIS   BASIS     P2S    ABASIS    OPER   
                                         1101     1401     1411     1412     1650     1100     1400     1410     1200     1210   
                                          SR      EKINR    POTR     PVPR    MOLCAS      S      EKIN      POT      H0       H01  
                                         1080     1600     1700(1)  1380   
                                         AOSYM     SMH     OPER     JKOP   

              2       6        1.31       700     1000      520     2100     2140     2141   
                                         GEOM     BASIS   MCVARS     RHF     MCSCF    MCSCF   

 PROGRAMS   *        TOTAL     MULTI     MULTI   RHF-SCF       INT
 CPU TIMES  *         5.91      3.28      1.02      0.58      0.87
 REAL TIME  *         7.68 SEC
 DISK USED  *        37.97 MB (local),      175.51 MB (total)
 SF USED    *        22.53 MB
 GA USED    *         0.00 MB       (max)       0.00 MB       (current)
 **********************************************************************************************************************************

 CASSCF energies and LL values

          ENERGY     LL
    -1391.807560   12.0
    -1391.807560   12.0
    -1391.807560   12.0
    -1391.807560   12.0
    -1391.807560   12.0
    -1391.807560   12.0
    -1391.807560   12.0
    -1391.752589   12.0
    -1391.752589   12.0
    -1391.752589   12.0
    -1391.752589   12.0
    -1391.752589   12.0
    -1391.752589   12.0
    -1391.752589   12.0
    -1391.738814    2.0
    -1391.738814    2.0
    -1391.738814    2.0
    -1391.683331    2.0
    -1391.683331    2.0
    -1391.683331    2.0
    -1391.785032   12.0
    -1391.785032   12.0
    -1391.785032   12.0
    -1391.785032   12.0
    -1391.785032   12.0
    -1391.785032   12.0
    -1391.785032   12.0
    -1391.748924    6.0
    -1391.748924    6.0
    -1391.748924    6.0
    -1391.748924    6.0
    -1391.748924    6.0
                                                  


 PROGRAM * CI (Multireference internally contracted CI)     Authors: H.-J. Werner, P.J. Knowles, 1987


 Convergence thresholds:  THRVAR = 1.00D-08  THRDEN = 1.00D-06

 Number of optimized states: 20  Roots:   1   2   3   4   5   6   7   8   9  10  11  12  13  14  15  16  17  18  19  20
 Number of reference states: 20  Roots:   1   2   3   4   5   6   7   8   9  10  11  12  13  14  15  16  17  18  19  20

 Reference symmetry:                   1   Quartet 
 Number of electrons:                 27
 Maximum number of shells:             3
 Maximum number of spin couplings:    14

 Reference space:       56 conf       56 CSFs
 N elec internal:      120 conf      120 CSFs
 N-1 el internal:      570 conf     1200 CSFs
 N-2 el internal:     1260 conf     7056 CSFs

 Number of electrons in valence space:                     17
 Maximum number of open shell orbitals in reference space:  3
 Maximum number of open shell orbitals in internal spaces:  7


 Number of core orbitals:           5 (   2   3 )
 Number of active  orbitals:       10 (   7   3 )
 Number of external orbitals:      87 (  48  39 )

[...]
    5    5.1  1.5  1.5   0.000%   0.004%   0.000%   0.000%   0.072%   0.000%   0.001%   0.000%   0.000%   0.008%
    6    6.1  1.5  1.5   0.004%   0.000%   0.000%   0.000%   0.000%   0.005%   0.000%   0.012%   0.001%   0.000%
    7    7.1  1.5  1.5   0.000%   0.004%   0.000%   0.000%   0.010%   0.000%   0.015%   0.001%   0.000%   0.010%
    8    8.1  1.5  1.5   0.000%   0.000%   0.000%   0.000%   0.000%   0.000%   0.000%   0.000%   0.000%   0.000%
    9    9.1  1.5  1.5   0.000%   0.000%   0.000%   0.000%   0.000%   0.000%   0.000%   0.000%   0.000%   0.000%
   10   10.1  1.5  1.5   0.000%   0.000%   0.000%   0.000%   0.001%   0.000%   0.000%   0.000%   0.000%   0.000%
   11   11.1  1.5  1.5   0.000%   0.000%   0.000%   0.000%   0.000%   0.000%   0.000%   0.000%   0.000%   0.000%
   12   12.1  1.5  1.5   0.000%   0.000%   0.000%   0.000%   0.000%   0.000%   0.000%   0.000%   0.000%   0.000%
   13   13.1  1.5  1.5   0.000%   0.000%   0.000%   0.000%   0.000%   0.000%   0.000%   0.000%   0.000%   0.000%
   14   14.1  1.5  1.5   0.000%   0.000%   0.000%   0.000%   0.000%   0.000%   0.000%   0.000%   0.000%   0.000%
   15   15.1  1.5  1.5   0.000%  13.907%   0.000%  24.997%   0.008%   0.001%   5.361%   0.198%   0.000%   0.114%
   16   16.1  1.5  1.5   0.000%  13.901%   0.000%  24.997%   0.008%   0.001%   5.363%   0.198%   0.001%   3.287%
   17   17.1  1.5  1.5   1.587%   0.000%   0.000%   0.000%   0.000%  16.654%   0.006%   0.021%   1.127%   0.000%
   18   18.1  1.5  1.5   0.000%   0.000%   0.000%   0.001%   0.000%   0.000%   0.000%   0.000%   0.000%   0.000%
   19   19.1  1.5  1.5   0.000%   0.000%   0.000%   0.001%   0.000%   0.000%   0.000%   0.000%   0.000%   0.000%
   20   20.1  1.5  1.5   0.000%   0.000%   0.000%   0.000%   0.000%   0.001%   0.000%   0.000%   0.000%   0.000%
   21    1.1  1.5  0.5   0.001%   0.000%   0.000%   0.000%   0.000%   0.000%   0.000%   0.001%   0.001%   0.000%
   22    2.1  1.5  0.5   0.025%   0.000%   0.000%   0.000%   0.000%   0.018%   0.002%   0.045%   0.007%   0.000%
   23    3.1  1.5  0.5   0.000%   0.013%   0.000%   0.000%   0.032%   0.000%   0.018%   0.001%   0.000%   0.006%
   24    4.1  1.5  0.5   0.000%   0.001%   0.000%   0.000%   0.041%   0.000%   0.000%   0.000%   0.000%   0.003%
   25    5.1  1.5  0.5   0.002%   0.000%   0.000%   0.000%   0.000%   0.002%   0.000%   0.007%   0.002%   0.000%
   26    6.1  1.5  0.5   0.000%   0.018%   0.000%   0.000%   0.010%   0.000%   0.053%   0.002%   0.000%   0.012%
   27    7.1  1.5  0.5   0.014%   0.000%   0.000%   0.000%   0.000%   0.012%   0.002%   0.043%   0.000%   0.000%
   28    8.1  1.5  0.5   0.000%   0.000%   0.000%   0.000%   0.000%   0.000%   0.000%   0.000%   0.000%   0.000%
   29    9.1  1.5  0.5   0.000%   0.000%   0.000%   0.000%   0.000%   0.000%   0.000%   0.000%   0.000%   0.000%
   30   10.1  1.5  0.5   0.000%   0.000%   0.000%   0.000%   0.000%   0.000%   0.000%   0.000%   0.000%   0.000%
   31   11.1  1.5  0.5   0.000%   0.000%   0.000%   0.000%   0.000%   0.000%   0.000%   0.000%   0.000%   0.000%
   32   12.1  1.5  0.5   0.000%   0.000%   0.000%   0.000%   0.000%   0.000%   0.000%   0.000%   0.000%   0.000%
   33   13.1  1.5  0.5   0.000%   0.000%   0.000%   0.000%   0.000%   0.000%   0.000%   0.000%   0.000%   0.000%
   34   14.1  1.5  0.5   0.000%   0.000%   0.000%   0.000%   0.000%   0.000%   0.000%   0.000%   0.000%   0.000%
   35   15.1  1.5  0.5  25.350%   0.000%   8.334%   0.000%   0.001%   6.046%   0.221%   6.703%   0.889%   0.001%
   36   16.1  1.5  0.5  12.808%   0.000%   8.335%   0.000%   0.001%   5.074%   0.309%   7.583%   7.739%   0.002%
   37   17.1  1.5  0.5   0.000%   4.635%   0.000%  33.334%   0.003%   0.000%   1.783%   0.066%   0.006%  13.851%
   38   18.1  1.5  0.5   0.000%   0.000%   0.000%   0.000%   0.000%   0.000%   0.000%   0.000%   0.000%   0.000%
   39   19.1  1.5  0.5   0.000%   0.000%   0.000%   0.000%   0.000%   0.000%   0.000%   0.000%   0.001%   0.000%
   40   20.1  1.5  0.5   0.000%   0.000%   0.000%   0.001%   0.000%   0.000%   0.000%   0.000%   0.000%   0.001%
   41    1.1  1.5 -0.5   0.000%   0.001%   0.000%   0.000%   0.000%   0.000%   0.001%   0.000%   0.000%   0.001%
   42    2.1  1.5 -0.5   0.000%   0.025%   0.000%   0.000%   0.018%   0.000%   0.045%   0.002%   0.000%   0.007%
   43    3.1  1.5 -0.5   0.013%   0.000%   0.000%   0.000%   0.000%   0.032%   0.001%   0.018%   0.006%   0.000%
   44    4.1  1.5 -0.5   0.001%   0.000%   0.000%   0.000%   0.000%   0.041%   0.000%   0.000%   0.003%   0.000%
   45    5.1  1.5 -0.5   0.000%   0.002%   0.000%   0.000%   0.002%   0.000%   0.007%   0.000%   0.000%   0.002%
   46    6.1  1.5 -0.5   0.018%   0.000%   0.000%   0.000%   0.000%   0.010%   0.002%   0.053%   0.012%   0.000%
   47    7.1  1.5 -0.5   0.000%   0.014%   0.000%   0.000%   0.012%   0.000%   0.043%   0.002%   0.000%   0.000%
   48    8.1  1.5 -0.5   0.000%   0.000%   0.000%   0.000%   0.000%   0.000%   0.000%   0.000%   0.000%   0.000%
   49    9.1  1.5 -0.5   0.000%   0.000%   0.000%   0.000%   0.000%   0.000%   0.000%   0.000%   0.000%   0.000%
   50   10.1  1.5 -0.5   0.000%   0.000%   0.000%   0.000%   0.000%   0.000%   0.000%   0.000%   0.000%   0.000%
   51   11.1  1.5 -0.5   0.000%   0.000%   0.000%   0.000%   0.000%   0.000%   0.000%   0.000%   0.000%   0.000%
   52   12.1  1.5 -0.5   0.000%   0.000%   0.000%   0.000%   0.000%   0.000%   0.000%   0.000%   0.000%   0.000%
   53   13.1  1.5 -0.5   0.000%   0.000%   0.000%   0.000%   0.000%   0.000%   0.000%   0.000%   0.000%   0.000%
   54   14.1  1.5 -0.5   0.000%   0.000%   0.000%   0.000%   0.000%   0.000%   0.000%   0.000%   0.000%   0.000%
   55   15.1  1.5 -0.5   0.000%  25.350%   0.000%   8.334%   6.046%   0.001%   6.703%   0.221%   0.001%   0.889%
   56   16.1  1.5 -0.5   0.000%  12.808%   0.000%   8.335%   5.074%   0.001%   7.583%   0.309%   0.002%   7.739%
   57   17.1  1.5 -0.5   4.635%   0.000%  33.334%   0.000%   0.000%   0.003%   0.066%   1.783%  13.851%   0.006%
   58   18.1  1.5 -0.5   0.000%   0.000%   0.000%   0.000%   0.000%   0.000%   0.000%   0.000%   0.000%   0.000%
   59   19.1  1.5 -0.5   0.000%   0.000%   0.000%   0.000%   0.000%   0.000%   0.000%   0.000%   0.000%   0.001%
   60   20.1  1.5 -0.5   0.000%   0.000%   0.001%   0.000%   0.000%   0.000%   0.000%   0.000%   0.001%   0.000%
   61    1.1  1.5 -1.5   0.002%   0.000%   0.000%   0.000%   0.000%   0.081%   0.000%   0.000%   0.005%   0.000%
   62    2.1  1.5 -1.5   0.006%   0.000%   0.000%   0.000%   0.000%   0.001%   0.001%   0.016%   0.023%   0.000%
   63    3.1  1.5 -1.5   0.000%   0.014%   0.000%   0.000%   0.003%   0.000%   0.028%   0.001%   0.000%   0.026%
   64    4.1  1.5 -1.5   0.000%   0.017%   0.000%   0.000%   0.000%   0.000%   0.040%   0.001%   0.000%   0.023%
   65    5.1  1.5 -1.5   0.004%   0.000%   0.000%   0.000%   0.000%   0.072%   0.000%   0.001%   0.008%   0.000%
   66    6.1  1.5 -1.5   0.000%   0.004%   0.000%   0.000%   0.005%   0.000%   0.012%   0.000%   0.000%   0.001%
   67    7.1  1.5 -1.5   0.004%   0.000%   0.000%   0.000%   0.000%   0.010%   0.001%   0.015%   0.010%   0.000%
   68    8.1  1.5 -1.5   0.000%   0.000%   0.000%   0.000%   0.000%   0.000%   0.000%   0.000%   0.000%   0.000%
   69    9.1  1.5 -1.5   0.000%   0.000%   0.000%   0.000%   0.000%   0.000%   0.000%   0.000%   0.000%   0.000%
   70   10.1  1.5 -1.5   0.000%   0.000%   0.000%   0.000%   0.000%   0.001%   0.000%   0.000%   0.000%   0.000%
   71   11.1  1.5 -1.5   0.000%   0.000%   0.000%   0.000%   0.000%   0.000%   0.000%   0.000%   0.000%   0.000%
   72   12.1  1.5 -1.5   0.000%   0.000%   0.000%   0.000%   0.000%   0.000%   0.000%   0.000%   0.000%   0.000%
   73   13.1  1.5 -1.5   0.000%   0.000%   0.000%   0.000%   0.000%   0.000%   0.000%   0.000%   0.000%   0.000%
   74   14.1  1.5 -1.5   0.000%   0.000%   0.000%   0.000%   0.000%   0.000%   0.000%   0.000%   0.000%   0.000%
   75   15.1  1.5 -1.5  13.907%   0.000%  24.997%   0.000%   0.001%   0.008%   0.198%   5.361%   0.114%   0.000%
   76   16.1  1.5 -1.5  13.901%   0.000%  24.997%   0.000%   0.001%   0.008%   0.198%   5.363%   3.287%   0.001%
   77   17.1  1.5 -1.5   0.000%   1.587%   0.000%   0.000%  16.654%   0.000%   0.021%   0.006%   0.000%   1.127%
   78   18.1  1.5 -1.5   0.000%   0.000%   0.001%   0.000%   0.000%   0.000%   0.000%   0.000%   0.000%   0.000%
   79   19.1  1.5 -1.5   0.000%   0.000%   0.001%   0.000%   0.000%   0.000%   0.000%   0.000%   0.000%   0.000%
   80   20.1  1.5 -1.5   0.000%   0.000%   0.000%   0.000%   0.001%   0.000%   0.000%   0.000%   0.000%   0.000%
   81    1.1  0.5  0.5   0.000%   0.000%   0.000%   0.000%   0.000%   0.000%   0.000%   0.000%   0.000%   0.116%
   82    2.1  0.5  0.5   0.000%   0.000%   0.000%   0.000%   0.000%   0.000%   0.000%   0.000%   0.005%   0.000%
   83    3.1  0.5  0.5   0.000%   0.000%   0.000%   0.000%   0.000%   0.000%   0.000%   0.000%   0.088%   0.000%
   84    4.1  0.5  0.5   0.000%   0.000%   0.000%   0.000%   0.000%   0.000%   0.000%   0.000%   0.000%   0.027%
   85    5.1  0.5  0.5   0.000%   0.000%   0.000%   0.000%   0.000%   0.000%   0.000%   0.000%   0.047%   0.000%
   86    6.1  0.5  0.5   0.000%   0.000%   0.000%   0.000%   0.000%   0.000%   0.000%   0.000%   0.000%   0.007%
   87    7.1  0.5  0.5   0.000%   0.000%   0.000%   0.000%   0.000%   0.000%   0.000%   0.000%   0.045%   0.000%
   88    8.1  0.5  0.5   9.904%   0.000%   0.000%   0.000%   0.002%   8.157%   0.679%  19.924%  27.684%   0.005%
   89    9.1  0.5  0.5   0.002%   9.854%   0.000%   0.000%   8.326%   0.009%  19.639%   0.798%   0.008%  39.850%
   90   10.1  0.5  0.5   6.301%   0.003%   0.000%   0.000%   0.008%   6.271%   0.983%  21.501%   3.182%   0.001%
   91   11.1  0.5  0.5   0.001%   0.407%   0.000%   0.000%  28.700%   0.002%   0.040%   0.012%   0.001%   0.115%
   92   12.1  0.5  0.5   0.000%   1.213%   0.000%   0.000%  20.434%   0.001%   7.970%   0.353%   0.002%   1.666%
   93    1.1  0.5 -0.5   0.000%   0.000%   0.000%   0.000%   0.000%   0.000%   0.000%   0.000%   0.116%   0.000%
   94    2.1  0.5 -0.5   0.000%   0.000%   0.000%   0.000%   0.000%   0.000%   0.000%   0.000%   0.000%   0.005%
   95    3.1  0.5 -0.5   0.000%   0.000%   0.000%   0.000%   0.000%   0.000%   0.000%   0.000%   0.000%   0.088%
   96    4.1  0.5 -0.5   0.000%   0.000%   0.000%   0.000%   0.000%   0.000%   0.000%   0.000%   0.027%   0.000%
   97    5.1  0.5 -0.5   0.000%   0.000%   0.000%   0.000%   0.000%   0.000%   0.000%   0.000%   0.000%   0.047%
   98    6.1  0.5 -0.5   0.000%   0.000%   0.000%   0.000%   0.000%   0.000%   0.000%   0.000%   0.007%   0.000%
   99    7.1  0.5 -0.5   0.000%   0.000%   0.000%   0.000%   0.000%   0.000%   0.000%   0.000%   0.000%   0.045%
  100    8.1  0.5 -0.5   0.000%   9.904%   0.000%   0.000%   8.157%   0.002%  19.924%   0.679%   0.005%  27.684%
  101    9.1  0.5 -0.5   9.854%   0.002%   0.000%   0.000%   0.009%   8.326%   0.798%  19.639%  39.850%   0.008%
  102   10.1  0.5 -0.5   0.003%   6.301%   0.000%   0.000%   6.271%   0.008%  21.501%   0.983%   0.001%   3.182%
  103   11.1  0.5 -0.5   0.407%   0.001%   0.000%   0.000%   0.002%  28.700%   0.012%   0.040%   0.115%   0.001%
  104   12.1  0.5 -0.5   1.213%   0.000%   0.000%   0.000%   0.001%  20.434%   0.353%   7.970%   1.666%   0.002%

   Nr   State  S   Sz     101      102      103      104

    1    1.1  1.5  1.5   0.016%   0.000%   0.000%   0.000%
    2    2.1  1.5  1.5   0.005%   0.000%   0.002%   0.000%
    3    3.1  1.5  1.5   0.000%   0.002%   0.000%   0.001%
    4    4.1  1.5  1.5   0.000%   0.003%   0.000%   0.001%
    5    5.1  1.5  1.5   0.012%   0.000%   0.002%   0.000%
    6    6.1  1.5  1.5   0.000%   0.030%   0.000%   0.000%
    7    7.1  1.5  1.5   0.009%   0.000%   0.011%   0.000%
    8    8.1  1.5  1.5   0.000%   0.000%   0.000%   0.000%
    9    9.1  1.5  1.5   0.000%   0.000%   0.000%   0.000%
   10   10.1  1.5  1.5   0.000%   0.000%   0.000%   0.000%
   11   11.1  1.5  1.5   0.000%   0.000%   0.000%   0.000%
   12   12.1  1.5  1.5   0.000%   0.000%   0.000%   0.000%
   13   13.1  1.5  1.5   0.000%   0.000%   0.000%   0.000%
   14   14.1  1.5  1.5   0.000%   0.000%   0.000%   0.000%
   15   15.1  1.5  1.5   0.049%   0.000%  14.690%   0.019%
   16   16.1  1.5  1.5   0.278%   0.000%  11.280%   0.014%
   17   17.1  1.5  1.5   0.004%   9.660%   0.000%   0.007%
   18   18.1  1.5  1.5   0.000%   0.000%   0.002%   0.000%
   19   19.1  1.5  1.5   0.000%   0.000%   0.001%   0.000%
   20   20.1  1.5  1.5   0.000%   0.001%   0.000%   0.000%
   21    1.1  1.5  0.5   0.000%   0.001%   0.000%   0.033%
   22    2.1  1.5  0.5   0.000%   0.017%   0.000%   0.000%
   23    3.1  1.5  0.5   0.007%   0.000%   0.012%   0.000%
   24    4.1  1.5  0.5   0.003%   0.000%   0.021%   0.000%
   25    5.1  1.5  0.5   0.000%   0.002%   0.000%   0.029%
   26    6.1  1.5  0.5   0.000%   0.000%   0.011%   0.000%
   27    7.1  1.5  0.5   0.000%   0.021%   0.000%   0.004%
   28    8.1  1.5  0.5   0.000%   0.000%   0.000%   0.000%
   29    9.1  1.5  0.5   0.000%   0.000%   0.000%   0.000%
   30   10.1  1.5  0.5   0.000%   0.000%   0.000%   0.000%
   31   11.1  1.5  0.5   0.000%   0.000%   0.000%   0.000%
   32   12.1  1.5  0.5   0.000%   0.000%   0.000%   0.000%
   33   13.1  1.5  0.5   0.000%   0.000%   0.000%   0.000%
   34   14.1  1.5  0.5   0.000%   0.000%   0.000%   0.000%
   35   15.1  1.5  0.5   0.004%  11.164%   0.000%   0.112%
   36   16.1  1.5  0.5   0.002%   4.189%   0.000%   0.233%
   37   17.1  1.5  0.5   1.671%   0.001%   0.669%   0.001%
   38   18.1  1.5  0.5   0.000%   0.001%   0.000%   0.000%
   39   19.1  1.5  0.5   0.000%   0.000%   0.000%   0.000%
   40   20.1  1.5  0.5   0.000%   0.000%   0.000%   0.000%
   41    1.1  1.5 -0.5   0.001%   0.000%   0.033%   0.000%
   42    2.1  1.5 -0.5   0.017%   0.000%   0.000%   0.000%
   43    3.1  1.5 -0.5   0.000%   0.007%   0.000%   0.012%
   44    4.1  1.5 -0.5   0.000%   0.003%   0.000%   0.021%
   45    5.1  1.5 -0.5   0.002%   0.000%   0.029%   0.000%
   46    6.1  1.5 -0.5   0.000%   0.000%   0.000%   0.011%
   47    7.1  1.5 -0.5   0.021%   0.000%   0.004%   0.000%
   48    8.1  1.5 -0.5   0.000%   0.000%   0.000%   0.000%
   49    9.1  1.5 -0.5   0.000%   0.000%   0.000%   0.000%
   50   10.1  1.5 -0.5   0.000%   0.000%   0.000%   0.000%
   51   11.1  1.5 -0.5   0.000%   0.000%   0.000%   0.000%
   52   12.1  1.5 -0.5   0.000%   0.000%   0.000%   0.000%
   53   13.1  1.5 -0.5   0.000%   0.000%   0.000%   0.000%
   54   14.1  1.5 -0.5   0.000%   0.000%   0.000%   0.000%
   55   15.1  1.5 -0.5  11.164%   0.004%   0.112%   0.000%
   56   16.1  1.5 -0.5   4.189%   0.002%   0.233%   0.000%
   57   17.1  1.5 -0.5   0.001%   1.671%   0.001%   0.669%
   58   18.1  1.5 -0.5   0.001%   0.000%   0.000%   0.000%
   59   19.1  1.5 -0.5   0.000%   0.000%   0.000%   0.000%
   60   20.1  1.5 -0.5   0.000%   0.000%   0.000%   0.000%
   61    1.1  1.5 -1.5   0.000%   0.016%   0.000%   0.000%
   62    2.1  1.5 -1.5   0.000%   0.005%   0.000%   0.002%
   63    3.1  1.5 -1.5   0.002%   0.000%   0.001%   0.000%
   64    4.1  1.5 -1.5   0.003%   0.000%   0.001%   0.000%
   65    5.1  1.5 -1.5   0.000%   0.012%   0.000%   0.002%
   66    6.1  1.5 -1.5   0.030%   0.000%   0.000%   0.000%
   67    7.1  1.5 -1.5   0.000%   0.009%   0.000%   0.011%
   68    8.1  1.5 -1.5   0.000%   0.000%   0.000%   0.000%
   69    9.1  1.5 -1.5   0.000%   0.000%   0.000%   0.000%
   70   10.1  1.5 -1.5   0.000%   0.000%   0.000%   0.000%
   71   11.1  1.5 -1.5   0.000%   0.000%   0.000%   0.000%
   72   12.1  1.5 -1.5   0.000%   0.000%   0.000%   0.000%
   73   13.1  1.5 -1.5   0.000%   0.000%   0.000%   0.000%
   74   14.1  1.5 -1.5   0.000%   0.000%   0.000%   0.000%
   75   15.1  1.5 -1.5   0.000%   0.049%   0.019%  14.690%
   76   16.1  1.5 -1.5   0.000%   0.278%   0.014%  11.280%
   77   17.1  1.5 -1.5   9.660%   0.004%   0.007%   0.000%
   78   18.1  1.5 -1.5   0.000%   0.000%   0.000%   0.002%
   79   19.1  1.5 -1.5   0.000%   0.000%   0.000%   0.001%
   80   20.1  1.5 -1.5   0.001%   0.000%   0.000%   0.000%
   81    1.1  0.5  0.5   0.020%   0.000%   0.007%   0.000%
   82    2.1  0.5  0.5   0.000%   0.031%   0.000%   0.107%
   83    3.1  0.5  0.5   0.000%   0.011%   0.000%   0.044%
   84    4.1  0.5  0.5   0.098%   0.000%   0.019%   0.000%
   85    5.1  0.5  0.5   0.000%   0.063%   0.000%   0.034%
   86    6.1  0.5  0.5   0.111%   0.000%   0.026%   0.000%
   87    7.1  0.5  0.5   0.000%   0.001%   0.000%   0.098%
   88    8.1  0.5  0.5   0.008%  14.978%   0.000%   0.835%
   89    9.1  0.5  0.5   0.444%   0.004%   3.187%   0.004%
   90   10.1  0.5  0.5   0.008%  39.907%   0.006%   0.403%
   91   11.1  0.5  0.5   7.842%   0.000%  35.516%   0.039%
   92   12.1  0.5  0.5   9.318%   0.004%  32.473%   0.045%
   93    1.1  0.5 -0.5   0.000%   0.020%   0.000%   0.007%
   94    2.1  0.5 -0.5   0.031%   0.000%   0.107%   0.000%
   95    3.1  0.5 -0.5   0.011%   0.000%   0.044%   0.000%
   96    4.1  0.5 -0.5   0.000%   0.098%   0.000%   0.019%
   97    5.1  0.5 -0.5   0.063%   0.000%   0.034%   0.000%
   98    6.1  0.5 -0.5   0.000%   0.111%   0.000%   0.026%
   99    7.1  0.5 -0.5   0.001%   0.000%   0.098%   0.000%
  100    8.1  0.5 -0.5  14.978%   0.008%   0.835%   0.000%
  101    9.1  0.5 -0.5   0.004%   0.444%   0.004%   3.187%
  102   10.1  0.5 -0.5  39.907%   0.008%   0.403%   0.006%
  103   11.1  0.5 -0.5   0.000%   7.842%   0.039%  35.516%
  104   12.1  0.5 -0.5   0.004%   9.318%   0.045%  32.473%


 Property matrices transformed in SO basis (not sym. adapted)
 ============================================================

 No matrix element <i|DMX|i> larger than 5E-7
 No matrix element <i|DMX|1> larger than 5E-7

 No matrix element <i|DMY|i> larger than 5E-7
 No matrix element <i|DMY|1> larger than 5E-7

 No matrix element <i|DMZ|i> larger than 5E-7
 No matrix element <i|DMZ|1> larger than 5E-7


 **********************************************************************************************************************************
 DATASETS  * FILE   NREC   LENGTH (MB)   RECORD NAMES
              1      24      163.83       500      610      700      900      950      970     1000      129      960     1700   
                                          VAR    BASINP    GEOM    SYMINP    ZMAT    AOBASIS   BASIS     P2S    ABASIS    OPER   
                                         1101     1401     1411     1412     1650     1100     1400     1410     1200     1210   
                                          SR      EKINR    POTR     PVPR    MOLCAS      S      EKIN      POT      H0       H01  
                                         1080     1600     1700(1)  1380   
                                         AOSYM     SMH     OPER     JKOP   

              2       8      780.42       700     1000      520     2100     2140     2141     5103     5101   
                                         GEOM     BASIS   MCVARS     RHF     MCSCF    MCSCF    MRCI     MRCI   

 PROGRAMS   *        TOTAL        CI     LSINT        CI        CI     MULTI     MULTI   RHF-SCF       INT
 CPU TIMES  *     28401.39  17473.79      4.18   2829.76   8087.71      3.28      1.02      0.58      0.87
 REAL TIME  *     29182.94 SEC
 DISK USED  *       817.09 MB (local),        3.65 GB (total)
 SF USED    *         5.40 GB
 GA USED    *         0.00 MB       (max)       0.00 MB       (current)
 **********************************************************************************************************************************

 CI/cc-pWCVTZ-DK energy=  -1392.477364502135

              CI              CI           MULTI           MULTI         RHF-SCF
  -1392.43166482  -1392.41414415  -1391.74892373  -1391.80758452  -1391.81034109
 **********************************************************************************************************************************
 Molpro calculation terminated with 2 warning(s)
