
 Working directory              : /wrk/irikura/molpro.piwP4odSij/
 Global scratch directory       : /wrk/irikura/molpro.piwP4odSij/
 Wavefunction directory         : /home/irikura/wfu/
 Main file repository           : /wrk/irikura/molpro.piwP4odSij/

 id        : nistki

 Nodes            nprocs
 pn112695.nist.gov   16
 GA implementation: MPI file
 GA implementation (serial work in mppx): MPI file

 Using customized tuning parameters: mindgm=1; mindgv=20; mindgc=4; mindgr=1; noblas=0; minvec=7
 default implementation of scratch files=sf  


 Variables initialized (1042), CPU time= 0.01 sec
 ***,Pb SO-CI
 memory,1500,M;
 
 gprint,orbitals,civector;
 
 symmetry,xyz
 geometry={Pb};
 
 basis=aug-cc-pwCV5Z-PP
 
                                                                                 ! spherical anion orbitals (4S)
 {rhf; wf,charge=-1,sym=2,spin=3}
 
 NTRIP=12
 NSING=15
 
                                                                                 ! add 7p to active space
 {multi
     closed,6,3
     occ,7,9
     wf,charge=0,sym=1,spin=2;state,NTRIP;
     wf,charge=0,sym=1,spin=0;state,NSING;
     expec2,lxx,lyy,lzz;
 }
 table, energy, ll
 title, Energies and &lt;L**2&gt; values
 
 core,0,0
 
 {ci;wf,sym=1,spin=2;state,NTRIP; save,5201.2}
 hlsdiag = energd4
 {ci;wf,sym=1,spin=0;state,NSING; save,5101.2}
 hlsdiag(NTRIP+1) = energd4
 
 table,hlsdiag
 
 {ci;hlsmat,ecp,5201.2,5101.2;print,vls=0,hls=0}                                 !compute and diagonalize SO matrix
 Commands initialized (847), CPU time= 0.02 sec, 718 directives.
 Default parameters read. Elapsed time= 0.21 sec

 Checking input...
 Passed
1


                                         ***  PROGRAM SYSTEM MOLPRO  ***
                                       Copyright, TTI GmbH Stuttgart, 2015
                                    Version 2024.1 linked Wed Jan 31 05:42:09 2024


 **********************************************************************************************************************************
 LABEL *   Pb SO-CI                                                                                                                                                      
  (32 PROC) 64 bit mpp version                                                           DATE: 07-Jun-24          TIME: 13:29:29  
 **********************************************************************************************************************************

 SHA1:             675817fde4514a4a933b69e420913a90cee4ef91
 **********************************************************************************************************************************

 Memory per process:      1500 MW
 Total memory per node:  24000 MW

 GA preallocation disabled
 GA check disabled

 Variable memory set to 1500.0 MW


 ZSYMEL=XYZ

 SETTING BASIS          =    AUG-CC-PWCV5Z-PP


 Recomputing integrals since basis changed


 Using spherical harmonics

 Library entry Pb   ECP ECP60MDF                 selected for group  1
 Library entry PB     S aug-cc-pwCV5Z-PP     selected for orbital group  1
 Library entry PB     P aug-cc-pwCV5Z-PP     selected for orbital group  1
 Library entry PB     D aug-cc-pwCV5Z-PP     selected for orbital group  1
 Library entry PB     F aug-cc-pwCV5Z-PP     selected for orbital group  1
 Library entry PB     G aug-cc-pwCV5Z-PP     selected for orbital group  1
 Library entry PB     H aug-cc-pwCV5Z-PP     selected for orbital group  1
 Library entry PB     I aug-cc-pwCV5Z-PP     selected for orbital group  1


 PROGRAM * SEWARD (Integral evaluation for generally contracted gaussian basis sets)     Author: Roland Lindh, 1990

 Geometry written to block  1 of record 700

 Orientation using atomic masses  
 Molecule type: Atom
 User-specified symmetry elements: XYZ
 Symmetry elements: XYZ
 Rotational constants:       0.0000000      0.0000000      0.0000000 GHz  (calculated with average atomic masses)

 Point group  Ci  



 ATOMIC COORDINATES

 NR  ATOM    CHARGE       X              Y              Z

   1  PB     22.00    0.000000000    0.000000000    0.000000000

 NUCLEAR CHARGE:                   22
 NUMBER OF PRIMITIVE AOS:         459
 NUMBER OF SYMMETRY AOS:          327
 NUMBER OF CONTRACTIONS:          265   (  129Ag  +  136Au  )
 NUMBER OF INNER CORE ORBITALS:     0   (    0Ag  +    0Au  )
 NUMBER OF OUTER CORE ORBITALS:     9   (    6Ag  +    3Au  )
 NUMBER OF VALENCE ORBITALS:        4   (    1Ag  +    3Au  )


 LX: Ag           LY: Ag           LZ: Ag 


 NUCLEAR REPULSION ENERGY    0.00000000

 EXTRA SYMMETRY OF AOS IN SYMMETRY 1:   1 1 1 1 1 1 1 1 1 1   1 1 2 3 4 5 6 2 3 4   5 6 2 3 4 5 6 2 3 4   5 6 2 3 4 5 6 2 3 4
                                        5 6 2 3 4 5 6 2 3 4   5 6 2 3 4 5 6 2 3 4   5 6 7 8 91011121314  15 7 8 9101112131415
                                        7 8 9101112131415 7   8 9101112131415 7 8   9101112131415 7 8 9  10111213141516171819
                                       202122232425262728
 EXTRA SYMMETRY OF AOS IN SYMMETRY 2:   1 2 3 1 2 3 1 2 3 1   2 3 1 2 3 1 2 3 1 2   3 1 2 3 1 2 3 1 2 3   1 2 3 1 2 3 4 5 6 7
                                        8 910 4 5 6 7 8 910   4 5 6 7 8 910 4 5 6   7 8 910 4 5 6 7 8 9  10 4 5 6 7 8 910 4 5
                                        6 7 8 910 4 5 6 7 8   9101112131415161718  19202111121314151617  18192021111213141516
                                       17181920211112131415  161718192021


 Eigenvalues of metric

         1 0.182E-04 0.215E-04 0.215E-04 0.215E-04 0.215E-04 0.215E-04 0.416E-04 0.287E-03
         2 0.228E-05 0.228E-05 0.228E-05 0.344E-03 0.344E-03 0.344E-03 0.263E-02 0.263E-02


 Contracted 2-electron integrals neglected if value below      1.0D-12
 AO integral compression algorithm  1   Integral accuracy      1.0D-12

     561.512 MB (compressed) written to integral file ( 13.7%)

     Node minimum: 25.952 MB, node maximum: 44.040 MB


 NUMBER OF SORTED TWO-ELECTRON INTEGRALS:   19555458.     BUFFER LENGTH:  32768
 NUMBER OF SEGMENTS:   2  SEGMENT LENGTH:   15983448      RECORD LENGTH: 524288

 Memory used in sort:      16.54 MW

 SORT1 READ   511790813. AND WROTE     3352297. INTEGRALS IN     10 RECORDS. CPU TIME:     2.34 SEC, REAL TIME:     2.41 SEC
 SORT2 READ    53582235. AND WROTE   312900871. INTEGRALS IN   2160 RECORDS. CPU TIME:     0.40 SEC, REAL TIME:     0.45 SEC

 Node minimum:    19543292.  Node maximum:    19581721. integrals

 OPERATOR DM      FOR CENTER  0  COORDINATES:    0.000000    0.000000    0.000000


 **********************************************************************************************************************************
 DATASETS  * FILE   NREC   LENGTH (MB)   RECORD NAMES
              1      19       30.46       500      610      700      900      950      970     1000      129      960     1100   
                                          VAR    BASINP    GEOM    SYMINP    ZMAT    AOBASIS   BASIS     P2S    ABASIS      S 
                                         1400     1410     1420     1200     1210     1080     1700     1600     1650   
                                           T        V       ECP      H0       H01     AOSYM    OPER      SMH    MOLCAS    

 PROGRAMS   *        TOTAL       INT
 CPU TIMES  *         8.08      7.70
 REAL TIME  *         9.32 SEC
 DISK USED  *        30.87 MB (local),        1.54 GB (total)
 GA USED    *         0.00 MB       (max)       0.00 MB       (current)
 **********************************************************************************************************************************


 Program * Restricted Hartree-Fock

 Orbital guess generated from atomic densities.

 Initial alpha occupancy:   7   6
 Initial beta  occupancy:   7   3

 NELEC=   23   SYM=2   MS2= 3   THRE=1.0D-08   THRD=3.2D-06   THRG=3.2D-06  HFMA2=F  DIIS_START=2   DIIS_MAX=10   DIIS_INCORE=F

 Level shifts:    0.00 (CLOSED)    0.00 (OPEN)    0.30 (GAP_MIN)

 ITER           ETOT              DE          GRAD        DDIFF     DIIS  NEXP   TIME(IT)  TIME(TOT)  DIAG
   1     -191.86191657    -191.86191657     0.00D+00     0.48D-01     0     0       0.13      0.29    start
   2     -191.86409280      -0.00217623     0.73D-03     0.11D-02     1     0       0.12      0.41    diag2
   3     -191.86432821      -0.00023541     0.41D-03     0.25D-03     2     0       0.12      0.53    diag2
   4     -191.86438882      -0.00006061     0.99D-04     0.18D-03     3     0       0.12      0.65    diag2
   5     -191.86439562      -0.00000680     0.26D-04     0.56D-04     4     0       0.13      0.78    diag2
   6     -191.86439685      -0.00000123     0.64D-05     0.33D-04     5     0       0.12      0.90    diag2
   7     -191.86439720      -0.00000034     0.26D-05     0.26D-04     6     0       0.12      1.02    diag2
   8     -191.86439724      -0.00000004     0.90D-06     0.83D-05     7     0       0.13      1.15    fixocc
   9     -191.86439724      -0.00000000     0.28D-06     0.14D-05     8     0       0.12      1.27    diag2
  10     -191.86439724      -0.00000000     0.58D-07     0.26D-06     0     0       0.12      1.39    diag/orth

 Final alpha occupancy:   7   6
 Final beta  occupancy:   7   3

 !RHF STATE 1.2 Energy               -191.864397240964
  RHF One-electron energy            -340.681921331122
  RHF Two-electron energy             148.817524090158
  RHF Kinetic energy                   62.712681310564
  RHF Nuclear energy                    0.000000000000
  RHF Virial quotient                  -3.059419454429

 !RHF STATE 1.2 Dipole moment           0.00000000     0.00000000     0.00000000
 Dipole moment /Debye                   0.00000000     0.00000000     0.00000000

 ELECTRON ORBITALS
 =================

  Orbital  Occupation    Energy    Cen Mu Typ  Coefficients
    1.1     2.00000    -5.94944     1  1  s    1.00000
    2.1     2.00000    -0.84961     1  1  d1+ -0.65073    1  1  d2+  0.68239
    3.1     2.00000    -0.84961     1  1  d2- -0.29890    1  1  d1+  0.75316    1  1  d2+  0.53157
    4.1     2.00000    -0.84961     1  1  d2-  0.90873    1  1  d2+  0.28577    1  1  d1- -0.28696
    5.1     2.00000    -0.84961     1  1  d2+  0.40589    1  1  d1-  0.89778
    6.1     2.00000    -0.84961     1  1  d0   0.99535
    7.1     2.00000    -0.35279     1  1  s   -0.38141    1  5  s    0.52245    1  6  s    0.42681    1 11  s   -0.25488
    1.2     2.00000    -3.63191     1  1  px   0.99440
    2.2     2.00000    -3.63191     1  1  pz   0.99691
    3.2     2.00000    -3.63191     1  1  py   0.99108
    4.2     1.00000    -0.05163     1  5  px   0.35286    1  6  px   0.37307    1  7  px   0.25182
    5.2     1.00000    -0.05163     1  5  pz   0.28353    1  6  pz   0.29977
    6.2     1.00000    -0.05163     1  5  py   0.28095    1  6  py   0.29704


 HOMO      6.2    -0.051629 =      -1.4049eV
 LUMO      7.2     0.120362 =       3.2752eV
 LUMO-HOMO         0.171991 =       4.6801eV

 Orbitals saved in record  2100.2


 **********************************************************************************************************************************
 DATASETS  * FILE   NREC   LENGTH (MB)   RECORD NAMES
              1      19       30.46       500      610      700      900      950      970     1000      129      960     1100   
                                          VAR    BASINP    GEOM    SYMINP    ZMAT    AOBASIS   BASIS     P2S    ABASIS      S 
                                         1400     1410     1420     1200     1210     1080     1700     1600     1650   
                                           T        V       ECP      H0       H01     AOSYM    OPER      SMH    MOLCAS    

              2       4        1.51       700     1000      520     2100   
                                         GEOM     BASIS   MCVARS     RHF  

 PROGRAMS   *        TOTAL   RHF-SCF       INT
 CPU TIMES  *         9.49      1.41      7.70
 REAL TIME  *        10.79 SEC
 DISK USED  *        36.68 MB (local),        1.63 GB (total)
 GA USED    *         0.00 MB       (max)       0.00 MB       (current)
 **********************************************************************************************************************************
 SETTING NTRIP          =        12.00000000                                  
 SETTING NSING          =        15.00000000                                  

 PROGRAM * MULTI (Direct Multiconfiguration SCF)       Authors: P.J. Knowles, H.-J. Werner (1984)
                                                                D.A. Kreplin, P.J. Knowles, H.-J. Werner (2019)

 Number of closed-shell orbitals:   9 (    6    3)
 Number of active  orbitals:        7 (    1    6)
 Number of external orbitals:     249 (  122  127)

 State symmetry 1

 Number of active electrons:   4    Spin symmetry=Triplet   Space symmetry=1
 Number of states:            12
 Number of CSFs:             120   (135 determinants, 245 intermediate states)

 State symmetry 2

 Number of active electrons:   4    Spin symmetry=Singlet   Space symmetry=1
 Number of states:            15
 Number of CSFs:             126   (261 determinants, 441 intermediate states)

 Molecular orbitals read from record     2100.2  Type=RHF/CANONICAL  
 *** IN SYMMETRY 1 ORBITAL  2 SYMMETRY CONTAMINATION OF 0.627D+00 HAS BEEN REMOVED
 *** IN SYMMETRY 1 ORBITAL  3 SYMMETRY CONTAMINATION OF 0.590D+00 HAS BEEN REMOVED
 *** IN SYMMETRY 1 ORBITAL  4 SYMMETRY CONTAMINATION OF 0.438D+00 HAS BEEN REMOVED
 *** IN SYMMETRY 1 ORBITAL  5 SYMMETRY CONTAMINATION OF 0.425D+00 HAS BEEN REMOVED
 *** IN SYMMETRY 1 ORBITAL  6 SYMMETRY CONTAMINATION OF 0.126D+00 HAS BEEN REMOVED

 EXTRA SYMMETRY OF MOS IN SYMMETRY 1:   1 5 4 3 6 2 1 1 6 4   2 3 5 1 2 6 4 5 314  15 8121310 711 9 1 6   4 2 5 31310 71514 8
                                       1211 9 6 4 2 5 3 1 7  1310 81211 91415 2 6   4 3 5 1 71310 81215  14 91125182017212423
                                       261927282216 6 4 3 5   2 7 8121310151411 9   1 3 5 6 4 2 7 81512  14131011 9 1 3 5 6 4
                                        2 1 3 5 6 4 2 1 1
 *** IN SYMMETRY 2 ORBITAL  1 SYMMETRY CONTAMINATION OF 0.105D+00 HAS BEEN REMOVED
 *** IN SYMMETRY 2 ORBITAL  2 SYMMETRY CONTAMINATION OF 0.757D-01 HAS BEEN REMOVED
 *** IN SYMMETRY 2 ORBITAL  3 SYMMETRY CONTAMINATION OF 0.160D+00 HAS BEEN REMOVED
 *** IN SYMMETRY 2 ORBITAL  4 SYMMETRY CONTAMINATION OF 0.160D+00 HAS BEEN REMOVED
 *** IN SYMMETRY 2 ORBITAL  5 SYMMETRY CONTAMINATION OF 0.432D+00 HAS BEEN REMOVED
 *** IN SYMMETRY 2 ORBITAL  6 SYMMETRY CONTAMINATION OF 0.482D+00 HAS BEEN REMOVED
 *** IN SYMMETRY 2 ORBITAL  7 SYMMETRY CONTAMINATION OF 0.168D-04 HAS BEEN REMOVED
 *** IN SYMMETRY 2 ORBITAL  8 SYMMETRY CONTAMINATION OF 0.199D-02 HAS BEEN REMOVED
 *** IN SYMMETRY 2 ORBITAL  9 SYMMETRY CONTAMINATION OF 0.199D-02 HAS BEEN REMOVED
 EXTRA SYMMETRY OF MOS IN SYMMETRY 2:   1 3 2 1 3 2 1 2 3 1   2 3 6 5 4 9 7 810 3   2 1 6 5 4 9 710 8 6   810 9 7 4 5 3 1 214
                                       16191517211312111820   810 6 4 5 9 7 3 2 1  16142113151718201112  19 810 6 4 5 7 91416
                                       211315172018191112 8  10 6 4 5 7 9 3 2 110   8 6 4 7 5 915172113  20181614191112 3 2 1
                                        4 6 5 810 7 9 2 1 3   2 1 3 2 1 3

 Wavefunction dump at record             2140.2

 Convergence thresholds  0.10E-04 (gradient)  0.10E-05 (energy)

 Weight factors for state symmetry  1:    0.03704   0.03704   0.03704   0.03704   0.03704   0.03704   0.03704   0.03704
                                          0.03704   0.03704   0.03704   0.03704
 Weight factors for state symmetry  2:    0.03704   0.03704   0.03704   0.03704   0.03704   0.03704   0.03704   0.03704
                                          0.03704   0.03704   0.03704   0.03704   0.03704   0.03704   0.03704
 
 Number of orbital rotations:  2021  ( 24 closed/active, 1113 closed/virtual, 0 active/active, 884 active/virtual )
 Total number of variables:    7556
 
 Second-order MCSCF: L-BFGS accelerated
 
 ITER  MIC  NCI  NEG     ENERGY(VAR)    ENERGY(PROJ) ENERGY CHANGE       GRAD(0)  GRAD(ORB)   GRAD(CI)      STEP      TIME
   1   14   20    0   -191.67385619    -191.71233738   -0.03848119    0.16902131 0.00155350 0.00000000  0.80E+00      2.64
   2    6   10    0   -191.71111451    -191.71315591   -0.00204140    0.11252863 0.00001583 0.00000000  0.81E-01      5.06
   3    5   10    0   -191.71316247    -191.71316254   -0.00000007    0.00066706 0.00000005 0.00000000  0.41E-03      7.01
   4    5   10    0   -191.71316254    -191.71316254    0.00000000    0.00000004 0.00000000 0.00000000  0.46E-07      8.81

 CONVERGENCE REACHED!  Final gradient:    0.00000000 ( 0.35E-08)
                       Final energy:   -191.71316254
 
 Results for state 1.1 Triplet
 =============================
 !MCSCF STATE 1.1 Triplet Energy              -191.834105702086
 Nuclear energy                                  0.00000000
 Kinetic energy                                 62.91937145
 One electron energy                          -336.51167743
 Two electron energy                           144.67757173
 Virial ratio                                    4.04888783
 
 !MCSCF STATE 1.1 Triplet Dipole moment          0.00000000     0.00000000     0.00000000
 Dipole moment /Debye                            0.00000000     0.00000000     0.00000000
 
 Results for state 2.1 Triplet
 =============================
 !MCSCF STATE 2.1 Triplet Energy              -191.834105701763
 Nuclear energy                                  0.00000000
 Kinetic energy                                 62.91937145
 One electron energy                          -336.51167744
 Two electron energy                           144.67757174
 Virial ratio                                    4.04888783
 
 !MCSCF STATE 2.1 Triplet Dipole moment          0.00000000     0.00000000     0.00000000
 Dipole moment /Debye                            0.00000000     0.00000000     0.00000000
 
 Results for state 3.1 Triplet
 =============================
 !MCSCF STATE 3.1 Triplet Energy              -191.834105700911
 Nuclear energy                                  0.00000000
 Kinetic energy                                 62.91937147
 One electron energy                          -336.51167750
 Two electron energy                           144.67757180
 Virial ratio                                    4.04888783
 
 !MCSCF STATE 3.1 Triplet Dipole moment          0.00000000     0.00000000     0.00000000
 Dipole moment /Debye                            0.00000000     0.00000000     0.00000000
 
 Results for state 4.1 Triplet
 =============================
 !MCSCF STATE 4.1 Triplet Energy              -191.670797135278
 Nuclear energy                                  0.00000000
 Kinetic energy                                 62.40825702
 One electron energy                          -331.69453329
 Two electron energy                           140.02373615
 Virial ratio                                    4.07124099
 
 !MCSCF STATE 4.1 Triplet Dipole moment          0.00000000     0.00000000     0.00000000
 Dipole moment /Debye                            0.00000000     0.00000000     0.00000000
 
 Results for state 5.1 Triplet
 =============================
 !MCSCF STATE 5.1 Triplet Energy              -191.670797135233
 Nuclear energy                                  0.00000000
 Kinetic energy                                 62.40825702
 One electron energy                          -331.69453328
 Two electron energy                           140.02373614
 Virial ratio                                    4.07124099
 
 !MCSCF STATE 5.1 Triplet Dipole moment          0.00000000     0.00000000     0.00000000
 Dipole moment /Debye                            0.00000000     0.00000000     0.00000000
 
 Results for state 6.1 Triplet
 =============================
 !MCSCF STATE 6.1 Triplet Energy              -191.670797135143
 Nuclear energy                                  0.00000000
 Kinetic energy                                 62.40825701
 One electron energy                          -331.69453328
 Two electron energy                           140.02373614
 Virial ratio                                    4.07124099
 
 !MCSCF STATE 6.1 Triplet Dipole moment          0.00000000     0.00000000     0.00000000
 Dipole moment /Debye                            0.00000000     0.00000000     0.00000000
 
 Results for state 7.1 Triplet
 =============================
 !MCSCF STATE 7.1 Triplet Energy              -191.670797134945
 Nuclear energy                                  0.00000000
 Kinetic energy                                 62.40825701
 One electron energy                          -331.69453324
 Two electron energy                           140.02373610
 Virial ratio                                    4.07124099
 
 !MCSCF STATE 7.1 Triplet Dipole moment          0.00000000     0.00000000     0.00000000
 Dipole moment /Debye                            0.00000000     0.00000000     0.00000000
 
 Results for state 8.1 Triplet
 =============================
 !MCSCF STATE 8.1 Triplet Energy              -191.670797134937
 Nuclear energy                                  0.00000000
 Kinetic energy                                 62.40825700
 One electron energy                          -331.69453324
 Two electron energy                           140.02373610
 Virial ratio                                    4.07124099
 
 !MCSCF STATE 8.1 Triplet Dipole moment          0.00000000     0.00000000     0.00000000
 Dipole moment /Debye                            0.00000000     0.00000000     0.00000000
 
 Results for state 9.1 Triplet
 =============================
 !MCSCF STATE 9.1 Triplet Energy              -191.667621983845
 Nuclear energy                                  0.00000000
 Kinetic energy                                 62.46995558
 One electron energy                          -332.00855738
 Two electron energy                           140.34093540
 Virial ratio                                    4.06815685
 
 !MCSCF STATE 9.1 Triplet Dipole moment          0.00000000     0.00000000     0.00000000
 Dipole moment /Debye                            0.00000000     0.00000000     0.00000000
 
 Results for state 10.1 Triplet
 ==============================
 !MCSCF STATE 10.1 Triplet Energy             -191.667621983780
 Nuclear energy                                  0.00000000
 Kinetic energy                                 62.46995557
 One electron energy                          -332.00855733
 Two electron energy                           140.34093534
 Virial ratio                                    4.06815685
 
 !MCSCF STATE 10.1 Triplet Dipole moment         0.00000000     0.00000000     0.00000000
 Dipole moment /Debye                            0.00000000     0.00000000     0.00000000
 
 Results for state 11.1 Triplet
 ==============================
 !MCSCF STATE 11.1 Triplet Energy             -191.667621983634
 Nuclear energy                                  0.00000000
 Kinetic energy                                 62.46995558
 One electron energy                          -332.00855739
 Two electron energy                           140.34093540
 Virial ratio                                    4.06815685
 
 !MCSCF STATE 11.1 Triplet Dipole moment         0.00000000     0.00000000     0.00000000
 Dipole moment /Debye                            0.00000000     0.00000000     0.00000000
 
 Results for state 12.1 Triplet
 ==============================
 !MCSCF STATE 12.1 Triplet Energy             -191.665163041101
 Nuclear energy                                  0.00000000
 Kinetic energy                                 62.40812784
 One electron energy                          -331.69354245
 Two electron energy                           140.02837941
 Virial ratio                                    4.07115707
 
 !MCSCF STATE 12.1 Triplet Dipole moment         0.00000000     0.00000000     0.00000000
 Dipole moment /Debye                            0.00000000     0.00000000     0.00000000
 
 Results for state 1.1 Singlet
 =============================
 !MCSCF STATE 1.1 Singlet Energy              -191.799359628252
 Nuclear energy                                  0.00000000
 Kinetic energy                                 62.88252282
 One electron energy                          -336.29658988
 Two electron energy                           144.49723025
 Virial ratio                                    4.05012189
 
 !MCSCF STATE 1.1 Singlet Dipole moment          0.00000000     0.00000000     0.00000000
 Dipole moment /Debye                            0.00000000     0.00000000     0.00000000
 
 Results for state 2.1 Singlet
 =============================
 !MCSCF STATE 2.1 Singlet Energy              -191.799359627976
 Nuclear energy                                  0.00000000
 Kinetic energy                                 62.88252283
 One electron energy                          -336.29658990
 Two electron energy                           144.49723027
 Virial ratio                                    4.05012189
 
 !MCSCF STATE 2.1 Singlet Dipole moment          0.00000000     0.00000000     0.00000000
 Dipole moment /Debye                            0.00000000     0.00000000     0.00000000
 
 Results for state 3.1 Singlet
 =============================
 !MCSCF STATE 3.1 Singlet Energy              -191.799359627672
 Nuclear energy                                  0.00000000
 Kinetic energy                                 62.88252283
 One electron energy                          -336.29658990
 Two electron energy                           144.49723027
 Virial ratio                                    4.05012189
 
 !MCSCF STATE 3.1 Singlet Dipole moment          0.00000000     0.00000000     0.00000000
 Dipole moment /Debye                            0.00000000     0.00000000     0.00000000
 
 Results for state 4.1 Singlet
 =============================
 !MCSCF STATE 4.1 Singlet Energy              -191.799359626598
 Nuclear energy                                  0.00000000
 Kinetic energy                                 62.88252284
 One electron energy                          -336.29658996
 Two electron energy                           144.49723033
 Virial ratio                                    4.05012189
 
 !MCSCF STATE 4.1 Singlet Dipole moment          0.00000000     0.00000000     0.00000000
 Dipole moment /Debye                            0.00000000     0.00000000     0.00000000
 
 Results for state 5.1 Singlet
 =============================
 !MCSCF STATE 5.1 Singlet Energy              -191.799359626580
 Nuclear energy                                  0.00000000
 Kinetic energy                                 62.88252284
 One electron energy                          -336.29658996
 Two electron energy                           144.49723033
 Virial ratio                                    4.05012189
 
 !MCSCF STATE 5.1 Singlet Dipole moment          0.00000000     0.00000000     0.00000000
 Dipole moment /Debye                            0.00000000     0.00000000     0.00000000
 
 Results for state 6.1 Singlet
 =============================
 !MCSCF STATE 6.1 Singlet Energy              -191.765029855937
 Nuclear energy                                  0.00000000
 Kinetic energy                                 62.81879597
 One electron energy                          -335.88479419
 Two electron energy                           144.11976434
 Virial ratio                                    4.05266962
 
 !MCSCF STATE 6.1 Singlet Dipole moment          0.00000000     0.00000000     0.00000000
 Dipole moment /Debye                            0.00000000     0.00000000     0.00000000
 
 Results for state 7.1 Singlet
 =============================
 !MCSCF STATE 7.1 Singlet Energy              -191.674554765899
 Nuclear energy                                  0.00000000
 Kinetic energy                                 62.40833966
 One electron energy                          -331.69516777
 Two electron energy                           140.02061300
 Virial ratio                                    4.07129713
 
 !MCSCF STATE 7.1 Singlet Dipole moment          0.00000000     0.00000000     0.00000000
 Dipole moment /Debye                            0.00000000     0.00000000     0.00000000
 
 Results for state 8.1 Singlet
 =============================
 !MCSCF STATE 8.1 Singlet Energy              -191.674554765887
 Nuclear energy                                  0.00000000
 Kinetic energy                                 62.40833966
 One electron energy                          -331.69516777
 Two electron energy                           140.02061300
 Virial ratio                                    4.07129713
 
 !MCSCF STATE 8.1 Singlet Dipole moment          0.00000000     0.00000000     0.00000000
 Dipole moment /Debye                            0.00000000     0.00000000     0.00000000
 
 Results for state 9.1 Singlet
 =============================
 !MCSCF STATE 9.1 Singlet Energy              -191.674554765643
 Nuclear energy                                  0.00000000
 Kinetic energy                                 62.40833965
 One electron energy                          -331.69516773
 Two electron energy                           140.02061296
 Virial ratio                                    4.07129713
 
 !MCSCF STATE 9.1 Singlet Dipole moment          0.00000000     0.00000000     0.00000000
 Dipole moment /Debye                            0.00000000     0.00000000     0.00000000
 
 Results for state 10.1 Singlet
 ==============================
 !MCSCF STATE 10.1 Singlet Energy             -191.659501341039
 Nuclear energy                                  0.00000000
 Kinetic energy                                 62.50879940
 One electron energy                          -332.23195817
 Two electron energy                           140.57245683
 Virial ratio                                    4.06612034
 
 !MCSCF STATE 10.1 Singlet Dipole moment         0.00000000     0.00000000     0.00000000
 Dipole moment /Debye                            0.00000000     0.00000000     0.00000000
 
 Results for state 11.1 Singlet
 ==============================
 !MCSCF STATE 11.1 Singlet Energy             -191.659501340903
 Nuclear energy                                  0.00000000
 Kinetic energy                                 62.50879940
 One electron energy                          -332.23195815
 Two electron energy                           140.57245681
 Virial ratio                                    4.06612034
 
 !MCSCF STATE 11.1 Singlet Dipole moment         0.00000000     0.00000000     0.00000000
 Dipole moment /Debye                            0.00000000     0.00000000     0.00000000
 
 Results for state 12.1 Singlet
 ==============================
 !MCSCF STATE 12.1 Singlet Energy             -191.659501340886
 Nuclear energy                                  0.00000000
 Kinetic energy                                 62.50879941
 One electron energy                          -332.23195822
 Two electron energy                           140.57245688
 Virial ratio                                    4.06612034
 
 !MCSCF STATE 12.1 Singlet Dipole moment         0.00000000     0.00000000     0.00000000
 Dipole moment /Debye                            0.00000000     0.00000000     0.00000000
 
 Results for state 13.1 Singlet
 ==============================
 !MCSCF STATE 13.1 Singlet Energy             -191.659501340458
 Nuclear energy                                  0.00000000
 Kinetic energy                                 62.50879941
 One electron energy                          -332.23195822
 Two electron energy                           140.57245688
 Virial ratio                                    4.06612034
 
 !MCSCF STATE 13.1 Singlet Dipole moment         0.00000000     0.00000000     0.00000000
 Dipole moment /Debye                            0.00000000     0.00000000     0.00000000
 
 Results for state 14.1 Singlet
 ==============================
 !MCSCF STATE 14.1 Singlet Energy             -191.659501340456
 Nuclear energy                                  0.00000000
 Kinetic energy                                 62.50879941
 One electron energy                          -332.23195822
 Two electron energy                           140.57245688
 Virial ratio                                    4.06612034
 
 !MCSCF STATE 14.1 Singlet Dipole moment         0.00000000     0.00000000     0.00000000
 Dipole moment /Debye                            0.00000000     0.00000000     0.00000000
 
 Results for state 15.1 Singlet
 ==============================
 !MCSCF STATE 15.1 Singlet Energy             -191.648057875013
 Nuclear energy                                  0.00000000
 Kinetic energy                                 62.56173653
 One electron energy                          -332.54969843
 Two electron energy                           140.90164055
 Virial ratio                                    4.06334300
 
 !MCSCF STATE 15.1 Singlet Dipole moment         0.00000000     0.00000000     0.00000000
 Dipole moment /Debye                            0.00000000     0.00000000     0.00000000
 
 State-averaged charge density matrix saved on record 2140.2 (density set 1)
 
 No non-zero expectation values
 
 Expectation values for two-electron operators:
 
 ? Warning
 ? Transition properties are only calculated between states of the same symmetry
 ? The problem occurs in mu_properties_expec2

 !MCSCF expec      <1.1 Triplet|LXLX|1.1 Triplet>     1.000000000000
 !MCSCF expec      <2.1 Triplet|LXLX|2.1 Triplet>     0.000000000000
 !MCSCF expec      <3.1 Triplet|LXLX|3.1 Triplet>     1.000000000000
 !MCSCF expec      <4.1 Triplet|LXLX|4.1 Triplet>     2.417194923591
 !MCSCF expec      <5.1 Triplet|LXLX|5.1 Triplet>     1.000000001096
 !MCSCF expec      <6.1 Triplet|LXLX|6.1 Triplet>     3.999999998283
 !MCSCF expec      <7.1 Triplet|LXLX|7.1 Triplet>     1.000000000000
 !MCSCF expec      <8.1 Triplet|LXLX|8.1 Triplet>     1.582793942971
 !MCSCF expec      <9.1 Triplet|LXLX|9.1 Triplet>     0.999999999932
 !MCSCF expec    <10.1 Triplet|LXLX|10.1 Triplet>     1.000000000000
 !MCSCF expec    <11.1 Triplet|LXLX|11.1 Triplet>     0.000000000044
 !MCSCF expec    <12.1 Triplet|LXLX|12.1 Triplet>    -0.000000000000
 !MCSCF expec      <1.1 Singlet|LXLX|1.1 Singlet>     2.614106106195
 !MCSCF expec      <2.1 Singlet|LXLX|2.1 Singlet>     1.000000000000
 !MCSCF expec      <3.1 Singlet|LXLX|3.1 Singlet>     3.999999999996
 !MCSCF expec      <4.1 Singlet|LXLX|4.1 Singlet>     1.000000000166
 !MCSCF expec      <5.1 Singlet|LXLX|5.1 Singlet>     1.385892868035
 !MCSCF expec      <6.1 Singlet|LXLX|6.1 Singlet>    -0.000000000000
 !MCSCF expec      <7.1 Singlet|LXLX|7.1 Singlet>     0.000000014407
 !MCSCF expec      <8.1 Singlet|LXLX|8.1 Singlet>     0.999999999939
 !MCSCF expec      <9.1 Singlet|LXLX|9.1 Singlet>     1.000000000000
 !MCSCF expec    <10.1 Singlet|LXLX|10.1 Singlet>     0.001044877434
 !MCSCF expec    <11.1 Singlet|LXLX|11.1 Singlet>     0.999999999987
 !MCSCF expec    <12.1 Singlet|LXLX|12.1 Singlet>     0.999999999924
 !MCSCF expec    <13.1 Singlet|LXLX|13.1 Singlet>     3.999999999799
 !MCSCF expec    <14.1 Singlet|LXLX|14.1 Singlet>     3.998955004591
 !MCSCF expec    <15.1 Singlet|LXLX|15.1 Singlet>    -0.000000000000
 
 !MCSCF expec      <1.1 Triplet|LYLY|1.1 Triplet>    -0.000000000000
 !MCSCF expec      <2.1 Triplet|LYLY|2.1 Triplet>     1.000000000000
 !MCSCF expec      <3.1 Triplet|LYLY|3.1 Triplet>     1.000000000000
 !MCSCF expec      <4.1 Triplet|LYLY|4.1 Triplet>     0.097454105047
 !MCSCF expec      <5.1 Triplet|LYLY|5.1 Triplet>     0.999999999547
 !MCSCF expec      <6.1 Triplet|LYLY|6.1 Triplet>     1.000000000618
 !MCSCF expec      <7.1 Triplet|LYLY|7.1 Triplet>     4.000000000000
 !MCSCF expec      <8.1 Triplet|LYLY|8.1 Triplet>     3.902549405291
 !MCSCF expec      <9.1 Triplet|LYLY|9.1 Triplet>     1.000000000000
 !MCSCF expec    <10.1 Triplet|LYLY|10.1 Triplet>    -0.000000000000
 !MCSCF expec    <11.1 Triplet|LYLY|11.1 Triplet>     1.000000000000
 !MCSCF expec    <12.1 Triplet|LYLY|12.1 Triplet>    -0.000000000000
 !MCSCF expec      <1.1 Singlet|LYLY|1.1 Singlet>     3.341326535391
 !MCSCF expec      <2.1 Singlet|LYLY|2.1 Singlet>     4.000000000000
 !MCSCF expec      <3.1 Singlet|LYLY|3.1 Singlet>     1.000000000003
 !MCSCF expec      <4.1 Singlet|LYLY|4.1 Singlet>     0.999999999858
 !MCSCF expec      <5.1 Singlet|LYLY|5.1 Singlet>     0.658674264113
 !MCSCF expec      <6.1 Singlet|LYLY|6.1 Singlet>    -0.000000000000
 !MCSCF expec      <7.1 Singlet|LYLY|7.1 Singlet>     1.000000000000
 !MCSCF expec      <8.1 Singlet|LYLY|8.1 Singlet>     1.000000000000
 !MCSCF expec      <9.1 Singlet|LYLY|9.1 Singlet>    -0.000000000000
 !MCSCF expec    <10.1 Singlet|LYLY|10.1 Singlet>     3.055458033082
 !MCSCF expec    <11.1 Singlet|LYLY|11.1 Singlet>     3.999999999913
 !MCSCF expec    <12.1 Singlet|LYLY|12.1 Singlet>     1.000000000278
 !MCSCF expec    <13.1 Singlet|LYLY|13.1 Singlet>     0.999999992805
 !MCSCF expec    <14.1 Singlet|LYLY|14.1 Singlet>     0.944538902163
 !MCSCF expec    <15.1 Singlet|LYLY|15.1 Singlet>    -0.000000000000
 
 !MCSCF expec      <1.1 Triplet|LZLZ|1.1 Triplet>     1.000000000000
 !MCSCF expec      <2.1 Triplet|LZLZ|2.1 Triplet>     1.000000000000
 !MCSCF expec      <3.1 Triplet|LZLZ|3.1 Triplet>     0.000000000000
 !MCSCF expec      <4.1 Triplet|LZLZ|4.1 Triplet>     3.485350971362
 !MCSCF expec      <5.1 Triplet|LZLZ|5.1 Triplet>     3.999999999357
 !MCSCF expec      <6.1 Triplet|LZLZ|6.1 Triplet>     1.000000001099
 !MCSCF expec      <7.1 Triplet|LZLZ|7.1 Triplet>     1.000000000000
 !MCSCF expec      <8.1 Triplet|LZLZ|8.1 Triplet>     0.514656651738
 !MCSCF expec      <9.1 Triplet|LZLZ|9.1 Triplet>     0.000000000068
 !MCSCF expec    <10.1 Triplet|LZLZ|10.1 Triplet>     1.000000000000
 !MCSCF expec    <11.1 Triplet|LZLZ|11.1 Triplet>     0.999999999956
 !MCSCF expec    <12.1 Triplet|LZLZ|12.1 Triplet>    -0.000000000000
 !MCSCF expec      <1.1 Singlet|LZLZ|1.1 Singlet>     0.044567358415
 !MCSCF expec      <2.1 Singlet|LZLZ|2.1 Singlet>     1.000000000000
 !MCSCF expec      <3.1 Singlet|LZLZ|3.1 Singlet>     1.000000000001
 !MCSCF expec      <4.1 Singlet|LZLZ|4.1 Singlet>     3.999999999976
 !MCSCF expec      <5.1 Singlet|LZLZ|5.1 Singlet>     3.955432867852
 !MCSCF expec      <6.1 Singlet|LZLZ|6.1 Singlet>    -0.000000000000
 !MCSCF expec      <7.1 Singlet|LZLZ|7.1 Singlet>     0.999999985594
 !MCSCF expec      <8.1 Singlet|LZLZ|8.1 Singlet>     0.000000000061
 !MCSCF expec      <9.1 Singlet|LZLZ|9.1 Singlet>     1.000000000000
 !MCSCF expec    <10.1 Singlet|LZLZ|10.1 Singlet>     2.943497089484
 !MCSCF expec    <11.1 Singlet|LZLZ|11.1 Singlet>     1.000000000100
 !MCSCF expec    <12.1 Singlet|LZLZ|12.1 Singlet>     3.999999999798
 !MCSCF expec    <13.1 Singlet|LZLZ|13.1 Singlet>     1.000000007396
 !MCSCF expec    <14.1 Singlet|LZLZ|14.1 Singlet>     1.056506093246
 !MCSCF expec    <15.1 Singlet|LZLZ|15.1 Singlet>    -0.000000000000
 
 !MCSCF expec      <1.1 Triplet|L**2|1.1 Triplet>     2.000000000000
 !MCSCF expec      <2.1 Triplet|L**2|2.1 Triplet>     2.000000000000
 !MCSCF expec      <3.1 Triplet|L**2|3.1 Triplet>     2.000000000000
 !MCSCF expec      <4.1 Triplet|L**2|4.1 Triplet>     6.000000000000
 !MCSCF expec      <5.1 Triplet|L**2|5.1 Triplet>     6.000000000000
 !MCSCF expec      <6.1 Triplet|L**2|6.1 Triplet>     6.000000000000
 !MCSCF expec      <7.1 Triplet|L**2|7.1 Triplet>     6.000000000000
 !MCSCF expec      <8.1 Triplet|L**2|8.1 Triplet>     6.000000000000
 !MCSCF expec      <9.1 Triplet|L**2|9.1 Triplet>     2.000000000000
 !MCSCF expec    <10.1 Triplet|L**2|10.1 Triplet>     2.000000000000
 !MCSCF expec    <11.1 Triplet|L**2|11.1 Triplet>     2.000000000000
 !MCSCF expec    <12.1 Triplet|L**2|12.1 Triplet>    -0.000000000000
 !MCSCF expec      <1.1 Singlet|L**2|1.1 Singlet>     6.000000000000
 !MCSCF expec      <2.1 Singlet|L**2|2.1 Singlet>     6.000000000000
 !MCSCF expec      <3.1 Singlet|L**2|3.1 Singlet>     6.000000000000
 !MCSCF expec      <4.1 Singlet|L**2|4.1 Singlet>     6.000000000000
 !MCSCF expec      <5.1 Singlet|L**2|5.1 Singlet>     6.000000000000
 !MCSCF expec      <6.1 Singlet|L**2|6.1 Singlet>    -0.000000000000
 !MCSCF expec      <7.1 Singlet|L**2|7.1 Singlet>     2.000000000000
 !MCSCF expec      <8.1 Singlet|L**2|8.1 Singlet>     2.000000000000
 !MCSCF expec      <9.1 Singlet|L**2|9.1 Singlet>     2.000000000000
 !MCSCF expec    <10.1 Singlet|L**2|10.1 Singlet>     6.000000000000
 !MCSCF expec    <11.1 Singlet|L**2|11.1 Singlet>     6.000000000000
 !MCSCF expec    <12.1 Singlet|L**2|12.1 Singlet>     6.000000000000
 !MCSCF expec    <13.1 Singlet|L**2|13.1 Singlet>     6.000000000000
 !MCSCF expec    <14.1 Singlet|L**2|14.1 Singlet>     6.000000000000
 !MCSCF expec    <15.1 Singlet|L**2|15.1 Singlet>    -0.000000000000
 
 EXTRA SYMMETRY OF MOS IN SYMMETRY 1:   1 6 2 4 3 5 1 1 6 2   4 3 5 1 6 2 4 3 511   7 812 915141310 1 6   2 4 5 311 7 812 915
                                       141310 6 2 4 5 3 111   7 812 915141310 6 2   4 3 5 111 7 812 915  14131027251721282326
                                       241920182216 2 6 4 3   511 7 812 915141013   1 2 6 4 3 511 712 8   915141013 1 2 6 4 3
                                        5 1 2 5 3 6 4 1 1
 EXTRA SYMMETRY OF MOS IN SYMMETRY 2:   3 2 1 1 2 3 1 2 3 2   3 1 5 6 4 810 9 7 3   2 1 5 6 4 810 9 7 5   6 4 810 7 9 3 2 112
                                       19211311161415171820   5 6 4 810 7 9 3 2 1  12192113111614151718  20 5 6 4 810 7 91219
                                       211311161415172018 5   6 4 810 7 9 3 2 1 5   6 410 8 7 912192113  11141615171820 3 2 1
                                        5 6 410 8 9 7 2 1 3   2 1 3 2 1 3
 
  NATURAL ORBITALS (STATE AVERAGED)
  =================================

  Orbital  Occupation    Energy    Cen Mu Typ  Coefficients
    1.1     2.00000    -6.28573     1  1  s    0.99856
    2.1     2.00000    -1.18613     1  1  d1-  1.00154
    3.1     2.00000    -1.18613     1  1  d0   1.00154
    4.1     2.00000    -1.18613     1  1  d1+  1.00154
    5.1     2.00000    -1.18613     1  1  d2-  1.00154
    6.1     2.00000    -1.18613     1  1  d2+  1.00154
    7.1     1.97230    -0.65323     1  1  s   -0.40506    1  5  s    0.62870    1  6  s    0.43427    1 11  s   -0.27089
    1.2     2.00000    -3.96844     1  1  pz   0.99972
    2.2     2.00000    -3.96844     1  1  py   0.99972
    3.2     2.00000    -3.96844     1  1  px   0.99972
    4.2     0.45354    -0.11349     1  1  px  -0.27102    1  5  px   0.50589    1  6  px   0.39636
    5.2     0.45354    -0.11349     1  1  py  -0.27102    1  5  py   0.50589    1  6  py   0.39636
    6.2     0.45354    -0.11349     1  1  pz  -0.27102    1  5  pz   0.50589    1  6  pz   0.39636
    7.2     0.22236     0.01673     1 12  px   1.12459
    8.2     0.22236     0.01673     1 12  py   1.12459
    9.2     0.22236     0.01673     1 12  pz   1.12459
 
 Natural orbital dump (state averaged) at molpro section 2140.2 (Orbital set 2)
 
 Transform the CI vectors
 
 CI Coefficients of symmetry 1 (Triplet)
 =======================================

 State:              1               2               3               4               5               6               7
 2 a0a000       0.98591397      0.00000000     -0.00000000      0.00000000     -0.00000000      0.00000000      0.00000000
 2 0aa000      -0.00000000      0.98591397      0.00000037      0.00000000      0.00000000      0.00000003      0.00000000
 2 aa0000       0.00000000     -0.00000037      0.98591397     -0.00000000     -0.00000002      0.00000000      0.00000000
 2 0a00a0      -0.00000000     -0.00000000      0.00000000      0.80046763     -0.00002837     -0.00001049      0.00000009
 2 00a00a       0.00000000     -0.00000000      0.00000000     -0.29068680      0.00000460      0.00001573     -0.00000003
 2 0a000a      -0.00000000      0.09616181      0.00000004      0.00000734      0.00000967      0.70182754     -0.00000104
 2 a0000a       0.09616181      0.00000000      0.00000000     -0.00000008     -0.00000058      0.00000104      0.70182753
 2 0a0a00      -0.00000000      0.00000004     -0.09616182      0.00002576      0.70182752     -0.00000967      0.00000059
 2 a000a0      -0.00000000     -0.00000004      0.09616186      0.00002576      0.70182748     -0.00000967      0.00000058
 2 00aa00      -0.09616182      0.00000000      0.00000000     -0.00000008     -0.00000059      0.00000104      0.70182748
 2 00a0a0      -0.00000000     -0.09616186     -0.00000004      0.00000734      0.00000967      0.70182746     -0.00000104
 2 a00a00       0.00000000     -0.00000000      0.00000000     -0.50978078      0.00002377     -0.00000524     -0.00000006
 0 a2a000      -0.09258422      0.00000000      0.00000000      0.00000000     -0.00000000      0.00000000      0.00000000
 0 2aa000       0.00000000     -0.09258422     -0.00000003     -0.00000000     -0.00000000     -0.00000000     -0.00000000
 0 aa2000      -0.00000000      0.00000003     -0.09258422      0.00000000      0.00000000     -0.00000000     -0.00000000
 0 0a20a0       0.00000000      0.00000000     -0.00000000     -0.06878756      0.00000244      0.00000090     -0.00000001
 0 2a00a0       0.00000000      0.00000000     -0.00000000     -0.06868314      0.00000243      0.00000091     -0.00000001
 0 02a00a      -0.00000000      0.00000000     -0.00000000      0.02464874     -0.00000038     -0.00000135      0.00000000
 0 20a00a      -0.00000000      0.00000000     -0.00000000      0.02527323     -0.00000041     -0.00000135      0.00000000
 0 2a000a       0.00000000     -0.00749199     -0.00000000     -0.00000063     -0.00000083     -0.06043248      0.00000009
 0 a2000a      -0.00749199      0.00000000     -0.00000000      0.00000001      0.00000005     -0.00000009     -0.06043248
 0 0a2a00       0.00000000     -0.00000000      0.00749199     -0.00000222     -0.06043247      0.00000083     -0.00000005
 0 02aa00       0.00749199      0.00000000     -0.00000000      0.00000001      0.00000005     -0.00000009     -0.06043247
 0 a020a0       0.00000000      0.00000000     -0.00749199     -0.00000222     -0.06043247      0.00000083     -0.00000005
 0 20a0a0       0.00000000      0.00749200      0.00000000     -0.00000063     -0.00000083     -0.06043247      0.00000009
 0 0a200a       0.00000000     -0.01705010     -0.00000001     -0.00000063     -0.00000083     -0.06009797      0.00000009
 0 2a0a00       0.00000000     -0.00000001      0.01705010     -0.00000221     -0.06009797      0.00000083     -0.00000005
 0 a0200a      -0.01705010     -0.00000000      0.00000000      0.00000001      0.00000005     -0.00000009     -0.06009797
 0 a200a0      -0.00000000      0.00000001     -0.01705010     -0.00000221     -0.06009797      0.00000083     -0.00000005
 0 20aa00       0.01705010      0.00000000     -0.00000000      0.00000001      0.00000005     -0.00000009     -0.06009797
 0 02a0a0      -0.00000000      0.01705010      0.00000001     -0.00000063     -0.00000083     -0.06009797      0.00000009
 0 a20a00      -0.00000000      0.00000000     -0.00000000      0.04351433     -0.00000203      0.00000046      0.00000000
 0 a02a00      -0.00000000      0.00000000     -0.00000000      0.04403439     -0.00000205      0.00000044      0.00000000
 
 Energy:     -191.83410570   -191.83410570   -191.83410570   -191.67079714   -191.67079714   -191.67079714   -191.67079713

 State:              8               9              10              11              12
 2 a0a000      -0.00000000     -0.00000001     -0.13707387      0.00000000     -0.00000000
 2 0aa000      -0.00000000     -0.00000113     -0.00000000     -0.13707390     -0.00000000
 2 aa0000      -0.00000000     -0.13707391      0.00000001      0.00000113     -0.00000000
 2 0a00a0      -0.12649399     -0.00000000      0.00000000     -0.00000000      0.57297331
 2 00a00a       0.75647226      0.00000000      0.00000000     -0.00000000      0.57297337
 2 0a000a      -0.00001177      0.00000573      0.00000000      0.69522848      0.00000000
 2 a0000a      -0.00000000      0.00000005      0.69522850     -0.00000000     -0.00000000
 2 0a0a00       0.00000563     -0.69522850      0.00000004      0.00000573      0.00000000
 2 a000a0       0.00000563      0.69522853     -0.00000005     -0.00000573      0.00000000
 2 00aa00      -0.00000000     -0.00000004     -0.69522854      0.00000000      0.00000000
 2 00a0a0      -0.00001177     -0.00000573     -0.00000000     -0.69522855     -0.00000000
 2 a00a00      -0.62997832     -0.00000000      0.00000000     -0.00000000      0.57297334
 0 a2a000      -0.00000000      0.00000000      0.01525602     -0.00000000     -0.00000000
 0 2aa000       0.00000000      0.00000013      0.00000000      0.01525602      0.00000000
 0 aa2000       0.00000000      0.01525602     -0.00000000     -0.00000013      0.00000000
 0 0a20a0       0.01053151      0.00000000     -0.00000000      0.00000000     -0.04958601
 0 2a00a0       0.01119232      0.00000000     -0.00000000      0.00000000     -0.04958601
 0 02a00a      -0.06507750     -0.00000000     -0.00000000      0.00000000     -0.04958602
 0 20a00a      -0.06483753     -0.00000000     -0.00000000      0.00000000     -0.04958602
 0 2a000a       0.00000101     -0.00000049     -0.00000000     -0.05999512     -0.00000000
 0 a2000a       0.00000000     -0.00000000     -0.05999512      0.00000000      0.00000000
 0 0a2a00      -0.00000049      0.05999512     -0.00000000     -0.00000049     -0.00000000
 0 02aa00       0.00000000      0.00000000      0.05999512     -0.00000000     -0.00000000
 0 a020a0      -0.00000049     -0.05999512      0.00000000      0.00000049     -0.00000000
 0 20a0a0       0.00000101      0.00000049      0.00000000      0.05999512      0.00000000
 0 0a200a       0.00000101     -0.00000047     -0.00000000     -0.05758031     -0.00000000
 0 2a0a00      -0.00000048      0.05758031     -0.00000000     -0.00000047     -0.00000000
 0 a0200a       0.00000000     -0.00000000     -0.05758031      0.00000000      0.00000000
 0 a200a0      -0.00000048     -0.05758032      0.00000000      0.00000047     -0.00000000
 0 20aa00       0.00000000      0.00000000      0.05758032     -0.00000000     -0.00000000
 0 02a0a0       0.00000101      0.00000047      0.00000000      0.05758032      0.00000000
 0 a20a00       0.05430602      0.00000000     -0.00000000      0.00000000     -0.04958602
 0 a02a00       0.05388518      0.00000000     -0.00000000      0.00000000     -0.04958602
 
 Energy:     -191.67079713   -191.66762198   -191.66762198   -191.66762198   -191.66516304
 
 
 CI Coefficients of symmetry 1 (Singlet)
 =======================================

 State:              1               2               3               4               5               6               7
 2 002000       0.79165885     -0.00000001     -0.00000095     -0.00000178     -0.08403294      0.54505940      0.00000000
 2 020000      -0.32305474      0.00000000      0.00000037      0.00001347      0.72761310      0.54505943     -0.00000000
 2 b0a000      -0.00000001     -0.68944828     -0.00000000      0.00000000      0.00000000     -0.00000000     -0.00000000
 2 a0b000       0.00000001      0.68944828      0.00000000     -0.00000000     -0.00000000      0.00000000      0.00000000
 2 0ab000       0.00000083     -0.00000000      0.68944827      0.00000060      0.00000002      0.00000000      0.00000002
 2 0ba000      -0.00000083      0.00000000     -0.68944827     -0.00000060     -0.00000002     -0.00000000     -0.00000002
 2 ab0000       0.00000020      0.00000000     -0.00000060      0.68944827     -0.00001268     -0.00000000     -0.00000000
 2 ba0000      -0.00000020     -0.00000000      0.00000060     -0.68944827      0.00001268      0.00000000      0.00000000
 2 200000      -0.46860405      0.00000000      0.00000058     -0.00001170     -0.64358019      0.54505943      0.00000000
 2 a00b00      -0.06762017      0.00000000      0.00000008     -0.00000169     -0.09286945      0.11443456      0.00000000
 2 b00a00       0.06762017     -0.00000000     -0.00000008      0.00000169      0.09286945     -0.11443456     -0.00000000
 2 0a0b00       0.00000003      0.00000000     -0.00000009      0.09948827     -0.00000183      0.00000000     -0.00005957
 2 0b0a00      -0.00000003     -0.00000000      0.00000009     -0.09948827      0.00000183     -0.00000000      0.00005957
 2 0a000b       0.00000012     -0.00000000      0.09948827      0.00000009      0.00000000      0.00000000      0.49630382
 2 0b000a      -0.00000012      0.00000000     -0.09948827     -0.00000009     -0.00000000     -0.00000000     -0.49630382
 2 00ab00       0.00000000      0.09948827     -0.00000000     -0.00000000     -0.00000000      0.00000000     -0.00000025
 2 00ba00      -0.00000000     -0.09948827      0.00000000      0.00000000      0.00000000     -0.00000000      0.00000025
 2 b0000a      -0.00000000     -0.09948827     -0.00000000     -0.00000000     -0.00000000      0.00000000     -0.00000025
 2 a0000b       0.00000000      0.09948827      0.00000000      0.00000000      0.00000000     -0.00000000      0.00000025
 2 00a0b0       0.00000012     -0.00000000      0.09948830      0.00000009      0.00000000     -0.00000000     -0.49630381
 2 00b0a0      -0.00000012      0.00000000     -0.09948830     -0.00000009     -0.00000000      0.00000000      0.49630381
 2 a000b0       0.00000003     -0.00000000     -0.00000009      0.09948830     -0.00000183      0.00000000      0.00005957
 2 b000a0      -0.00000003      0.00000000      0.00000009     -0.09948830      0.00000183     -0.00000000     -0.00005957
 2 0a00b0      -0.04661723      0.00000000      0.00000005      0.00000194      0.10499554      0.11443459     -0.00000000
 2 0b00a0       0.04661723     -0.00000000     -0.00000005     -0.00000194     -0.10499554     -0.11443459      0.00000000
 2 00b00a      -0.11423738      0.00000000      0.00000014      0.00000026      0.01212606     -0.11443455      0.00000000
 2 00a00b       0.11423738     -0.00000000     -0.00000014     -0.00000026     -0.01212606      0.11443455     -0.00000000
 0 220000       0.07423243     -0.00000000     -0.00000009     -0.00000017     -0.00787962     -0.09962833      0.00000000
 0 022000      -0.04394017      0.00000000      0.00000005     -0.00000110     -0.06034736     -0.09962833      0.00000000
 0 202000      -0.03029227      0.00000000      0.00000003      0.00000126      0.06822698     -0.09962833     -0.00000000
 0 b2a000       0.00000000      0.06464833     -0.00000000     -0.00000000     -0.00000000      0.00000000      0.00000000
 0 a2b000      -0.00000000     -0.06464833      0.00000000      0.00000000      0.00000000     -0.00000000     -0.00000000
 0 2ab000      -0.00000008      0.00000000     -0.06464833     -0.00000006     -0.00000000     -0.00000000     -0.00000000
 0 2ba000       0.00000008     -0.00000000      0.06464833      0.00000006      0.00000000      0.00000000      0.00000000
 0 ba2000       0.00000002      0.00000000     -0.00000006      0.06464833     -0.00000119     -0.00000000     -0.00000000
 0 ab2000      -0.00000002     -0.00000000      0.00000006     -0.06464833      0.00000119      0.00000000      0.00000000
 
 Energy:     -191.79935963   -191.79935963   -191.79935963   -191.79935963   -191.79935963   -191.76502986   -191.67455477

 State:              8               9              10              11              12              13              14
 2 002000       0.00000000     -0.00000000      0.08403676     -0.00000009     -0.00000036      0.00005884      0.14027032
 2 020000      -0.00000000     -0.00000000      0.07945931     -0.00000008      0.00000010     -0.00005921     -0.14291319
 2 b0a000      -0.00000000     -0.00000000      0.00000015      0.14161024     -0.00000070      0.00000000      0.00000000
 2 a0b000       0.00000000      0.00000000     -0.00000015     -0.14161024      0.00000070     -0.00000000     -0.00000000
 2 0ab000      -0.00000000     -0.00000000      0.00000063      0.00000000      0.00000039     -0.14161025      0.00005902
 2 0ba000       0.00000000      0.00000000     -0.00000063     -0.00000000     -0.00000039      0.14161025     -0.00005902
 2 ab0000      -0.00000002      0.00000000     -0.00000023     -0.00000070     -0.14161027     -0.00000039     -0.00000022
 2 ba0000       0.00000002     -0.00000000      0.00000023      0.00000070      0.14161027      0.00000039      0.00000022
 2 200000      -0.00000000     -0.00000000     -0.16349607      0.00000017      0.00000026      0.00000037      0.00264281
 2 a00b00       0.00000000      0.00000000      0.56133355     -0.00000058     -0.00000090     -0.00000127     -0.00907362
 2 b00a00      -0.00000000     -0.00000000     -0.56133355      0.00000058      0.00000090      0.00000127      0.00907362
 2 0a0b00      -0.49630382      0.00000004      0.00000079      0.00000241      0.48619259      0.00000133      0.00000077
 2 0b0a00       0.49630382     -0.00000004     -0.00000079     -0.00000241     -0.48619259     -0.00000133     -0.00000077
 2 0a000b      -0.00005957     -0.00000025     -0.00000217     -0.00000001     -0.00000132      0.48619255     -0.00020264
 2 0b000a       0.00005957      0.00000025      0.00000217      0.00000001      0.00000132     -0.48619255      0.00020264
 2 00ab00      -0.00000004     -0.49630382      0.00000050      0.48619260     -0.00000241      0.00000001      0.00000000
 2 00ba00       0.00000004      0.49630382     -0.00000050     -0.48619260      0.00000241     -0.00000001     -0.00000000
 2 b0000a      -0.00000004     -0.49630382     -0.00000050     -0.48619260      0.00000241     -0.00000001     -0.00000000
 2 a0000b       0.00000004      0.49630382      0.00000050      0.48619260     -0.00000241      0.00000001      0.00000000
 2 00a0b0       0.00005957      0.00000025     -0.00000217     -0.00000001     -0.00000132      0.48619256     -0.00020264
 2 00b0a0      -0.00005957     -0.00000025      0.00000217      0.00000001      0.00000132     -0.48619256      0.00020264
 2 a000b0       0.49630381     -0.00000004      0.00000079      0.00000241      0.48619260      0.00000133      0.00000077
 2 b000a0      -0.49630381      0.00000004     -0.00000079     -0.00000241     -0.48619260     -0.00000133     -0.00000077
 2 0a00b0       0.00000000     -0.00000000     -0.27280876      0.00000028     -0.00000033      0.00020328      0.49066585
 2 0b00a0      -0.00000000      0.00000000      0.27280876     -0.00000028      0.00000033     -0.00020328     -0.49066585
 2 00b00a      -0.00000000     -0.00000000      0.28852473     -0.00000030     -0.00000123      0.00020201      0.48159225
 2 00a00b       0.00000000      0.00000000     -0.28852473      0.00000030      0.00000123     -0.00020201     -0.48159225
 0 220000       0.00000000      0.00000000      0.00886513     -0.00000001     -0.00000004      0.00000621      0.01479727
 0 022000      -0.00000000      0.00000000     -0.01724737      0.00000002      0.00000003      0.00000004      0.00027880
 0 202000       0.00000000      0.00000000      0.00838224     -0.00000001      0.00000001     -0.00000625     -0.01507605
 0 b2a000       0.00000000      0.00000000     -0.00000002     -0.01493861      0.00000007     -0.00000000     -0.00000000
 0 a2b000      -0.00000000     -0.00000000      0.00000002      0.01493861     -0.00000007      0.00000000      0.00000000
 0 2ab000       0.00000000      0.00000000     -0.00000007     -0.00000000     -0.00000004      0.01493861     -0.00000623
 0 2ba000      -0.00000000     -0.00000000      0.00000007      0.00000000      0.00000004     -0.01493861      0.00000623
 0 ba2000      -0.00000000      0.00000000     -0.00000002     -0.00000007     -0.01493861     -0.00000004     -0.00000002
 0 ab2000       0.00000000     -0.00000000      0.00000002      0.00000007      0.01493861      0.00000004      0.00000002
 
 Energy:     -191.67455477   -191.67455477   -191.65950134   -191.65950134   -191.65950134   -191.65950134   -191.65950134

 State:             15
 2 002000      -0.15875068
 2 020000      -0.15875073
 2 b0a000      -0.00000000
 2 a0b000       0.00000000
 2 0ab000      -0.00000000
 2 0ba000       0.00000000
 2 ab0000      -0.00000000
 2 ba0000       0.00000000
 2 200000      -0.15875068
 2 a00b00       0.38855296
 2 b00a00      -0.38855296
 2 0a0b00      -0.00000000
 2 0b0a00       0.00000000
 2 0a000b       0.00000000
 2 0b000a      -0.00000000
 2 00ab00       0.00000000
 2 00ba00      -0.00000000
 2 b0000a       0.00000000
 2 a0000b      -0.00000000
 2 00a0b0      -0.00000000
 2 00b0a0       0.00000000
 2 a000b0      -0.00000000
 2 b000a0       0.00000000
 2 0a00b0       0.38855299
 2 0b00a0      -0.38855299
 2 00b00a      -0.38855300
 2 00a00b       0.38855300
 0 220000       0.03083882
 0 022000       0.03083882
 0 202000       0.03083882
 0 b2a000       0.00000000
 0 a2b000      -0.00000000
 0 2ab000       0.00000000
 0 2ba000      -0.00000000
 0 ba2000       0.00000000
 0 ab2000      -0.00000000
 
 Energy:     -191.64805788
 


 **********************************************************************************************************************************
 DATASETS  * FILE   NREC   LENGTH (MB)   RECORD NAMES
              1      21       86.94       500      610      700      900      950      970     1000      129      960     1100   
                                          VAR    BASINP    GEOM    SYMINP    ZMAT    AOBASIS   BASIS     P2S    ABASIS      S 
                                         1400     1410     1420     1200     1210     1080     1700     1600     1650     1380   
                                           T        V       ECP      H0       H01     AOSYM    OPER      SMH    MOLCAS    JKOP   
                                         1700(1)
                                         OPER   

              2       5        2.83       700     1000      520     2100     2140   
                                         GEOM     BASIS   MCVARS     RHF     MCSCF   

 PROGRAMS   *        TOTAL     MULTI   RHF-SCF       INT
 CPU TIMES  *        19.05      9.57      1.41      7.70
 REAL TIME  *        21.56 SEC
 DISK USED  *        89.89 MB (local),        2.46 GB (total)
 SF USED    *       148.91 MB
 GA USED    *         0.00 MB       (max)       0.00 MB       (current)
 **********************************************************************************************************************************

 Energies and &lt;L**2&gt; values

         ENERGY     LL
    -191.8341057   2.0
    -191.8341057   2.0
    -191.8341057   2.0
    -191.6707971   6.0
    -191.6707971   6.0
    -191.6707971   6.0
    -191.6707971   6.0
    -191.6707971   6.0
    -191.6676220   2.0
    -191.6676220   2.0
    -191.6676220   2.0
    -191.6651630  -0.0
    -191.7993596   6.0
    -191.7993596   6.0
    -191.7993596   6.0
    -191.7993596   6.0
    -191.7993596   6.0
    -191.7650299  -0.0
    -191.6745548   2.0
    -191.6745548   2.0
    -191.6745548   2.0
    -191.6595013   6.0
    -191.6595013   6.0
    -191.6595013   6.0
    -191.6595013   6.0
    -191.6595013   6.0
    -191.6480579  -0.0
                                                  


 PROGRAM * CI (Multireference internally contracted CI)     Authors: H.-J. Werner, P.J. Knowles, 1987


 Convergence thresholds:  THRVAR = 1.00D-08  THRDEN = 1.00D-06

 Number of optimized states: 12  Roots:   1   2   3   4   5   6   7   8   9  10  11  12
 Number of reference states: 12  Roots:   1   2   3   4   5   6   7   8   9  10  11  12

 Reference symmetry:                   1   Triplet 
 Number of electrons:                 22
 Maximum number of shells:             5
 Maximum number of spin couplings:    90

 Reference space:       90 conf      120 CSFs
 N elec internal:    18284 conf    76944 CSFs
 N-1 el internal:    12821 conf    88545 CSFs
 N-2 el internal:     4717 conf    46537 CSFs

 Number of electrons in valence space:                     22
 Maximum number of open shell orbitals in reference space:  4
 Maximum number of open shell orbitals in internal spaces: 10


 Number of closed-shell orbitals:   9 (   6   3 )
 Number of active  orbitals:        7 (   1   6 )
 Number of external orbitals:     249 ( 122 127 )

 Molecular orbitals read from record     2140.2  Type=MCSCF/NATURAL (state averaged)

 Valence orbitals related to previous ones by unitary transformation. Operators transformed.


 Number of p-space configurations:  15

 Reference wavefunction optimized for reference space (refopt=1)

 State     Reference Energy 
     1      -191.83410570
     2      -191.83410570
     3      -191.83410570
     4      -191.67079714
     5      -191.67079714
     6      -191.67079714
     7      -191.67079713
     8      -191.67079713
     9      -191.66762198
    10      -191.66762198
    11      -191.66762198
    12      -191.66516304

 ?WARNING: SMALL EIGENVALUE OF PAIR OVERLAP MATRIX:  0.2271D-06

 ?WARNING: SMALL EIGENVALUE OF PAIR OVERLAP MATRIX:  0.9556D-07

 ?WARNING: SMALL EIGENVALUE OF PAIR OVERLAP MATRIX:  0.2271D-06

 ?WARNING: SMALL EIGENVALUE OF PAIR OVERLAP MATRIX:  0.9556D-07

 ?WARNING: SMALL EIGENVALUE OF PAIR OVERLAP MATRIX:  0.2271D-06

 ?WARNING: SMALL EIGENVALUE OF PAIR OVERLAP MATRIX:  0.9556D-07

 ?WARNING: SMALL EIGENVALUE OF PAIR OVERLAP MATRIX:  0.2271D-06

 ?WARNING: SMALL EIGENVALUE OF PAIR OVERLAP MATRIX:  0.9556D-07

 ?WARNING: SMALL EIGENVALUE OF PAIR OVERLAP MATRIX:  0.2271D-06

 ?WARNING: SMALL EIGENVALUE OF PAIR OVERLAP MATRIX:  0.9556D-07

 ?WARNING: SMALL EIGENVALUE OF PAIR OVERLAP MATRIX:  0.2271D-06

 ?WARNING: SMALL EIGENVALUE OF PAIR OVERLAP MATRIX:  0.9556D-07

 ?WARNING: SMALL EIGENVALUE OF PAIR OVERLAP MATRIX:  0.2271D-06

 ?WARNING: SMALL EIGENVALUE OF PAIR OVERLAP MATRIX:  0.9556D-07

 ?WARNING: SMALL EIGENVALUE OF PAIR OVERLAP MATRIX:  0.2271D-06

 ?WARNING: SMALL EIGENVALUE OF PAIR OVERLAP MATRIX:  0.9556D-07

 ?WARNING: SMALL EIGENVALUE OF PAIR OVERLAP MATRIX:  0.2271D-06

 ?WARNING: SMALL EIGENVALUE OF PAIR OVERLAP MATRIX:  0.9556D-07

 ?WARNING: SMALL EIGENVALUE OF PAIR OVERLAP MATRIX:  0.2271D-06

 ?WARNING: SMALL EIGENVALUE OF PAIR OVERLAP MATRIX:  0.9556D-07

 ?WARNING: SMALL EIGENVALUE OF PAIR OVERLAP MATRIX:  0.2271D-06

 ?WARNING: SMALL EIGENVALUE OF PAIR OVERLAP MATRIX:  0.9556D-07

 ?WARNING: SMALL EIGENVALUE OF PAIR OVERLAP MATRIX:  0.2271D-06

 ?WARNING: SMALL EIGENVALUE OF PAIR OVERLAP MATRIX:  0.9556D-07

 ?WARNING: SMALL EIGENVALUE OF PAIR OVERLAP MATRIX:  0.2271D-06

 ?WARNING: SMALL EIGENVALUE OF PAIR OVERLAP MATRIX:  0.9556D-07

 ?WARNING: SMALL EIGENVALUE OF PAIR OVERLAP MATRIX:  0.2271D-06

 ?WARNING: SMALL EIGENVALUE OF PAIR OVERLAP MATRIX:  0.9556D-07

 ?WARNING: SMALL EIGENVALUE OF PAIR OVERLAP MATRIX:  0.2271D-06

 ?WARNING: SMALL EIGENVALUE OF PAIR OVERLAP MATRIX:  0.9556D-07

 ?WARNING: SMALL EIGENVALUE OF PAIR OVERLAP MATRIX:  0.2271D-06

 ?WARNING: SMALL EIGENVALUE OF PAIR OVERLAP MATRIX:  0.9556D-07

 ?WARNING: SMALL EIGENVALUE OF PAIR OVERLAP MATRIX:  0.2271D-06

 ?WARNING: SMALL EIGENVALUE OF PAIR OVERLAP MATRIX:  0.9556D-07

 ?WARNING: SMALL EIGENVALUE OF PAIR OVERLAP MATRIX:  0.2271D-06

 ?WARNING: SMALL EIGENVALUE OF PAIR OVERLAP MATRIX:  0.9556D-07

 Number of blocks in overlap matrix:  1180   Smallest eigenvalue:  0.96D-07
 Number of N-2 electron functions:    2329
 Number of N-1 electron functions:   88545

 Number of internal configurations:                38406
 Number of singly external configurations:      11024685
 Number of doubly external configurations:      36110269
 Total number of contracted configurations:     47173360
 Total number of uncontracted configurations:  731368774

 Diagonal Coupling coefficients finished.               Storage:  25397771 words, CPU-Time:     66.28 seconds.
 Energy denominators for pairs finished in 1 passes.    Storage:   3788890 words, CPU-time:      6.86 seconds.

  ITER. STATE  ROOT     SQ.NORM     CORR.ENERGY   TOTAL ENERGY   ENERGY CHANGE       DEN1      VAR(S)    VAR(P)      TIME
    1     1     1     1.00000000     0.00000000  -191.83410570     0.00000000    -0.96437043  0.52D-01  0.12D+00    87.57
    1     2     2     1.00000000     0.00000000  -191.83410570     0.00000000    -0.96424987  0.52D-01  0.12D+00    87.57
    1     3     3     1.00000000     0.00000000  -191.83410570     0.00000000    -0.96451629  0.53D-01  0.12D+00    87.57
    1     4     4     1.00000000     0.00000000  -191.67079714    -0.00000000    -0.91837254  0.40D-01  0.10D+00    87.57
    1     5     5     1.00000000     0.00000000  -191.67079714    -0.00000000    -0.91804243  0.40D-01  0.10D+00    87.57
    1     6     6     1.00000000     0.00000000  -191.67079714     0.00000000    -0.91803802  0.40D-01  0.10D+00    87.57
    1     7     7     1.00000000     0.00000000  -191.67079713    -0.00000000    -0.91804806  0.40D-01  0.10D+00    87.57
    1     8     8     1.00000000     0.00000000  -191.67079713     0.00000000    -0.91832927  0.40D-01  0.10D+00    87.57
    1     9     9     1.00000000     0.00000000  -191.66762198     0.00000000    -0.92198046  0.40D-01  0.11D+00    87.57
    1    10    10     1.00000000     0.00000000  -191.66762198     0.00000000    -0.92204787  0.40D-01  0.11D+00    87.57
    1    11    11     1.00000000     0.00000000  -191.66762198     0.00000000    -0.92203299  0.40D-01  0.11D+00    87.57
    1    12    12     1.00000000     0.00000000  -191.66516304    -0.00000000    -0.91876720  0.40D-01  0.11D+00    87.57
    2     1     1     1.10602361    -0.76316338  -192.59726908    -0.76316338    -0.02808725  0.49D-02  0.20D-02  2259.58
    2     2     2     1.10611445    -0.76306888  -192.59717458    -0.76306888    -0.02819189  0.49D-02  0.20D-02  2259.58
    2     3     3     1.10622837    -0.76295739  -192.59706309    -0.76295739    -0.02831311  0.50D-02  0.20D-02  2259.58
    2     4     4     1.09617229    -0.75270948  -192.42350662    -0.75270948    -0.02159341  0.28D-02  0.15D-02  2259.58
    2     5     5     1.09611351    -0.75270279  -192.42349992    -0.75270279    -0.02160996  0.28D-02  0.15D-02  2259.58
    2     6     6     1.09612518    -0.75268978  -192.42348691    -0.75268978    -0.02162334  0.28D-02  0.15D-02  2259.58
    2     7     7     1.09613354    -0.75267771  -192.42347484    -0.75267771    -0.02163849  0.29D-02  0.15D-02  2259.58
    2     8     8     1.09622241    -0.75266802  -192.42346515    -0.75266802    -0.02163798  0.28D-02  0.15D-02  2259.58
    2     9     9     1.09637243    -0.75314938  -192.42077136    -0.75314938    -0.02226393  0.31D-02  0.16D-02  2259.58
    2    10    10     1.09638812    -0.75313283  -192.42075481    -0.75313283    -0.02228208  0.31D-02  0.16D-02  2259.58
    2    11    11     1.09638032    -0.75311612  -192.42073811    -0.75311612    -0.02230252  0.31D-02  0.16D-02  2259.58
    2    12    12     1.09621905    -0.75285753  -192.41802057    -0.75285753    -0.02178468  0.29D-02  0.15D-02  2259.58
    3     1     1     1.09066214    -0.78943711  -192.62354282    -0.02627373    -0.00050427  0.84D-04  0.56D-04  4437.04
    3     2     2     1.09066297    -0.78943347  -192.62353917    -0.02636459    -0.00050801  0.85D-04  0.56D-04  4437.04
    3     3     3     1.09066303    -0.78942957  -192.62353527    -0.02647218    -0.00051190  0.86D-04  0.57D-04  4437.04
    3     4     4     1.08628279    -0.77289186  -192.44368899    -0.02018237    -0.00029859  0.34D-04  0.29D-04  4437.04
    3     5     5     1.08628089    -0.77289146  -192.44368859    -0.02018867    -0.00029889  0.34D-04  0.29D-04  4437.04
    3     6     6     1.08628245    -0.77289135  -192.44368848    -0.02020157    -0.00029898  0.35D-04  0.29D-04  4437.04
    3     7     7     1.08629811    -0.77288970  -192.44368684    -0.02021199    -0.00030108  0.34D-04  0.30D-04  4437.04
    3     8     8     1.08629727    -0.77288872  -192.44368585    -0.02022070    -0.00030182  0.34D-04  0.30D-04  4437.04
    3     9     9     1.08618621    -0.77390216  -192.44152414    -0.02075278    -0.00031401  0.35D-04  0.32D-04  4437.04
    3    10    10     1.08617964    -0.77390126  -192.44152324    -0.02076843    -0.00031458  0.35D-04  0.32D-04  4437.04
    3    11    11     1.08618596    -0.77390103  -192.44152302    -0.02078491    -0.00031474  0.35D-04  0.32D-04  4437.04
    3    12    12     1.08635275    -0.77320364  -192.43836668    -0.02034611    -0.00030358  0.32D-04  0.32D-04  4437.04
    4     1     1     1.09006780    -0.78995715  -192.62406285    -0.00052003    -0.00002200  0.38D-05  0.26D-05  6614.99
    4     2     2     1.09006731    -0.78995703  -192.62406273    -0.00052356    -0.00002212  0.38D-05  0.26D-05  6614.99
    4     3     3     1.09006635    -0.78995693  -192.62406263    -0.00052736    -0.00002221  0.38D-05  0.26D-05  6614.99
    4     4     4     1.08641031    -0.77319882  -192.44399596    -0.00030696    -0.00001143  0.21D-05  0.12D-05  6614.99
    4     5     5     1.08641061    -0.77319876  -192.44399590    -0.00030731    -0.00001141  0.21D-05  0.12D-05  6614.99
    4     6     6     1.08641022    -0.77319873  -192.44399586    -0.00030738    -0.00001144  0.21D-05  0.12D-05  6614.99
    4     7     7     1.08640699    -0.77319869  -192.44399583    -0.00030899    -0.00001169  0.22D-05  0.13D-05  6614.99
    4     8     8     1.08640666    -0.77319843  -192.44399556    -0.00030971    -0.00001170  0.22D-05  0.13D-05  6614.99
    4     9     9     1.08630176    -0.77422417  -192.44184615    -0.00032201    -0.00001227  0.23D-05  0.13D-05  6614.99
    4    10    10     1.08630140    -0.77422384  -192.44184583    -0.00032259    -0.00001225  0.23D-05  0.13D-05  6614.99
    4    11    11     1.08630092    -0.77422375  -192.44184574    -0.00032272    -0.00001230  0.23D-05  0.13D-05  6614.99
    4    12    12     1.08654542    -0.77351467  -192.43867771    -0.00031103    -0.00001210  0.20D-05  0.16D-05  6614.99
    5     1     1     1.09015992    -0.78998119  -192.62408689    -0.00002404    -0.00000083  0.66D-07  0.12D-06  8793.83
    5     2     2     1.09015969    -0.78998119  -192.62408689    -0.00002416    -0.00000083  0.66D-07  0.12D-06  8793.83
    5     3     3     1.09015930    -0.78998119  -192.62408689    -0.00002426    -0.00000083  0.67D-07  0.12D-06  8793.83
    5     4     4     1.08652399    -0.77321202  -192.44400915    -0.00001319    -0.00000050  0.31D-07  0.94D-07  8793.83
    5     5     5     1.08652395    -0.77321189  -192.44400902    -0.00001312    -0.00000049  0.32D-07  0.92D-07  8793.83
    5     6     6     1.08652379    -0.77321181  -192.44400894    -0.00001308    -0.00000049  0.32D-07  0.91D-07  8793.83
    5     7     7     1.08652383    -0.77321180  -192.44400893    -0.00001311    -0.00000049  0.32D-07  0.91D-07  8793.83
    5     8     8     1.08652356    -0.77321175  -192.44400889    -0.00001332    -0.00000050  0.31D-07  0.94D-07  8793.83
    5     9     9     1.08641643    -0.77423804  -192.44186002    -0.00001387    -0.00000054  0.44D-07  0.93D-07  8793.83
    5    10    10     1.08641594    -0.77423768  -192.44185967    -0.00001384    -0.00000054  0.44D-07  0.93D-07  8793.83
    5    11    11     1.08641589    -0.77423766  -192.44185964    -0.00001390    -0.00000054  0.44D-07  0.93D-07  8793.83
    5    12    12     1.08669927    -0.77352869  -192.43869173    -0.00001403    -0.00000062  0.32D-07  0.13D-06  8793.83
    6     1     1     1.09016663    -0.78998210  -192.62408780    -0.00000090    -0.00000004  0.38D-08  0.70D-08 10970.82
    6     2     2     1.09016661    -0.78998209  -192.62408780    -0.00000091    -0.00000004  0.38D-08  0.70D-08 10970.82
    6     3     3     1.09016656    -0.78998209  -192.62408780    -0.00000091    -0.00000004  0.39D-08  0.71D-08 10970.82
    6     4     4     1.08654225    -0.77321261  -192.44400975    -0.00000059    -0.00000003  0.27D-08  0.79D-08 10970.82
    6     5     5     1.08654274    -0.77321247  -192.44400961    -0.00000059    -0.00000003  0.29D-08  0.77D-08 10970.82
    6     6     6     1.08654266    -0.77321239  -192.44400953    -0.00000058    -0.00000003  0.29D-08  0.77D-08 10970.82
    6     7     7     1.08654260    -0.77321238  -192.44400952    -0.00000058    -0.00000003  0.28D-08  0.77D-08 10970.82
    6     8     8     1.08654199    -0.77321235  -192.44400948    -0.00000060    -0.00000003  0.28D-08  0.79D-08 10970.82
    6     9     9     1.08643277    -0.77423867  -192.44186065    -0.00000063    -0.00000004  0.38D-08  0.88D-08 10970.82
    6    10    10     1.08643240    -0.77423831  -192.44186029    -0.00000063    -0.00000004  0.38D-08  0.87D-08 10970.82
    6    11    11     1.08643225    -0.77423828  -192.44186027    -0.00000063    -0.00000004  0.38D-08  0.87D-08 10970.82
    6    12    12     1.08672586    -0.77352945  -192.43869249    -0.00000076    -0.00000005  0.44D-08  0.11D-07 10970.82
    7     1     1     1.09017369    -0.78998214  -192.62408785    -0.00000005    -0.00000000  0.20D-09  0.54D-09 13146.07
    7     2     2     1.09017369    -0.78998214  -192.62408784    -0.00000005    -0.00000000  0.20D-09  0.54D-09 13146.07
    7     3     3     1.09017371    -0.78998214  -192.62408784    -0.00000005    -0.00000000  0.20D-09  0.54D-09 13146.07
    7     4     4     1.08654703    -0.77321265  -192.44400979    -0.00000004    -0.00000000  0.28D-09  0.63D-09 13146.07
    7     5     5     1.08654679    -0.77321252  -192.44400965    -0.00000004    -0.00000000  0.28D-09  0.64D-09 13146.07
    7     6     6     1.08654667    -0.77321243  -192.44400957    -0.00000004    -0.00000000  0.27D-09  0.63D-09 13146.07
    7     7     7     1.08654666    -0.77321242  -192.44400956    -0.00000004    -0.00000000  0.27D-09  0.63D-09 13146.07
    7     8     8     1.08654676    -0.77321239  -192.44400953    -0.00000004    -0.00000000  0.28D-09  0.63D-09 13146.07
    7     9     9     1.08643682    -0.77423872  -192.44186070    -0.00000005    -0.00000000  0.37D-09  0.86D-09 13146.07
    7    10    10     1.08643634    -0.77423836  -192.44186034    -0.00000005    -0.00000000  0.36D-09  0.86D-09 13146.07
    7    11    11     1.08643630    -0.77423833  -192.44186032    -0.00000005    -0.00000000  0.37D-09  0.86D-09 13146.07
    7    12    12     1.08673096    -0.77352951  -192.43869256    -0.00000006    -0.00000000  0.41D-09  0.77D-09 13146.07


 =====================================
 Analysis of CPU times by interactions
 =====================================

       I      S      P

 I   0.2%
 S   0.2%  32.4%
 P   0.2%  24.9%  26.4%

 Initialization:   0.6%
 Other:           15.1%

 Total CPU:    13146.1 seconds
 =====================================



 Wavefunction saved on  5201.2

 Reference coefficients greater than 0.0500000
 =============================================
 22222222220//000           0.9490486  -0.0000000  -0.0000000  -0.0000000  -0.0000001   0.0000000   0.0000000  -0.0000000
                            0.0964061  -0.0000000  -0.0000007   0.0000000
 2222222222/0/000           0.0000000   0.9490415   0.0036797  -0.0000000  -0.0000000  -0.0000000  -0.0000012   0.0000000
                           -0.0000007  -0.0000330  -0.0964058   0.0000000
 2222222222//0000           0.0000000  -0.0036797   0.9490415   0.0000000   0.0000000  -0.0000035  -0.0000000  -0.0000000
                            0.0000000  -0.0964059   0.0000330   0.0000000
 2222222222/00/00          -0.0000000   0.0000000  -0.0000000  -0.0201654   0.0000007  -0.0001424  -0.0000000   0.7780224
                            0.0000000   0.0000000   0.0000000   0.5502591
 222222222200/00/           0.0000000   0.0000000  -0.0000000   0.6838800  -0.0000263   0.0000954   0.0000000  -0.3715784
                           -0.0000000   0.0000000  -0.0000000   0.5502256
 2222222222/000/0           0.0000000  -0.0002643   0.0681568  -0.0000274   0.0000000   0.6740537   0.0000000   0.0001227
[...]
 10  1    10    1  |1 1>+         0.00%    0.00%    0.00%    0.00%    0.00%   16.59%    0.00%    0.00%
 11  1    11    1  |1 1>+         0.00%    0.98%   10.65%    0.00%    0.00%    0.00%    0.00%    0.00%
 12  1    12    1  |1 1>+         0.00%    0.00%    0.00%    0.17%    0.00%    0.00%    0.00%    0.00%
 13  1     1    1  |1 0>          0.01%    0.00%    0.00%    0.06%    0.00%    0.00%    0.02%    0.00%
 14  1     2    1  |1 0>          0.00%    0.00%    0.00%    0.00%    0.00%    0.06%    0.00%    0.00%
 15  1     3    1  |1 0>          0.00%    0.02%    0.00%    0.00%    0.00%    0.00%    0.00%    0.00%
 16  1     4    1  |1 0>          0.01%    0.00%    0.00%    0.00%    5.37%    0.00%    0.00%    6.53%
 17  1     5    1  |1 0>          9.01%    0.00%    0.00%    5.22%    0.00%    0.00%    7.16%    0.00%
 18  1     6    1  |1 0>          0.00%    1.86%   34.22%    0.00%    0.00%    0.00%    0.00%    0.00%
 19  1     7    1  |1 0>          0.00%    0.00%    0.00%    0.00%    0.00%    5.22%    0.00%    0.00%
 20  1     8    1  |1 0>          0.02%    0.00%    0.00%    0.00%    1.59%    0.00%    0.00%   22.12%
 21  1     9    1  |1 0>          8.71%    0.00%    0.00%   16.59%    0.00%    0.00%   19.57%    0.00%
 22  1    10    1  |1 0>          0.00%   11.04%    0.60%    0.00%    0.00%    0.00%    0.00%    0.00%
 23  1    11    1  |1 0>          0.00%    0.00%    0.00%    0.00%    0.00%   16.59%    0.00%    0.00%
 24  1    12    1  |1 0>          0.00%    0.00%    0.00%    0.00%    0.17%    0.00%    0.00%    0.00%
 25  1     1    1  |1 1>-         0.00%    0.01%    0.01%    0.00%    0.00%    0.00%    0.00%    0.00%
 26  1     2    1  |1 1>-         0.00%    0.00%    0.00%    0.00%    0.06%    0.00%    0.00%    0.02%
 27  1     3    1  |1 1>-         0.01%    0.00%    0.00%    0.06%    0.00%    0.00%    0.02%    0.00%
 28  1     4    1  |1 1>-         0.00%    0.00%    0.00%    0.00%    0.00%    0.00%    0.00%    0.00%
 29  1     5    1  |1 1>-         0.00%   19.23%   16.85%    0.00%    0.00%    0.00%    0.00%    0.00%
 30  1     6    1  |1 1>-         9.01%    0.00%    0.00%    5.22%    0.00%    0.00%    7.17%    0.00%
 31  1     7    1  |1 1>-         0.01%    0.00%    0.00%    0.00%    5.22%    0.00%    0.00%    7.16%
 32  1     8    1  |1 1>-         0.00%    0.00%    0.00%    0.00%    0.00%    6.95%    0.00%    0.00%
 33  1     9    1  |1 1>-         0.00%    5.43%    6.20%    0.00%    0.00%    0.00%    0.00%    0.00%
 34  1    10    1  |1 1>-         8.72%    0.00%    0.00%   16.59%    0.00%    0.00%   19.57%    0.00%
 35  1    11    1  |1 1>-         0.01%    0.00%    0.00%    0.00%   16.59%    0.00%    0.00%   19.57%
 36  1    12    1  |1 1>-         0.00%    0.00%    0.00%    0.00%    0.00%    0.17%    0.00%    0.00%
 37  1     1    1  |0 0>          0.16%    0.00%    0.00%    0.00%    0.00%    0.00%    0.23%    0.00%
 38  1     2    1  |0 0>          0.00%    0.00%    0.00%    0.00%    0.00%    0.00%    0.00%    0.23%
 39  1     3    1  |0 0>          0.00%    0.00%    0.00%    0.00%    0.00%    0.00%    0.00%    0.00%
 40  1     4    1  |0 0>          0.00%    0.15%    0.02%    0.00%    0.00%    0.00%    0.00%    0.00%
 41  1     5    1  |0 0>          0.00%    0.02%    0.15%    0.00%    0.00%    0.00%    0.00%    0.00%
 42  1     6    1  |0 0>          0.00%    0.00%    0.00%    0.00%    0.00%    0.00%    0.00%    0.00%
 43  1     7    1  |0 0>          0.00%    0.00%    0.00%   49.13%    0.00%    0.00%    0.00%    0.00%
 44  1     8    1  |0 0>          0.00%    0.00%    0.00%    0.00%    0.00%   49.13%    0.00%    0.00%
 45  1     9    1  |0 0>          0.00%    0.00%    0.00%    0.00%   49.13%    0.00%    0.00%    0.00%
 46  1    10    1  |0 0>         28.23%    0.00%    0.00%    0.00%    0.00%    0.00%   17.62%    0.00%
 47  1    11    1  |0 0>          0.02%    0.00%    0.00%    0.00%    0.00%    0.00%    0.00%   17.62%
 48  1    12    1  |0 0>          0.00%    0.00%    0.00%    0.00%    0.00%    0.00%    0.00%    0.00%
 49  1    13    1  |0 0>          0.00%   21.98%    6.27%    0.00%    0.00%    0.00%    0.00%    0.00%
 50  1    14    1  |0 0>          0.00%    6.27%   21.98%    0.00%    0.00%    0.00%    0.00%    0.00%
 51  1    15    1  |0 0>          0.00%    0.00%    0.00%    0.00%    0.00%    0.00%    0.00%    0.00%

   Total
 Nr Sym  State Sym Spin / Nr.     33       34       35       36       37       38       39       40

  1  1     1    1  |1 1>+         0.00%    0.00%    0.00%    0.00%    0.00%    0.00%    0.00%    0.00%
  2  1     2    1  |1 1>+         0.00%    0.00%    0.02%    0.00%    0.00%    0.00%    0.00%    0.00%
  3  1     3    1  |1 1>+         0.02%    0.00%    0.00%    0.00%    0.00%    0.00%    0.00%    0.00%
  4  1     4    1  |1 1>+         0.00%    0.00%    0.00%    0.00%   51.36%    0.00%    0.00%    1.36%
  5  1     5    1  |1 1>+         0.00%    0.00%    0.00%   46.00%    0.00%    0.00%    0.00%    0.00%
  6  1     6    1  |1 1>+         7.16%    0.00%    0.00%    0.00%    0.00%   32.56%    0.00%    0.00%
  7  1     7    1  |1 1>+         0.00%   22.93%    5.72%    0.00%    0.00%    0.00%   33.34%    0.00%
  8  1     8    1  |1 1>+         0.00%    0.00%    0.00%    0.00%    0.39%    0.00%    0.00%   40.22%
  9  1     9    1  |1 1>+         0.00%    0.00%    0.00%    0.00%    0.00%    0.00%    0.00%    0.00%
 10  1    10    1  |1 1>+        19.57%    0.00%    0.00%    0.00%    0.00%    0.00%    0.00%    0.00%
 11  1    11    1  |1 1>+         0.00%    5.21%   20.88%    0.00%    0.00%    0.00%    0.00%    0.00%
 12  1    12    1  |1 1>+         0.00%    0.00%    0.00%    0.00%    0.00%    0.00%    0.00%    0.00%
 13  1     1    1  |1 0>          0.00%    0.00%    0.00%    0.00%    0.00%    0.00%    0.00%    0.00%
 14  1     2    1  |1 0>          0.02%    0.00%    0.00%    0.00%    0.00%    0.00%    0.00%    0.00%
 15  1     3    1  |1 0>          0.00%    0.01%    0.01%    0.00%    0.00%    0.00%    0.00%    0.00%
 16  1     4    1  |1 0>          0.00%    0.00%    0.00%   52.76%    0.00%    0.00%    0.00%    0.00%
 17  1     5    1  |1 0>          0.00%    0.00%    0.00%    0.00%   47.99%    0.00%    0.00%    5.35%
 18  1     6    1  |1 0>          0.00%   19.95%    8.71%    0.00%    0.00%    0.00%   33.34%    0.00%
 19  1     7    1  |1 0>          7.16%    0.00%    0.00%    0.00%    0.00%   34.11%    0.00%    0.00%
 20  1     8    1  |1 0>          0.00%    0.00%    0.00%    0.38%    0.00%    0.00%    0.00%    0.00%
 21  1     9    1  |1 0>          0.00%    0.00%    0.00%    0.00%    0.00%    0.00%    0.00%    0.00%
 22  1    10    1  |1 0>          0.00%    7.93%   18.16%    0.00%    0.00%    0.00%    0.00%    0.00%
 23  1    11    1  |1 0>         19.57%    0.00%    0.00%    0.00%    0.00%    0.00%    0.00%    0.00%
 24  1    12    1  |1 0>          0.00%    0.00%    0.00%    0.00%    0.00%    0.00%    0.00%    0.00%
 25  1     1    1  |1 1>-         0.00%    0.02%    0.00%    0.00%    0.00%    0.00%    0.00%    0.00%
 26  1     2    1  |1 1>-         0.00%    0.00%    0.00%    0.00%    0.00%    0.00%    0.00%    0.00%
 27  1     3    1  |1 1>-         0.00%    0.00%    0.00%    0.00%    0.00%    0.00%    0.00%    0.00%
 28  1     4    1  |1 1>-        28.65%    0.00%    0.00%    0.00%    0.00%   33.33%    0.00%    0.00%
 29  1     5    1  |1 1>-         0.00%    0.10%   28.55%    0.00%    0.00%    0.00%   33.33%    0.00%
 30  1     6    1  |1 1>-         0.00%    0.00%    0.00%    0.00%    0.26%    0.00%    0.00%   53.08%
 31  1     7    1  |1 1>-         0.00%    0.00%    0.00%    0.86%    0.00%    0.00%    0.00%    0.00%
 32  1     8    1  |1 1>-         0.02%    0.00%    0.00%    0.00%    0.00%    0.00%    0.00%    0.00%
 33  1     9    1  |1 1>-         0.00%   26.00%    0.09%    0.00%    0.00%    0.00%    0.00%    0.00%
 34  1    10    1  |1 1>-         0.00%    0.00%    0.00%    0.00%    0.00%    0.00%    0.00%    0.00%
 35  1    11    1  |1 1>-         0.00%    0.00%    0.00%    0.00%    0.00%    0.00%    0.00%    0.00%
 36  1    12    1  |1 1>-         0.00%    0.00%    0.00%    0.00%    0.00%    0.00%    0.00%    0.00%
 37  1     1    1  |0 0>          0.00%    0.00%    0.00%    0.00%    0.00%    0.00%    0.00%    0.00%
 38  1     2    1  |0 0>          0.00%    0.00%    0.00%    0.00%    0.00%    0.00%    0.00%    0.00%
 39  1     3    1  |0 0>          0.23%    0.00%    0.00%    0.00%    0.00%    0.00%    0.00%    0.00%
 40  1     4    1  |0 0>          0.00%    0.18%    0.04%    0.00%    0.00%    0.00%    0.00%    0.00%
 41  1     5    1  |0 0>          0.00%    0.04%    0.18%    0.00%    0.00%    0.00%    0.00%    0.00%
 42  1     6    1  |0 0>          0.00%    0.00%    0.00%    0.00%    0.00%    0.00%    0.00%    0.00%
 43  1     7    1  |0 0>          0.00%    0.00%    0.00%    0.00%    0.00%    0.00%    0.00%    0.00%
 44  1     8    1  |0 0>          0.00%    0.00%    0.00%    0.00%    0.00%    0.00%    0.00%    0.00%
 45  1     9    1  |0 0>          0.00%    0.00%    0.00%    0.00%    0.00%    0.00%    0.00%    0.00%
 46  1    10    1  |0 0>          0.00%    0.00%    0.00%    0.00%    0.00%    0.00%    0.00%    0.00%
 47  1    11    1  |0 0>          0.00%    0.00%    0.00%    0.00%    0.00%    0.00%    0.00%    0.00%
 48  1    12    1  |0 0>         17.62%    0.00%    0.00%    0.00%    0.00%    0.00%    0.00%    0.00%
 49  1    13    1  |0 0>          0.00%   16.39%    1.23%    0.00%    0.00%    0.00%    0.00%    0.00%
 50  1    14    1  |0 0>          0.00%    1.23%   16.39%    0.00%    0.00%    0.00%    0.00%    0.00%
 51  1    15    1  |0 0>          0.00%    0.00%    0.00%    0.00%    0.00%    0.00%    0.00%    0.00%

   Total
 Nr Sym  State Sym Spin / Nr.     41       42       43       44       45       46       47       48

  1  1     1    1  |1 1>+         0.00%    0.00%    0.00%    0.04%    0.00%    0.00%    0.07%    0.00%
  2  1     2    1  |1 1>+         0.00%    0.00%    0.00%    0.00%    0.00%    0.00%    0.00%    0.00%
  3  1     3    1  |1 1>+         0.00%    0.00%    0.00%    0.00%    0.04%    0.00%    0.00%    0.07%
  4  1     4    1  |1 1>+         0.00%    0.00%    0.04%    0.00%    0.00%    0.45%    0.00%    0.00%
  5  1     5    1  |1 1>+         7.34%    0.00%    0.00%    0.04%    0.00%    0.00%    0.41%    0.00%
  6  1     6    1  |1 1>+         0.00%   20.78%    0.00%    0.00%    0.04%    0.00%    0.00%    0.41%
  7  1     7    1  |1 1>+         0.00%    0.00%    0.00%    0.00%    0.00%    0.00%    0.00%    0.00%
  8  1     8    1  |1 1>+         0.00%    0.00%    0.01%    0.00%    0.00%    1.20%    0.00%    0.00%
  9  1     9    1  |1 1>+         0.00%    0.00%    0.00%    8.07%    0.00%    0.00%   21.66%    0.00%
 10  1    10    1  |1 1>+         0.00%    0.00%    0.00%    0.00%    8.07%    0.00%    0.00%   21.67%
 11  1    11    1  |1 1>+         0.00%    0.00%    0.00%    0.00%    0.00%    0.00%    0.00%    0.00%
 12  1    12    1  |1 1>+         0.00%    0.00%   70.76%    0.00%    0.00%    0.00%    0.00%    0.00%
 13  1     1    1  |1 0>          0.00%    0.00%    0.04%    0.00%    0.00%    0.07%    0.00%    0.00%
 14  1     2    1  |1 0>          0.00%    0.00%    0.00%    0.00%    0.04%    0.00%    0.00%    0.07%
 15  1     3    1  |1 0>          0.00%    0.00%    0.00%    0.00%    0.00%    0.00%    0.00%    0.00%
 16  1     4    1  |1 0>          1.16%    0.00%    0.00%    0.04%    0.00%    0.00%    0.38%    0.00%
 17  1     5    1  |1 0>          0.00%    0.00%    0.04%    0.00%    0.00%    0.41%    0.00%    0.00%
 18  1     6    1  |1 0>          0.00%    0.00%    0.00%    0.00%    0.00%    0.00%    0.00%    0.00%
 19  1     7    1  |1 0>          0.00%   19.23%    0.00%    0.00%    0.04%    0.00%    0.00%    0.41%
 20  1     8    1  |1 0>         39.03%    0.00%    0.00%    0.01%    0.00%    0.00%    1.27%    0.00%
 21  1     9    1  |1 0>          0.00%    0.00%    8.07%    0.00%    0.00%   21.66%    0.00%    0.00%
 22  1    10    1  |1 0>          0.00%    0.00%    0.00%    0.00%    0.00%    0.00%    0.00%    0.00%
 23  1    11    1  |1 0>          0.00%    0.00%    0.00%    0.00%    8.07%    0.00%    0.00%   21.67%
 24  1    12    1  |1 0>          0.00%    0.00%    0.00%   70.76%    0.00%    0.00%    0.00%    0.00%
 25  1     1    1  |1 1>-         0.00%    0.00%    0.00%    0.00%    0.00%    0.00%    0.00%    0.00%
 26  1     2    1  |1 1>-         0.00%    0.00%    0.00%    0.04%    0.00%    0.00%    0.07%    0.00%
 27  1     3    1  |1 1>-         0.00%    0.00%    0.04%    0.00%    0.00%    0.07%    0.00%    0.00%
 28  1     4    1  |1 1>-         0.00%    0.01%    0.00%    0.00%    0.00%    0.00%    0.00%    1.64%
 29  1     5    1  |1 1>-         0.00%    0.00%    0.00%    0.00%    0.00%    0.00%    0.00%    0.00%
 30  1     6    1  |1 1>-         0.00%    0.00%    0.04%    0.00%    0.00%    0.41%    0.00%    0.00%
 31  1     7    1  |1 1>-        52.47%    0.00%    0.00%    0.04%    0.00%    0.00%    0.41%    0.00%
 32  1     8    1  |1 1>-         0.00%   59.98%    0.00%    0.00%    0.05%    0.00%    0.00%    0.00%
 33  1     9    1  |1 1>-         0.00%    0.00%    0.00%    0.00%    0.00%    0.00%    0.00%    0.00%
 34  1    10    1  |1 1>-         0.00%    0.00%    8.07%    0.00%    0.00%   21.67%    0.00%    0.00%
 35  1    11    1  |1 1>-         0.00%    0.00%    0.00%    8.07%    0.00%    0.00%   21.67%    0.00%
 36  1    12    1  |1 1>-         0.00%    0.00%    0.00%    0.00%   70.76%    0.00%    0.00%    0.00%
 37  1     1    1  |0 0>          0.00%    0.00%    0.00%    0.00%    0.00%    0.01%    0.00%    0.00%
 38  1     2    1  |0 0>          0.00%    0.00%    0.00%    0.00%    0.00%    0.00%    0.01%    0.00%
 39  1     3    1  |0 0>          0.00%    0.00%    0.00%    0.00%    0.00%    0.00%    0.00%    0.01%
 40  1     4    1  |0 0>          0.00%    0.00%    0.00%    0.00%    0.00%    0.00%    0.00%    0.00%
 41  1     5    1  |0 0>          0.00%    0.00%    0.00%    0.00%    0.00%    0.00%    0.00%    0.00%
 42  1     6    1  |0 0>          0.00%    0.00%    0.00%    0.00%    0.00%    0.00%    0.00%    0.00%
 43  1     7    1  |0 0>          0.00%    0.00%   12.90%    0.00%    0.00%    0.00%    0.00%    0.00%
 44  1     8    1  |0 0>          0.00%    0.00%    0.00%    0.00%   12.90%    0.00%    0.00%    0.00%
 45  1     9    1  |0 0>          0.00%    0.00%    0.00%   12.90%    0.00%    0.00%    0.00%    0.00%
 46  1    10    1  |0 0>          0.00%    0.00%    0.00%    0.00%    0.00%   54.05%    0.00%    0.00%
 47  1    11    1  |0 0>          0.00%    0.00%    0.00%    0.00%    0.00%    0.00%   54.05%    0.00%
 48  1    12    1  |0 0>          0.00%    0.00%    0.00%    0.00%    0.00%    0.00%    0.00%   54.05%
 49  1    13    1  |0 0>          0.00%    0.00%    0.00%    0.00%    0.00%    0.00%    0.00%    0.00%
 50  1    14    1  |0 0>          0.00%    0.00%    0.00%    0.00%    0.00%    0.00%    0.00%    0.00%
 51  1    15    1  |0 0>          0.00%    0.00%    0.00%    0.00%    0.00%    0.00%    0.00%    0.00%

   Total
 Nr Sym  State Sym Spin / Nr.     49       50       51

  1  1     1    1  |1 1>+         0.00%    0.00%    0.00%
  2  1     2    1  |1 1>+         0.01%    0.08%    0.05%
  3  1     3    1  |1 1>+         0.00%    0.00%    0.00%
  4  1     4    1  |1 1>+         0.00%    0.00%    0.00%
  5  1     5    1  |1 1>+         0.00%    0.00%    0.00%
  6  1     6    1  |1 1>+         0.00%    0.00%    0.00%
  7  1     7    1  |1 1>+         1.42%    0.23%    0.00%
  8  1     8    1  |1 1>+         0.00%    0.00%    0.00%
  9  1     9    1  |1 1>+         0.00%    0.00%    0.00%
 10  1    10    1  |1 1>+         0.00%    0.00%    0.00%
 11  1    11    1  |1 1>+         3.98%   24.91%    8.01%
 12  1    12    1  |1 1>+         0.00%    0.00%    0.00%
 13  1     1    1  |1 0>          0.00%    0.00%    0.00%
 14  1     2    1  |1 0>          0.00%    0.00%    0.00%
 15  1     3    1  |1 0>          0.04%    0.06%    0.05%
 16  1     4    1  |1 0>          0.00%    0.00%    0.00%
 17  1     5    1  |1 0>          0.00%    0.00%    0.00%
 18  1     6    1  |1 0>          1.02%    0.63%    0.00%
 19  1     7    1  |1 0>          0.00%    0.00%    0.00%
 20  1     8    1  |1 0>          0.00%    0.00%    0.00%
 21  1     9    1  |1 0>          0.00%    0.00%    0.00%
 22  1    10    1  |1 0>         11.05%   17.84%    8.01%
 23  1    11    1  |1 0>          0.00%    0.00%    0.00%
 24  1    12    1  |1 0>          0.00%    0.00%    0.00%
 25  1     1    1  |1 1>-         0.09%    0.00%    0.05%
 26  1     2    1  |1 1>-         0.00%    0.00%    0.00%
 27  1     3    1  |1 1>-         0.00%    0.00%    0.00%
 28  1     4    1  |1 1>-         0.00%    0.00%    0.00%
 29  1     5    1  |1 1>-         0.03%    1.61%    0.00%
 30  1     6    1  |1 1>-         0.00%    0.00%    0.00%
 31  1     7    1  |1 1>-         0.00%    0.00%    0.00%
 32  1     8    1  |1 1>-         0.00%    0.00%    0.00%
 33  1     9    1  |1 1>-        28.30%    0.59%    8.00%
 34  1    10    1  |1 1>-         0.00%    0.00%    0.00%
 35  1    11    1  |1 1>-         0.00%    0.00%    0.00%
 36  1    12    1  |1 1>-         0.00%    0.00%    0.00%
 37  1     1    1  |0 0>          0.00%    0.00%    0.00%
 38  1     2    1  |0 0>          0.00%    0.00%    0.00%
 39  1     3    1  |0 0>          0.00%    0.00%    0.00%
 40  1     4    1  |0 0>          0.01%    0.00%    0.00%
 41  1     5    1  |0 0>          0.00%    0.01%    0.00%
 42  1     6    1  |0 0>          0.00%    0.00%    0.10%
 43  1     7    1  |0 0>          0.00%    0.00%    0.00%
 44  1     8    1  |0 0>          0.00%    0.00%    0.00%
 45  1     9    1  |0 0>          0.00%    0.00%    0.00%
 46  1    10    1  |0 0>          0.00%    0.00%    0.00%
 47  1    11    1  |0 0>          0.00%    0.00%    0.00%
 48  1    12    1  |0 0>          0.00%    0.00%    0.00%
 49  1    13    1  |0 0>         52.23%    1.82%    0.00%
 50  1    14    1  |0 0>          1.82%   52.23%    0.00%
 51  1    15    1  |0 0>          0.00%    0.00%   75.72%



 **********************************************************************************************************************************
 DATASETS  * FILE   NREC   LENGTH (MB)   RECORD NAMES
              1      21       86.94       500      610      700      900      950      970     1000      129      960     1100   
                                          VAR    BASINP    GEOM    SYMINP    ZMAT    AOBASIS   BASIS     P2S    ABASIS      S 
                                         1400     1410     1420     1200     1210     1080     1700     1600     1650     1380   
                                           T        V       ECP      H0       H01     AOSYM    OPER      SMH    MOLCAS    JKOP   
                                         1700(1)
                                         OPER   

              2       7     9806.69       700     1000      520     2100     2140     5201     5101   
                                         GEOM     BASIS   MCVARS     RHF     MCSCF    MRCI     MRCI   

 PROGRAMS   *        TOTAL        CI        CI        CI     MULTI   RHF-SCF       INT
 CPU TIMES  *    172289.59 144658.94  12948.14  14663.41      9.57      1.41      7.70
 REAL TIME  *    175203.00 SEC
 DISK USED  *         9.66 GB (local),      155.64 GB (total)
 SF USED    *        51.93 GB
 GA USED    *         0.00 MB       (max)       0.00 MB       (current)
 **********************************************************************************************************************************

 CI/aug-cc-pWCV5Z-PP energy=   -192.479003601985

              CI              CI           MULTI         RHF-SCF
   -192.42599839   -192.43869256   -191.65950134   -191.86439724
 **********************************************************************************************************************************
 Molpro calculation terminated with 1 warning(s)
