
 Working directory              : /wrk/irikura/molpro.lfApdtFoez/
 Global scratch directory       : /wrk/irikura/molpro.lfApdtFoez/
 Wavefunction directory         : /home/irikura/wfu/
 Main file repository           : /wrk/irikura/molpro.lfApdtFoez/

 id        : nistki

 Nodes            nprocs
 pn112695.nist.gov   12
 GA implementation: MPI file
 GA implementation (serial work in mppx): MPI file

 Using customized tuning parameters: mindgm=1; mindgv=20; mindgc=4; mindgr=1; noblas=0; minvec=7
 default implementation of scratch files=sf  


 Variables initialized (1042), CPU time= 0.02 sec
 ***,Pb SO-CI
 memory,1500,M;
 
 gprint,orbitals,civector;
 
 symmetry,xyz
 geometry={Pb};
 
 basis=aug-cc-pwCVTZ-PP
 
                                                                                 ! spherical anion orbitals (4S)
 {rhf; wf,charge=-1,sym=2,spin=3}
 
 NTRIP=12
 NSING=15
 
                                                                                 ! add 7p to active space
 {multi
     closed,6,3
     occ,7,9
     wf,charge=0,sym=1,spin=2;state,NTRIP;
     wf,charge=0,sym=1,spin=0;state,NSING;
     expec2,lxx,lyy,lzz;
 }
 table, energy, ll
 title, Energies and &lt;L**2&gt; values
 
 core,0,0
 
 {ci;wf,sym=1,spin=2;state,NTRIP; save,5201.2}
 hlsdiag = energd4
 {ci;wf,sym=1,spin=0;state,NSING; save,5101.2}
 hlsdiag(NTRIP+1) = energd4
 
 table,hlsdiag
 
 {ci;hlsmat,ecp,5201.2,5101.2;print,vls=0,hls=0}                                 !compute and diagonalize SO matrix
 Commands initialized (847), CPU time= 0.01 sec, 718 directives.
 Default parameters read. Elapsed time= 0.10 sec

 Checking input...
 Passed
1


                                         ***  PROGRAM SYSTEM MOLPRO  ***
                                       Copyright, TTI GmbH Stuttgart, 2015
                                    Version 2024.1 linked Wed Jan 31 05:42:09 2024


 **********************************************************************************************************************************
 LABEL *   Pb SO-CI                                                                                                                                                      
  (32 PROC) 64 bit mpp version                                                           DATE: 16-May-24          TIME: 09:40:15  
 **********************************************************************************************************************************

 SHA1:             675817fde4514a4a933b69e420913a90cee4ef91
 **********************************************************************************************************************************

 Memory per process:      1500 MW
 Total memory per node:  18000 MW

 GA preallocation disabled
 GA check disabled

 Variable memory set to 1500.0 MW


 ZSYMEL=XYZ

 SETTING BASIS          =    AUG-CC-PWCVTZ-PP


 Recomputing integrals since basis changed


 Using spherical harmonics

 Library entry Pb   ECP ECP60MDF                 selected for group  1
 Library entry PB     S aug-cc-pwCVTZ-PP     selected for orbital group  1
 Library entry PB     P aug-cc-pwCVTZ-PP     selected for orbital group  1
 Library entry PB     D aug-cc-pwCVTZ-PP     selected for orbital group  1
 Library entry PB     F aug-cc-pwCVTZ-PP     selected for orbital group  1
 Library entry PB     G aug-cc-pwCVTZ-PP     selected for orbital group  1


 PROGRAM * SEWARD (Integral evaluation for generally contracted gaussian basis sets)     Author: Roland Lindh, 1990

 Geometry written to block  1 of record 700

 Orientation using atomic masses  
 Molecule type: Atom
 User-specified symmetry elements: XYZ
 Symmetry elements: XYZ
 Rotational constants:       0.0000000      0.0000000      0.0000000 GHz  (calculated with average atomic masses)

 Point group  Ci  



 ATOMIC COORDINATES

 NR  ATOM    CHARGE       X              Y              Z

   1  PB     22.00    0.000000000    0.000000000    0.000000000

 NUCLEAR CHARGE:                   22
 NUMBER OF PRIMITIVE AOS:         178
 NUMBER OF SYMMETRY AOS:          149
 NUMBER OF CONTRACTIONS:           96   (   47Ag  +   49Au  )
 NUMBER OF INNER CORE ORBITALS:     0   (    0Ag  +    0Au  )
 NUMBER OF OUTER CORE ORBITALS:     9   (    6Ag  +    3Au  )
 NUMBER OF VALENCE ORBITALS:        4   (    1Ag  +    3Au  )


 LX: Ag           LY: Ag           LZ: Ag 


 NUCLEAR REPULSION ENERGY    0.00000000

 EXTRA SYMMETRY OF AOS IN SYMMETRY 1:   1 1 1 1 1 1 1 1 2 3   4 5 6 2 3 4 5 6 2 3   4 5 6 2 3 4 5 6 2 3   4 5 6 2 3 4 5 6 7 8
                                        9101112131415
 EXTRA SYMMETRY OF AOS IN SYMMETRY 2:   1 2 3 1 2 3 1 2 3 1   2 3 1 2 3 1 2 3 1 2   3 4 5 6 7 8 910 4 5   6 7 8 910 4 5 6 7 8
                                        910 4 5 6 7 8 910


 Eigenvalues of metric

         1 0.301E-04 0.206E-02 0.100E-01 0.101E-01 0.101E-01 0.101E-01 0.101E-01 0.101E-01
         2 0.739E-02 0.739E-02 0.739E-02 0.116E-01 0.116E-01 0.116E-01 0.618E-01 0.618E-01


 Contracted 2-electron integrals neglected if value below      1.0D-12
 AO integral compression algorithm  1   Integral accuracy      1.0D-12

     17.564 MB (compressed) written to integral file ( 18.8%)

     Node minimum: 0.786 MB, node maximum: 2.097 MB


 NUMBER OF SORTED TWO-ELECTRON INTEGRALS:     461784.     BUFFER LENGTH:  32768
 NUMBER OF SEGMENTS:   1  SEGMENT LENGTH:     461784      RECORD LENGTH: 524288

 Memory used in sort:       1.02 MW

 SORT1 READ    11031004. AND WROTE       88744. INTEGRALS IN      1 RECORDS. CPU TIME:     0.07 SEC, REAL TIME:     0.08 SEC
 SORT2 READ     1100136. AND WROTE     5533081. INTEGRALS IN     48 RECORDS. CPU TIME:     0.02 SEC, REAL TIME:     0.02 SEC

 Node minimum:      459824.  Node maximum:      464237. integrals

 OPERATOR DM      FOR CENTER  0  COORDINATES:    0.000000    0.000000    0.000000


 **********************************************************************************************************************************
 DATASETS  * FILE   NREC   LENGTH (MB)   RECORD NAMES
              1      19       28.85       500      610      700      900      950      970     1000      129      960     1100   
                                          VAR    BASINP    GEOM    SYMINP    ZMAT    AOBASIS   BASIS     P2S    ABASIS      S 
                                         1400     1410     1420     1200     1210     1080     1700     1600     1650   
                                           T        V       ECP      H0       H01     AOSYM    OPER      SMH    MOLCAS    

 PROGRAMS   *        TOTAL       INT
 CPU TIMES  *         0.77      0.58
 REAL TIME  *         1.58 SEC
 DISK USED  *        29.19 MB (local),      406.70 MB (total)
 GA USED    *         0.00 MB       (max)       0.00 MB       (current)
 **********************************************************************************************************************************


 Program * Restricted Hartree-Fock

 Orbital guess generated from atomic densities.

 Initial alpha occupancy:   7   6
 Initial beta  occupancy:   7   3

 NELEC=   23   SYM=2   MS2= 3   THRE=1.0D-08   THRD=3.2D-06   THRG=3.2D-06  HFMA2=F  DIIS_START=2   DIIS_MAX=10   DIIS_INCORE=F

 Level shifts:    0.00 (CLOSED)    0.00 (OPEN)    0.30 (GAP_MIN)

 ITER           ETOT              DE          GRAD        DDIFF     DIIS  NEXP   TIME(IT)  TIME(TOT)  DIAG
   1     -191.86175732    -191.86175732     0.00D+00     0.13D+00     0     0       0.00      0.01    start
   2     -191.86393108      -0.00217375     0.13D-02     0.34D-02     1     0       0.00      0.01    diag2
   3     -191.86416655      -0.00023547     0.72D-03     0.84D-03     2     0       0.01      0.02    diag2
   4     -191.86422241      -0.00005586     0.17D-03     0.65D-03     3     0       0.00      0.02    diag2
   5     -191.86422657      -0.00000416     0.45D-04     0.24D-03     4     0       0.01      0.03    diag2
   6     -191.86422675      -0.00000018     0.75D-05     0.57D-04     5     0       0.00      0.03    diag2
   7     -191.86422677      -0.00000002     0.19D-05     0.11D-04     6     0       0.00      0.03    diag2
   8     -191.86422677      -0.00000000     0.42D-06     0.44D-05     7     0       0.01      0.04    fixocc
   9     -191.86422677      -0.00000000     0.85D-07     0.13D-05     8     0       0.00      0.04    diag2
  10     -191.86422677      -0.00000000     0.71D-08     0.57D-07     0     0       0.00      0.04    diag/orth

 Final alpha occupancy:   7   6
 Final beta  occupancy:   7   3

 !RHF STATE 1.2 Energy               -191.864226771913
  RHF One-electron energy            -340.689562375593
  RHF Two-electron energy             148.825335603680
  RHF Kinetic energy                   62.713168144682
  RHF Nuclear energy                    0.000000000000
  RHF Virial quotient                  -3.059392986323

 !RHF STATE 1.2 Dipole moment           0.00000000     0.00000000     0.00000000
 Dipole moment /Debye                   0.00000000     0.00000000     0.00000000

 ELECTRON ORBITALS
 =================

  Orbital  Occupation    Energy    Cen Mu Typ  Coefficients
    1.1     2.00000    -5.94907     1  1  s    1.00046
    2.1     2.00000    -0.84924     1  1  d0   0.99980
    3.1     2.00000    -0.84924     1  1  d1+  0.51667    1  1  d1-  0.85562
    4.1     2.00000    -0.84924     1  1  d1+  0.85515    1  1  d1- -0.51668
    5.1     2.00000    -0.84924     1  1  d2-  0.98087
    6.1     2.00000    -0.84924     1  1  d2+  0.98134
    7.1     2.00000    -0.35245     1  2  s    0.96592
    1.2     2.00000    -3.63153     1  1  pz   0.99314
    2.2     2.00000    -3.63153     1  1  px   0.78563    1  1  py  -0.60766
    3.2     2.00000    -3.63153     1  1  px   0.61104    1  1  py   0.79230
    4.2     1.00000    -0.05143     1  2  py   0.79386
    5.2     1.00000    -0.05143     1  2  px   0.79386
    6.2     1.00000    -0.05143     1  2  pz   0.79386


 HOMO      6.2    -0.051433 =      -1.3996eV
 LUMO      8.1     0.166886 =       4.5412eV
 LUMO-HOMO         0.218319 =       5.9408eV

 Orbitals saved in record  2100.2


 **********************************************************************************************************************************
 DATASETS  * FILE   NREC   LENGTH (MB)   RECORD NAMES
              1      19       28.85       500      610      700      900      950      970     1000      129      960     1100   
                                          VAR    BASINP    GEOM    SYMINP    ZMAT    AOBASIS   BASIS     P2S    ABASIS      S 
                                         1400     1410     1420     1200     1210     1080     1700     1600     1650   
                                           T        V       ECP      H0       H01     AOSYM    OPER      SMH    MOLCAS    

              2       4        0.53       700     1000      520     2100   
                                         GEOM     BASIS   MCVARS     RHF  

 PROGRAMS   *        TOTAL   RHF-SCF       INT
 CPU TIMES  *         0.83      0.05      0.58
 REAL TIME  *         2.45 SEC
 DISK USED  *        30.07 MB (local),      417.35 MB (total)
 GA USED    *         0.00 MB       (max)       0.00 MB       (current)
 **********************************************************************************************************************************
 SETTING NTRIP          =        12.00000000                                  
 SETTING NSING          =        15.00000000                                  

 PROGRAM * MULTI (Direct Multiconfiguration SCF)       Authors: P.J. Knowles, H.-J. Werner (1984)
                                                                D.A. Kreplin, P.J. Knowles, H.-J. Werner (2019)

 Number of closed-shell orbitals:   9 (    6    3)
 Number of active  orbitals:        7 (    1    6)
 Number of external orbitals:      80 (   40   40)

 State symmetry 1

 Number of active electrons:   4    Spin symmetry=Triplet   Space symmetry=1
 Number of states:            12
 Number of CSFs:             120   (135 determinants, 245 intermediate states)

 State symmetry 2

 Number of active electrons:   4    Spin symmetry=Singlet   Space symmetry=1
 Number of states:            15
 Number of CSFs:             126   (261 determinants, 441 intermediate states)

 Molecular orbitals read from record     2100.2  Type=RHF/CANONICAL  
 *** IN SYMMETRY 1 ORBITAL  2 SYMMETRY CONTAMINATION OF 0.288D-02 HAS BEEN REMOVED
 *** IN SYMMETRY 1 ORBITAL  3 SYMMETRY CONTAMINATION OF 0.390D+00 HAS BEEN REMOVED
 *** IN SYMMETRY 1 ORBITAL  4 SYMMETRY CONTAMINATION OF 0.394D+00 HAS BEEN REMOVED
 *** IN SYMMETRY 1 ORBITAL  5 SYMMETRY CONTAMINATION OF 0.194D+00 HAS BEEN REMOVED
 *** IN SYMMETRY 1 ORBITAL  6 SYMMETRY CONTAMINATION OF 0.181D+00 HAS BEEN REMOVED

 EXTRA SYMMETRY OF MOS IN SYMMETRY 1:   1 2 6 4 3 5 1 1 2 3   5 4 6 1 5 3 4 6 2 1   3 5 2 6 4 8121415 7   9111310 5 3 4 6 2 1
                                        5 4 6 3 2 1 1
 *** IN SYMMETRY 2 ORBITAL  1 SYMMETRY CONTAMINATION OF 0.145D+00 HAS BEEN REMOVED
 *** IN SYMMETRY 2 ORBITAL  2 SYMMETRY CONTAMINATION OF 0.481D+00 HAS BEEN REMOVED
 *** IN SYMMETRY 2 ORBITAL  3 SYMMETRY CONTAMINATION OF 0.440D+00 HAS BEEN REMOVED
 *** IN SYMMETRY 2 ORBITAL  4 SYMMETRY CONTAMINATION OF 0.475D-03 HAS BEEN REMOVED
 *** IN SYMMETRY 2 ORBITAL  5 SYMMETRY CONTAMINATION OF 0.104D-03 HAS BEEN REMOVED
 *** IN SYMMETRY 2 ORBITAL  6 SYMMETRY CONTAMINATION OF 0.487D-03 HAS BEEN REMOVED
 *** IN SYMMETRY 2 ORBITAL  7 SYMMETRY CONTAMINATION OF 0.145D-04 HAS BEEN REMOVED
 *** IN SYMMETRY 2 ORBITAL  8 SYMMETRY CONTAMINATION OF 0.494D-04 HAS BEEN REMOVED
 *** IN SYMMETRY 2 ORBITAL  9 SYMMETRY CONTAMINATION OF 0.358D-04 HAS BEEN REMOVED
 EXTRA SYMMETRY OF MOS IN SYMMETRY 2:   3 1 2 2 1 3 2 1 3 3   2 1 810 6 5 4 9 7 6   5 4 810 7 9 3 1 2 6   810 4 5 9 7 3 1 2 9
                                        7 4 5 6 810 1 2 3

 Wavefunction dump at record             2140.2

 Convergence thresholds  0.10E-04 (gradient)  0.10E-05 (energy)

 Weight factors for state symmetry  1:    0.03704   0.03704   0.03704   0.03704   0.03704   0.03704   0.03704   0.03704
                                          0.03704   0.03704   0.03704   0.03704
 Weight factors for state symmetry  2:    0.03704   0.03704   0.03704   0.03704   0.03704   0.03704   0.03704   0.03704
                                          0.03704   0.03704   0.03704   0.03704   0.03704   0.03704   0.03704
 
 Number of orbital rotations:  664  ( 24 closed/active, 360 closed/virtual, 0 active/active, 280 active/virtual )
 Total number of variables:    6199
 
 Second-order MCSCF: L-BFGS accelerated
 
 ITER  MIC  NCI  NEG     ENERGY(VAR)    ENERGY(PROJ) ENERGY CHANGE       GRAD(0)  GRAD(ORB)   GRAD(CI)      STEP      TIME
   1   16   18    0   -191.68292032    -191.70633884   -0.02341852    0.15565920 0.00382026 0.00000000  0.45E+00      0.64
   2    6   10    0   -191.70695145    -191.70836657   -0.00141512    0.09649867 0.00000454 0.00000000  0.20E-01      1.09
   3    5   10    0   -191.70837194    -191.70837199   -0.00000006    0.00054278 0.00000004 0.00000000  0.34E-03      1.51
   4    5   10    0   -191.70837199    -191.70837199    0.00000000    0.00000005 0.00000001 0.00000000  0.34E-07      1.84

 CONVERGENCE REACHED!  Final gradient:    0.00000002 ( 0.16E-07)
                       Final energy:   -191.70837199
 
 Results for state 1.1 Triplet
 =============================
 !MCSCF STATE 1.1 Triplet Energy              -191.835160570578
 Nuclear energy                                  0.00000000
 Kinetic energy                                 62.88886720
 One electron energy                          -336.38802597
 Two electron energy                           144.55286540
 Virial ratio                                    4.05038346
 
 !MCSCF STATE 1.1 Triplet Dipole moment          0.00000000     0.00000000     0.00000000
 Dipole moment /Debye                            0.00000000     0.00000000     0.00000000
 
 Results for state 2.1 Triplet
 =============================
 !MCSCF STATE 2.1 Triplet Energy              -191.835160570495
 Nuclear energy                                  0.00000000
 Kinetic energy                                 62.88886721
 One electron energy                          -336.38802597
 Two electron energy                           144.55286540
 Virial ratio                                    4.05038346
 
 !MCSCF STATE 2.1 Triplet Dipole moment          0.00000000     0.00000000     0.00000000
 Dipole moment /Debye                            0.00000000     0.00000000     0.00000000
 
 Results for state 3.1 Triplet
 =============================
 !MCSCF STATE 3.1 Triplet Energy              -191.835160570452
 Nuclear energy                                  0.00000000
 Kinetic energy                                 62.88886721
 One electron energy                          -336.38802597
 Two electron energy                           144.55286540
 Virial ratio                                    4.05038346
 
 !MCSCF STATE 3.1 Triplet Dipole moment          0.00000000     0.00000000     0.00000000
 Dipole moment /Debye                            0.00000000     0.00000000     0.00000000
 
 Results for state 4.1 Triplet
 =============================
 !MCSCF STATE 4.1 Triplet Energy              -191.665228030485
 Nuclear energy                                  0.00000000
 Kinetic energy                                 62.44217166
 One electron energy                          -332.08659472
 Two electron energy                           140.42136669
 Virial ratio                                    4.06948370
 
 !MCSCF STATE 4.1 Triplet Dipole moment          0.00000000     0.00000000     0.00000000
 Dipole moment /Debye                            0.00000000     0.00000000     0.00000000
 
 Results for state 5.1 Triplet
 =============================
 !MCSCF STATE 5.1 Triplet Energy              -191.665228030478
 Nuclear energy                                  0.00000000
 Kinetic energy                                 62.44217166
 One electron energy                          -332.08659472
 Two electron energy                           140.42136669
 Virial ratio                                    4.06948370
 
 !MCSCF STATE 5.1 Triplet Dipole moment          0.00000000     0.00000000     0.00000000
 Dipole moment /Debye                            0.00000000     0.00000000     0.00000000
 
 Results for state 6.1 Triplet
 =============================
 !MCSCF STATE 6.1 Triplet Energy              -191.665228030415
 Nuclear energy                                  0.00000000
 Kinetic energy                                 62.44217166
 One electron energy                          -332.08659471
 Two electron energy                           140.42136668
 Virial ratio                                    4.06948370
 
 !MCSCF STATE 6.1 Triplet Dipole moment          0.00000000     0.00000000     0.00000000
 Dipole moment /Debye                            0.00000000     0.00000000     0.00000000
 
 Results for state 7.1 Triplet
 =============================
 !MCSCF STATE 7.1 Triplet Energy              -191.665228030384
 Nuclear energy                                  0.00000000
 Kinetic energy                                 62.44217165
 One electron energy                          -332.08659470
 Two electron energy                           140.42136667
 Virial ratio                                    4.06948370
 
 !MCSCF STATE 7.1 Triplet Dipole moment          0.00000000     0.00000000     0.00000000
 Dipole moment /Debye                            0.00000000     0.00000000     0.00000000
 
 Results for state 8.1 Triplet
 =============================
 !MCSCF STATE 8.1 Triplet Energy              -191.665228030373
 Nuclear energy                                  0.00000000
 Kinetic energy                                 62.44217165
 One electron energy                          -332.08659470
 Two electron energy                           140.42136667
 Virial ratio                                    4.06948370
 
 !MCSCF STATE 8.1 Triplet Dipole moment          0.00000000     0.00000000     0.00000000
 Dipole moment /Debye                            0.00000000     0.00000000     0.00000000
 
 Results for state 9.1 Triplet
 =============================
 !MCSCF STATE 9.1 Triplet Energy              -191.659657780582
 Nuclear energy                                  0.00000000
 Kinetic energy                                 62.53004153
 One electron energy                          -332.52743683
 Two electron energy                           140.86777905
 Virial ratio                                    4.06508125
 
 !MCSCF STATE 9.1 Triplet Dipole moment          0.00000000     0.00000000     0.00000000
 Dipole moment /Debye                            0.00000000     0.00000000     0.00000000
 
 Results for state 10.1 Triplet
 ==============================
 !MCSCF STATE 10.1 Triplet Energy             -191.659657780526
 Nuclear energy                                  0.00000000
 Kinetic energy                                 62.53004153
 One electron energy                          -332.52743684
 Two electron energy                           140.86777906
 Virial ratio                                    4.06508125
 
 !MCSCF STATE 10.1 Triplet Dipole moment         0.00000000     0.00000000     0.00000000
 Dipole moment /Debye                            0.00000000     0.00000000     0.00000000
 
 Results for state 11.1 Triplet
 ==============================
 !MCSCF STATE 11.1 Triplet Energy             -191.659657780448
 Nuclear energy                                  0.00000000
 Kinetic energy                                 62.53004153
 One electron energy                          -332.52743686
 Two electron energy                           140.86777908
 Virial ratio                                    4.06508125
 
 !MCSCF STATE 11.1 Triplet Dipole moment         0.00000000     0.00000000     0.00000000
 Dipole moment /Debye                            0.00000000     0.00000000     0.00000000
 
 Results for state 12.1 Triplet
 ==============================
 !MCSCF STATE 12.1 Triplet Energy             -191.657576754285
 Nuclear energy                                  0.00000000
 Kinetic energy                                 62.44200273
 One electron energy                          -332.08526045
 Two electron energy                           140.42768370
 Virial ratio                                    4.06936947
 
 !MCSCF STATE 12.1 Triplet Dipole moment         0.00000000     0.00000000     0.00000000
 Dipole moment /Debye                            0.00000000     0.00000000     0.00000000
 
 Results for state 1.1 Singlet
 =============================
 !MCSCF STATE 1.1 Singlet Energy              -191.801237233936
 Nuclear energy                                  0.00000000
 Kinetic energy                                 62.84202017
 One electron energy                          -336.12154408
 Two electron energy                           144.32030685
 Virial ratio                                    4.05211762
 
 !MCSCF STATE 1.1 Singlet Dipole moment          0.00000000     0.00000000     0.00000000
 Dipole moment /Debye                            0.00000000     0.00000000     0.00000000
 
 Results for state 2.1 Singlet
 =============================
 !MCSCF STATE 2.1 Singlet Energy              -191.801237233922
 Nuclear energy                                  0.00000000
 Kinetic energy                                 62.84202017
 One electron energy                          -336.12154408
 Two electron energy                           144.32030685
 Virial ratio                                    4.05211762
 
 !MCSCF STATE 2.1 Singlet Dipole moment          0.00000000     0.00000000     0.00000000
 Dipole moment /Debye                            0.00000000     0.00000000     0.00000000
 
 Results for state 3.1 Singlet
 =============================
 !MCSCF STATE 3.1 Singlet Energy              -191.801237233878
 Nuclear energy                                  0.00000000
 Kinetic energy                                 62.84202017
 One electron energy                          -336.12154408
 Two electron energy                           144.32030684
 Virial ratio                                    4.05211762
 
 !MCSCF STATE 3.1 Singlet Dipole moment          0.00000000     0.00000000     0.00000000
 Dipole moment /Debye                            0.00000000     0.00000000     0.00000000
 
 Results for state 4.1 Singlet
 =============================
 !MCSCF STATE 4.1 Singlet Energy              -191.801237233807
 Nuclear energy                                  0.00000000
 Kinetic energy                                 62.84202017
 One electron energy                          -336.12154409
 Two electron energy                           144.32030685
 Virial ratio                                    4.05211762
 
 !MCSCF STATE 4.1 Singlet Dipole moment          0.00000000     0.00000000     0.00000000
 Dipole moment /Debye                            0.00000000     0.00000000     0.00000000
 
 Results for state 5.1 Singlet
 =============================
 !MCSCF STATE 5.1 Singlet Energy              -191.801237233803
 Nuclear energy                                  0.00000000
 Kinetic energy                                 62.84202017
 One electron energy                          -336.12154408
 Two electron energy                           144.32030685
 Virial ratio                                    4.05211762
 
 !MCSCF STATE 5.1 Singlet Dipole moment          0.00000000     0.00000000     0.00000000
 Dipole moment /Debye                            0.00000000     0.00000000     0.00000000
 
 Results for state 6.1 Singlet
 =============================
 !MCSCF STATE 6.1 Singlet Energy              -191.767764840955
 Nuclear energy                                  0.00000000
 Kinetic energy                                 62.77456791
 One electron energy                          -335.69815532
 Two electron energy                           143.93039048
 Virial ratio                                    4.05486396
 
 !MCSCF STATE 6.1 Singlet Dipole moment          0.00000000     0.00000000     0.00000000
 Dipole moment /Debye                            0.00000000     0.00000000     0.00000000
 
 Results for state 7.1 Singlet
 =============================
 !MCSCF STATE 7.1 Singlet Energy              -191.670331816179
 Nuclear energy                                  0.00000000
 Kinetic energy                                 62.44227804
 One electron energy                          -332.08743665
 Two electron energy                           140.41710483
 Virial ratio                                    4.06956021
 
 !MCSCF STATE 7.1 Singlet Dipole moment          0.00000000     0.00000000     0.00000000
 Dipole moment /Debye                            0.00000000     0.00000000     0.00000000
 
 Results for state 8.1 Singlet
 =============================
 !MCSCF STATE 8.1 Singlet Energy              -191.670331816091
 Nuclear energy                                  0.00000000
 Kinetic energy                                 62.44227804
 One electron energy                          -332.08743664
 Two electron energy                           140.41710482
 Virial ratio                                    4.06956021
 
 !MCSCF STATE 8.1 Singlet Dipole moment          0.00000000     0.00000000     0.00000000
 Dipole moment /Debye                            0.00000000     0.00000000     0.00000000
 
 Results for state 9.1 Singlet
 =============================
 !MCSCF STATE 9.1 Singlet Energy              -191.670331816056
 Nuclear energy                                  0.00000000
 Kinetic energy                                 62.44227803
 One electron energy                          -332.08743663
 Two electron energy                           140.41710481
 Virial ratio                                    4.06956021
 
 !MCSCF STATE 9.1 Singlet Dipole moment          0.00000000     0.00000000     0.00000000
 Dipole moment /Debye                            0.00000000     0.00000000     0.00000000
 
 Results for state 10.1 Singlet
 ==============================
 !MCSCF STATE 10.1 Singlet Energy             -191.648108874028
 Nuclear energy                                  0.00000000
 Kinetic energy                                 62.58113837
 One electron energy                          -332.81191401
 Two electron energy                           141.16380514
 Virial ratio                                    4.06239410
 
 !MCSCF STATE 10.1 Singlet Dipole moment         0.00000000     0.00000000     0.00000000
 Dipole moment /Debye                            0.00000000     0.00000000     0.00000000
 
 Results for state 11.1 Singlet
 ==============================
 !MCSCF STATE 11.1 Singlet Energy             -191.648108873992
 Nuclear energy                                  0.00000000
 Kinetic energy                                 62.58113837
 One electron energy                          -332.81191402
 Two electron energy                           141.16380514
 Virial ratio                                    4.06239410
 
 !MCSCF STATE 11.1 Singlet Dipole moment         0.00000000     0.00000000     0.00000000
 Dipole moment /Debye                            0.00000000     0.00000000     0.00000000
 
 Results for state 12.1 Singlet
 ==============================
 !MCSCF STATE 12.1 Singlet Energy             -191.648108873883
 Nuclear energy                                  0.00000000
 Kinetic energy                                 62.58113838
 One electron energy                          -332.81191403
 Two electron energy                           141.16380516
 Virial ratio                                    4.06239410
 
 !MCSCF STATE 12.1 Singlet Dipole moment         0.00000000     0.00000000     0.00000000
 Dipole moment /Debye                            0.00000000     0.00000000     0.00000000
 
 Results for state 13.1 Singlet
 ==============================
 !MCSCF STATE 13.1 Singlet Energy             -191.648108873690
 Nuclear energy                                  0.00000000
 Kinetic energy                                 62.58113838
 One electron energy                          -332.81191405
 Two electron energy                           141.16380518
 Virial ratio                                    4.06239410
 
 !MCSCF STATE 13.1 Singlet Dipole moment         0.00000000     0.00000000     0.00000000
 Dipole moment /Debye                            0.00000000     0.00000000     0.00000000
 
 Results for state 14.1 Singlet
 ==============================
 !MCSCF STATE 14.1 Singlet Energy             -191.648108873674
 Nuclear energy                                  0.00000000
 Kinetic energy                                 62.58113838
 One electron energy                          -332.81191405
 Two electron energy                           141.16380518
 Virial ratio                                    4.06239410
 
 !MCSCF STATE 14.1 Singlet Dipole moment         0.00000000     0.00000000     0.00000000
 Dipole moment /Debye                            0.00000000     0.00000000     0.00000000
 
 Results for state 15.1 Singlet
 ==============================
 !MCSCF STATE 15.1 Singlet Energy             -191.632380970555
 Nuclear energy                                  0.00000000
 Kinetic energy                                 62.64186960
 One electron energy                          -333.15702708
 Two electron energy                           141.52464611
 Virial ratio                                    4.05917403
 
 !MCSCF STATE 15.1 Singlet Dipole moment         0.00000000     0.00000000     0.00000000
 Dipole moment /Debye                            0.00000000     0.00000000     0.00000000
 
 State-averaged charge density matrix saved on record 2140.2 (density set 1)
 
 No non-zero expectation values
 
 Expectation values for two-electron operators:
 
 ? Warning
 ? Transition properties are only calculated between states of the same symmetry
 ? The problem occurs in mu_properties_expec2

 !MCSCF expec      <1.1 Triplet|LXLX|1.1 Triplet>     1.000000000000
 !MCSCF expec      <2.1 Triplet|LXLX|2.1 Triplet>     1.000000000000
 !MCSCF expec      <3.1 Triplet|LXLX|3.1 Triplet>    -0.000000000000
 !MCSCF expec      <4.1 Triplet|LXLX|4.1 Triplet>     1.622409619229
 !MCSCF expec      <5.1 Triplet|LXLX|5.1 Triplet>     0.999999997456
 !MCSCF expec      <6.1 Triplet|LXLX|6.1 Triplet>     4.000000000000
 !MCSCF expec      <7.1 Triplet|LXLX|7.1 Triplet>     1.000000065482
 !MCSCF expec      <8.1 Triplet|LXLX|8.1 Triplet>     2.377578160012
 !MCSCF expec      <9.1 Triplet|LXLX|9.1 Triplet>     1.000000000000
 !MCSCF expec    <10.1 Triplet|LXLX|10.1 Triplet>    -0.000000000000
 !MCSCF expec    <11.1 Triplet|LXLX|11.1 Triplet>     1.000000000000
 !MCSCF expec    <12.1 Triplet|LXLX|12.1 Triplet>    -0.000000000000
 !MCSCF expec      <1.1 Singlet|LXLX|1.1 Singlet>     0.147614733050
 !MCSCF expec      <2.1 Singlet|LXLX|2.1 Singlet>     0.999999999989
 !MCSCF expec      <3.1 Singlet|LXLX|3.1 Singlet>     1.000000000046
 !MCSCF expec      <4.1 Singlet|LXLX|4.1 Singlet>     4.000000000000
 !MCSCF expec      <5.1 Singlet|LXLX|5.1 Singlet>     3.852395309552
 !MCSCF expec      <6.1 Singlet|LXLX|6.1 Singlet>    -0.000000000000
 !MCSCF expec      <7.1 Singlet|LXLX|7.1 Singlet>     1.000000000000
 !MCSCF expec      <8.1 Singlet|LXLX|8.1 Singlet>     0.000000000000
 !MCSCF expec      <9.1 Singlet|LXLX|9.1 Singlet>     0.999999999999
 !MCSCF expec    <10.1 Singlet|LXLX|10.1 Singlet>     2.317174951899
 !MCSCF expec    <11.1 Singlet|LXLX|11.1 Singlet>     1.000000000165
 !MCSCF expec    <12.1 Singlet|LXLX|12.1 Singlet>     4.000000000000
 !MCSCF expec    <13.1 Singlet|LXLX|13.1 Singlet>     1.000000000115
 !MCSCF expec    <14.1 Singlet|LXLX|14.1 Singlet>     1.682825352143
 !MCSCF expec    <15.1 Singlet|LXLX|15.1 Singlet>    -0.000000000000
 
 !MCSCF expec      <1.1 Triplet|LYLY|1.1 Triplet>     0.000000001794
 !MCSCF expec      <2.1 Triplet|LYLY|2.1 Triplet>     0.999999998713
 !MCSCF expec      <3.1 Triplet|LYLY|3.1 Triplet>     1.000000000000
 !MCSCF expec      <4.1 Triplet|LYLY|4.1 Triplet>     0.487892747789
 !MCSCF expec      <5.1 Triplet|LYLY|5.1 Triplet>     1.000000002875
 !MCSCF expec      <6.1 Triplet|LYLY|6.1 Triplet>     1.000000000000
 !MCSCF expec      <7.1 Triplet|LYLY|7.1 Triplet>     3.999999979889
 !MCSCF expec      <8.1 Triplet|LYLY|8.1 Triplet>     3.512115375766
 !MCSCF expec      <9.1 Triplet|LYLY|9.1 Triplet>     0.000000000048
 !MCSCF expec    <10.1 Triplet|LYLY|10.1 Triplet>     1.000000000000
 !MCSCF expec    <11.1 Triplet|LYLY|11.1 Triplet>     0.999999999961
 !MCSCF expec    <12.1 Triplet|LYLY|12.1 Triplet>    -0.000000000000
 !MCSCF expec      <1.1 Singlet|LYLY|1.1 Singlet>     3.579263546232
 !MCSCF expec      <2.1 Singlet|LYLY|2.1 Singlet>     3.999999997997
 !MCSCF expec      <3.1 Singlet|LYLY|3.1 Singlet>     1.000000000724
 !MCSCF expec      <4.1 Singlet|LYLY|4.1 Singlet>     1.000000000000
 !MCSCF expec      <5.1 Singlet|LYLY|5.1 Singlet>     0.420752796707
 !MCSCF expec      <6.1 Singlet|LYLY|6.1 Singlet>    -0.000000000000
 !MCSCF expec      <7.1 Singlet|LYLY|7.1 Singlet>     0.999999999901
 !MCSCF expec      <8.1 Singlet|LYLY|8.1 Singlet>     1.000000000000
 !MCSCF expec      <9.1 Singlet|LYLY|9.1 Singlet>     0.000000000100
 !MCSCF expec    <10.1 Singlet|LYLY|10.1 Singlet>     3.551544108561
 !MCSCF expec    <11.1 Singlet|LYLY|11.1 Singlet>     3.999999999910
 !MCSCF expec    <12.1 Singlet|LYLY|12.1 Singlet>     1.000000000000
 !MCSCF expec    <13.1 Singlet|LYLY|13.1 Singlet>     1.000000000122
 !MCSCF expec    <14.1 Singlet|LYLY|14.1 Singlet>     0.448455697618
 !MCSCF expec    <15.1 Singlet|LYLY|15.1 Singlet>    -0.000000000000
 
 !MCSCF expec      <1.1 Triplet|LZLZ|1.1 Triplet>     0.999999998206
 !MCSCF expec      <2.1 Triplet|LZLZ|2.1 Triplet>     0.000000001287
 !MCSCF expec      <3.1 Triplet|LZLZ|3.1 Triplet>     1.000000000000
 !MCSCF expec      <4.1 Triplet|LZLZ|4.1 Triplet>     3.889697632982
 !MCSCF expec      <5.1 Triplet|LZLZ|5.1 Triplet>     3.999999999669
 !MCSCF expec      <6.1 Triplet|LZLZ|6.1 Triplet>     1.000000000000
 !MCSCF expec      <7.1 Triplet|LZLZ|7.1 Triplet>     0.999999954629
 !MCSCF expec      <8.1 Triplet|LZLZ|8.1 Triplet>     0.110306464222
 !MCSCF expec      <9.1 Triplet|LZLZ|9.1 Triplet>     0.999999999952
 !MCSCF expec    <10.1 Triplet|LZLZ|10.1 Triplet>     1.000000000000
 !MCSCF expec    <11.1 Triplet|LZLZ|11.1 Triplet>     0.000000000040
 !MCSCF expec    <12.1 Triplet|LZLZ|12.1 Triplet>    -0.000000000000
 !MCSCF expec      <1.1 Singlet|LZLZ|1.1 Singlet>     2.273121720718
 !MCSCF expec      <2.1 Singlet|LZLZ|2.1 Singlet>     1.000000002014
 !MCSCF expec      <3.1 Singlet|LZLZ|3.1 Singlet>     3.999999999230
 !MCSCF expec      <4.1 Singlet|LZLZ|4.1 Singlet>     1.000000000000
 !MCSCF expec      <5.1 Singlet|LZLZ|5.1 Singlet>     1.726851893741
 !MCSCF expec      <6.1 Singlet|LZLZ|6.1 Singlet>    -0.000000000000
 !MCSCF expec      <7.1 Singlet|LZLZ|7.1 Singlet>     0.000000000099
 !MCSCF expec      <8.1 Singlet|LZLZ|8.1 Singlet>     1.000000000000
 !MCSCF expec      <9.1 Singlet|LZLZ|9.1 Singlet>     0.999999999901
 !MCSCF expec    <10.1 Singlet|LZLZ|10.1 Singlet>     0.131280939540
 !MCSCF expec    <11.1 Singlet|LZLZ|11.1 Singlet>     0.999999999924
 !MCSCF expec    <12.1 Singlet|LZLZ|12.1 Singlet>     1.000000000000
 !MCSCF expec    <13.1 Singlet|LZLZ|13.1 Singlet>     3.999999999763
 !MCSCF expec    <14.1 Singlet|LZLZ|14.1 Singlet>     3.868718950238
 !MCSCF expec    <15.1 Singlet|LZLZ|15.1 Singlet>    -0.000000000000
 
 !MCSCF expec      <1.1 Triplet|L**2|1.1 Triplet>     2.000000000000
 !MCSCF expec      <2.1 Triplet|L**2|2.1 Triplet>     2.000000000000
 !MCSCF expec      <3.1 Triplet|L**2|3.1 Triplet>     2.000000000000
 !MCSCF expec      <4.1 Triplet|L**2|4.1 Triplet>     6.000000000000
 !MCSCF expec      <5.1 Triplet|L**2|5.1 Triplet>     6.000000000000
 !MCSCF expec      <6.1 Triplet|L**2|6.1 Triplet>     6.000000000000
 !MCSCF expec      <7.1 Triplet|L**2|7.1 Triplet>     6.000000000000
 !MCSCF expec      <8.1 Triplet|L**2|8.1 Triplet>     6.000000000000
 !MCSCF expec      <9.1 Triplet|L**2|9.1 Triplet>     2.000000000000
 !MCSCF expec    <10.1 Triplet|L**2|10.1 Triplet>     2.000000000000
 !MCSCF expec    <11.1 Triplet|L**2|11.1 Triplet>     2.000000000000
 !MCSCF expec    <12.1 Triplet|L**2|12.1 Triplet>    -0.000000000000
 !MCSCF expec      <1.1 Singlet|L**2|1.1 Singlet>     6.000000000000
 !MCSCF expec      <2.1 Singlet|L**2|2.1 Singlet>     6.000000000000
 !MCSCF expec      <3.1 Singlet|L**2|3.1 Singlet>     6.000000000000
 !MCSCF expec      <4.1 Singlet|L**2|4.1 Singlet>     6.000000000000
 !MCSCF expec      <5.1 Singlet|L**2|5.1 Singlet>     6.000000000000
 !MCSCF expec      <6.1 Singlet|L**2|6.1 Singlet>    -0.000000000000
 !MCSCF expec      <7.1 Singlet|L**2|7.1 Singlet>     2.000000000000
 !MCSCF expec      <8.1 Singlet|L**2|8.1 Singlet>     2.000000000000
 !MCSCF expec      <9.1 Singlet|L**2|9.1 Singlet>     2.000000000000
 !MCSCF expec    <10.1 Singlet|L**2|10.1 Singlet>     6.000000000000
 !MCSCF expec    <11.1 Singlet|L**2|11.1 Singlet>     6.000000000000
 !MCSCF expec    <12.1 Singlet|L**2|12.1 Singlet>     6.000000000000
 !MCSCF expec    <13.1 Singlet|L**2|13.1 Singlet>     6.000000000000
 !MCSCF expec    <14.1 Singlet|L**2|14.1 Singlet>     6.000000000000
 !MCSCF expec    <15.1 Singlet|L**2|15.1 Singlet>    -0.000000000000
 
 EXTRA SYMMETRY OF MOS IN SYMMETRY 1:   1 3 5 6 4 2 1 1 3 5   6 2 4 1 3 5 6 4 2 1   3 5 6 4 213101415 8  1211 7 9 5 3 6 4 2 1
                                        5 3 6 4 2 1 1
 EXTRA SYMMETRY OF MOS IN SYMMETRY 2:   2 1 3 3 1 2 1 3 2 2   1 3 7 9 810 5 6 4 7   9 810 5 6 4 2 1 3 7   9 810 5 6 4 2 1 3 9
                                        7 810 5 6 4 2 1 3
 
  NATURAL ORBITALS (STATE AVERAGED)
  =================================

  Orbital  Occupation    Energy    Cen Mu Typ  Coefficients
    1.1     2.00000    -6.27266     1  1  s    0.99928
    2.1     2.00000    -1.17312     1  1  d2-  1.00073
    3.1     2.00000    -1.17312     1  1  d2+  1.00073
    4.1     2.00000    -1.17312     1  1  d1-  1.00073
    5.1     2.00000    -1.17312     1  1  d1+  1.00073
    6.1     2.00000    -1.17312     1  1  d0   1.00073
    7.1     1.97163    -0.64097     1  2  s    1.02360
    1.2     2.00000    -3.95536     1  1  py   0.99946
    2.2     2.00000    -3.95536     1  1  px   0.99946
    3.2     2.00000    -3.95536     1  1  pz   0.99946
    4.2     0.45366    -0.10152     1  2  pz   1.12650
    5.2     0.45366    -0.10152     1  2  px   1.12650
    6.2     0.45366    -0.10152     1  2  py   1.12650
    7.2     0.22246     0.03762     1  4  px  -0.46326    1  7  px   1.32288
    8.2     0.22246     0.03762     1  4  pz  -0.46326    1  7  pz   1.32288
    9.2     0.22246     0.03762     1  4  py  -0.46326    1  7  py   1.32288
 
 Natural orbital dump (state averaged) at molpro section 2140.2 (Orbital set 2)
 
 Transform the CI vectors
 
 CI Coefficients of symmetry 1 (Triplet)
 =======================================

 State:              1               2               3               4               5               6               7
 2 aa0000       0.98215951      0.00004160     -0.00000028      0.00000000     -0.00000000      0.00000000     -0.00000021
 2 a0a000       0.00000028     -0.00000022      0.98215951     -0.00000000     -0.00000000     -0.00000025     -0.00000000
 2 0aa000      -0.00004160      0.98215947      0.00000022      0.00000000     -0.00000004      0.00000000      0.00000000
 2 a000a0      -0.00000000     -0.00000000      0.00000000     -0.13454836      0.00000098      0.00000004      0.00018711
 2 00a00a       0.00000000      0.00000000      0.00000000      0.75922394      0.00010505     -0.00000021     -0.00005704
 2 00a0a0      -0.00000003      0.00000002     -0.11290413      0.00000019      0.00000038      0.70169219      0.00000000
 2 a0000a       0.00000003     -0.00000002      0.11290449      0.00000019      0.00000038      0.70169218      0.00000000
 2 00aa00       0.00000478     -0.11290443     -0.00000002     -0.00010394      0.70169218     -0.00000038     -0.00000531
 2 0a000a      -0.00000478      0.11290449      0.00000002     -0.00010394      0.70169218     -0.00000038     -0.00000531
 2 0a00a0      -0.11290413     -0.00000478      0.00000003     -0.00000910      0.00000530     -0.00000000      0.70169217
 2 a00a00       0.11290443      0.00000478     -0.00000003     -0.00000910      0.00000530     -0.00000000      0.70169216
 2 0a0a00       0.00000000      0.00000000     -0.00000000     -0.62467557     -0.00010604      0.00000017     -0.00013006
 0 aa2000      -0.09215465     -0.00000390      0.00000003     -0.00000000      0.00000000     -0.00000000      0.00000002
 0 a2a000      -0.00000003      0.00000002     -0.09215465      0.00000000      0.00000000      0.00000002      0.00000000
 0 2aa000       0.00000390     -0.09215464     -0.00000002     -0.00000000      0.00000000     -0.00000000     -0.00000000
 0 a020a0       0.00000000      0.00000000     -0.00000000      0.01116490     -0.00000015     -0.00000000     -0.00001618
 0 a200a0       0.00000000      0.00000000     -0.00000000      0.01206927     -0.00000002     -0.00000000     -0.00001613
 0 20a00a      -0.00000000     -0.00000000      0.00000000     -0.06571255     -0.00000911      0.00000002      0.00000482
 0 02a00a      -0.00000000     -0.00000000     -0.00000000     -0.06539226     -0.00000904      0.00000002      0.00000503
 0 02a0a0       0.00000000     -0.00000000      0.00881753     -0.00000002     -0.00000003     -0.06081432     -0.00000000
 0 a2000a      -0.00000000      0.00000000     -0.00881756     -0.00000002     -0.00000003     -0.06081432     -0.00000000
 0 0a20a0       0.00881753      0.00000037     -0.00000000      0.00000079     -0.00000046      0.00000000     -0.06081432
 0 a02a00      -0.00881756     -0.00000037      0.00000000      0.00000079     -0.00000046      0.00000000     -0.06081432
 0 20aa00      -0.00000037      0.00881756      0.00000000      0.00000901     -0.06081431      0.00000003      0.00000046
 0 2a000a       0.00000037     -0.00881756     -0.00000000      0.00000901     -0.06081431      0.00000003      0.00000046
 0 0a200a       0.00000088     -0.02074569     -0.00000000      0.00000894     -0.06035576      0.00000003      0.00000046
 0 02aa00      -0.00000088      0.02074569      0.00000000      0.00000894     -0.06035576      0.00000003      0.00000046
 0 20a0a0       0.00000001     -0.00000000      0.02074569     -0.00000002     -0.00000003     -0.06035576     -0.00000000
 0 a0200a      -0.00000001      0.00000000     -0.02074569     -0.00000002     -0.00000003     -0.06035576     -0.00000000
 0 2a00a0       0.02074569      0.00000088     -0.00000001      0.00000078     -0.00000046      0.00000000     -0.06035576
 0 a20a00      -0.02074569     -0.00000088      0.00000001      0.00000078     -0.00000046      0.00000000     -0.06035576
 0 2a0a00       0.00000000     -0.00000000     -0.00000000      0.05422736      0.00000919     -0.00000001      0.00001115
 0 0a2a00      -0.00000000     -0.00000000      0.00000000      0.05364328      0.00000912     -0.00000001      0.00001131
 
 Energy:     -191.83516057   -191.83516057   -191.83516057   -191.66522803   -191.66522803   -191.66522803   -191.66522803

 State:              8               9              10              11              12
 2 aa0000       0.00000000     -0.16096740     -0.00000006      0.00000111     -0.00000000
 2 a0a000      -0.00000000      0.00000006     -0.16096744     -0.00000000     -0.00000000
 2 0aa000       0.00000000     -0.00000111      0.00000000     -0.16096765      0.00000000
 2 a000a0       0.79899474     -0.00000000     -0.00000000     -0.00000000      0.57283705
 2 00a00a      -0.28297508      0.00000000      0.00000000      0.00000000      0.57283704
 2 00a0a0       0.00000000      0.00000024     -0.69254897     -0.00000000      0.00000000
 2 a0000a       0.00000000     -0.00000024      0.69254893      0.00000000      0.00000000
 2 00aa00      -0.00001837     -0.00000479      0.00000000     -0.69254893      0.00000000
 2 0a000a      -0.00001837      0.00000479     -0.00000000      0.69254892      0.00000000
 2 0a00a0      -0.00016585     -0.69254898     -0.00000024      0.00000479      0.00000000
 2 a00a00      -0.00016585      0.69254894      0.00000024     -0.00000479      0.00000000
 2 0a0a00      -0.51601967     -0.00000000      0.00000000     -0.00000000      0.57283704
 0 aa2000      -0.00000000      0.01803570      0.00000001     -0.00000012      0.00000000
 0 a2a000      -0.00000000     -0.00000001      0.01803571      0.00000000     -0.00000000
 0 2aa000      -0.00000000      0.00000012     -0.00000000      0.01803572     -0.00000000
 0 a020a0      -0.06906242     -0.00000000      0.00000000      0.00000000     -0.04998819
 0 a200a0      -0.06891012     -0.00000000      0.00000000      0.00000000     -0.04998819
 0 20a00a       0.02400276     -0.00000000     -0.00000000     -0.00000000     -0.04998818
 0 02a00a       0.02486213      0.00000000     -0.00000000     -0.00000000     -0.04998819
 0 02a0a0      -0.00000000     -0.00000002      0.06020722      0.00000000     -0.00000000
 0 a2000a      -0.00000000      0.00000002     -0.06020722     -0.00000000     -0.00000000
 0 0a20a0       0.00001437      0.06020722      0.00000002     -0.00000042     -0.00000000
 0 a02a00       0.00001437     -0.06020722     -0.00000002      0.00000042     -0.00000000
 0 20aa00       0.00000159      0.00000042     -0.00000000      0.06020721     -0.00000000
 0 2a000a       0.00000159     -0.00000042      0.00000000     -0.06020721     -0.00000000
 0 0a200a       0.00000158     -0.00000039      0.00000000     -0.05676921     -0.00000000
 0 02aa00       0.00000158      0.00000039     -0.00000000      0.05676921     -0.00000000
 0 20a0a0      -0.00000000     -0.00000002      0.05676921      0.00000000     -0.00000000
 0 a0200a      -0.00000000      0.00000002     -0.05676922     -0.00000000     -0.00000000
 0 2a00a0       0.00001427      0.05676921      0.00000002     -0.00000039     -0.00000000
 0 a20a00       0.00001427     -0.05676922     -0.00000002      0.00000039     -0.00000000
 0 2a0a00       0.04420029      0.00000000     -0.00000000      0.00000000     -0.04998818
 0 0a2a00       0.04490736      0.00000000     -0.00000000      0.00000000     -0.04998819
 
 Energy:     -191.66522803   -191.65965778   -191.65965778   -191.65965778   -191.65757675
 
 
 CI Coefficients of symmetry 1 (Singlet)
 =======================================

 State:              1               2               3               4               5               6               7
 2 020000       0.77613734     -0.00000063      0.00000031     -0.00000014     -0.15192826      0.54074563     -0.00000000
 2 002000      -0.25649493      0.00000090      0.00000005      0.00000004      0.74811877      0.54074562     -0.00000000
 2 ab0000       0.00000042      0.68491136     -0.00001763     -0.00000018     -0.00000068     -0.00000000      0.00000000
 2 ba0000      -0.00000042     -0.68491136      0.00001763      0.00000018      0.00000068      0.00000000     -0.00000000
 2 a0b000       0.00000012      0.00000018     -0.00000267      0.68491135      0.00000000     -0.00000000      0.00000000
 2 b0a000      -0.00000012     -0.00000018      0.00000267     -0.68491135     -0.00000000      0.00000000     -0.00000000
 2 0ab000      -0.00000030      0.00001763      0.68491132      0.00000267     -0.00000015     -0.00000000     -0.00000003
 2 0ba000       0.00000030     -0.00001763     -0.68491132     -0.00000267      0.00000015      0.00000000      0.00000003
 2 200000      -0.51964246     -0.00000027     -0.00000036      0.00000009     -0.59619058      0.54074571      0.00000000
 2 b000a0       0.08613848      0.00000004      0.00000006     -0.00000002      0.09882748     -0.12447880     -0.00000000
 2 a000b0      -0.08613848     -0.00000004     -0.00000006      0.00000002     -0.09882748      0.12447880      0.00000000
 2 00b00a       0.04251796     -0.00000015     -0.00000001     -0.00000001     -0.12401213     -0.12447900      0.00000000
 2 00a00b      -0.04251796      0.00000015      0.00000001      0.00000001      0.12401213      0.12447900     -0.00000000
 2 00b0a0      -0.00000002     -0.00000003      0.00000044     -0.11353428     -0.00000000     -0.00000000     -0.00000009
 2 00a0b0       0.00000002      0.00000003     -0.00000044      0.11353428      0.00000000      0.00000000      0.00000009
 2 0a00b0       0.00000007      0.11353428     -0.00000292     -0.00000003     -0.00000011     -0.00000000      0.00000494
 2 0b00a0      -0.00000007     -0.11353428      0.00000292      0.00000003      0.00000011      0.00000000     -0.00000494
 2 00ba00       0.00000005     -0.00000292     -0.11353448     -0.00000044      0.00000002     -0.00000000      0.49622172
 2 00ab00      -0.00000005      0.00000292      0.11353448      0.00000044     -0.00000002      0.00000000     -0.49622172
 2 0a000b      -0.00000005      0.00000292      0.11353452      0.00000044     -0.00000002      0.00000000      0.49622172
 2 0b000a       0.00000005     -0.00000292     -0.11353452     -0.00000044      0.00000002     -0.00000000     -0.49622172
 2 a00b00       0.00000007      0.11353448     -0.00000292     -0.00000003     -0.00000011      0.00000000     -0.00000494
 2 b00a00      -0.00000007     -0.11353448      0.00000292      0.00000003      0.00000011     -0.00000000      0.00000494
 2 a0000b       0.00000002      0.00000003     -0.00000044      0.11353452      0.00000000     -0.00000000     -0.00000009
 2 b0000a      -0.00000002     -0.00000003      0.00000044     -0.11353452     -0.00000000      0.00000000      0.00000009
 2 0b0a00      -0.12865659      0.00000010     -0.00000005      0.00000002      0.02518442     -0.12447897     -0.00000000
 2 0a0b00       0.12865659     -0.00000010      0.00000005     -0.00000002     -0.02518442      0.12447897      0.00000000
 0 220000      -0.02401929      0.00000008      0.00000000      0.00000000      0.07005709     -0.09873382      0.00000000
 0 202000       0.07268087     -0.00000006      0.00000003     -0.00000001     -0.01422721     -0.09873382      0.00000000
 0 022000      -0.04866157     -0.00000003     -0.00000003      0.00000001     -0.05582987     -0.09873382      0.00000000
 0 ab2000      -0.00000004     -0.06413807      0.00000165      0.00000002      0.00000006     -0.00000000     -0.00000000
 0 ba2000       0.00000004      0.06413807     -0.00000165     -0.00000002     -0.00000006      0.00000000      0.00000000
 0 b2a000       0.00000001      0.00000002     -0.00000025      0.06413807      0.00000000      0.00000000      0.00000000
 0 a2b000      -0.00000001     -0.00000002      0.00000025     -0.06413807     -0.00000000     -0.00000000     -0.00000000
 0 2ab000       0.00000003     -0.00000165     -0.06413806     -0.00000025      0.00000001      0.00000000      0.00000000
 0 2ba000      -0.00000003      0.00000165      0.06413806      0.00000025     -0.00000001     -0.00000000     -0.00000000
 
 Energy:     -191.80123723   -191.80123723   -191.80123723   -191.80123723   -191.80123723   -191.76776484   -191.67033182

 State:              8               9              10              11              12              13              14
 2 020000       0.00000000     -0.00000000      0.12107558      0.00000329     -0.00000001     -0.00000105      0.14207462
 2 002000       0.00000000     -0.00000000      0.06250246      0.00000190     -0.00000000      0.00000113     -0.17589190
 2 ab0000      -0.00000000     -0.00000015      0.00000455     -0.16165804     -0.00000010     -0.00000061     -0.00000013
 2 ba0000       0.00000000      0.00000015     -0.00000455      0.16165804      0.00000010      0.00000061      0.00000013
 2 a0b000      -0.00000018      0.00000000     -0.00000001      0.00000010     -0.16165807     -0.00000001     -0.00000000
 2 b0a000       0.00000018     -0.00000000      0.00000001     -0.00000010      0.16165807      0.00000001      0.00000000
 2 0ab000      -0.00000000     -0.00000000     -0.00000013      0.00000061      0.00000001     -0.16165822     -0.00000108
 2 0ba000       0.00000000      0.00000000      0.00000013     -0.00000061     -0.00000001      0.16165822      0.00000108
 2 200000       0.00000000     -0.00000000     -0.18357769     -0.00000520      0.00000001     -0.00000007      0.03381716
 2 b000a0      -0.00000000     -0.00000000     -0.54850008     -0.00001553      0.00000003     -0.00000022      0.10104014
 2 a000b0       0.00000000      0.00000000      0.54850008      0.00001553     -0.00000003      0.00000022     -0.10104014
 2 00b00a      -0.00000000     -0.00000000      0.18674668      0.00000569     -0.00000001      0.00000337     -0.52553500
 2 00a00b       0.00000000      0.00000000     -0.18674668     -0.00000569      0.00000001     -0.00000337      0.52553500
 2 00b0a0       0.49622172     -0.00000008     -0.00000003      0.00000029     -0.48300732     -0.00000003     -0.00000000
 2 00a0b0      -0.49622172      0.00000008      0.00000003     -0.00000029      0.48300732      0.00000003      0.00000000
 2 0a00b0      -0.00000008     -0.49622172     -0.00001360      0.48300732      0.00000029      0.00000182      0.00000039
 2 0b00a0       0.00000008      0.49622172      0.00001360     -0.48300732     -0.00000029     -0.00000182     -0.00000039
 2 00ba00       0.00000009      0.00000494     -0.00000040      0.00000182      0.00000003     -0.48300728     -0.00000324
 2 00ab00      -0.00000009     -0.00000494      0.00000040     -0.00000182     -0.00000003      0.48300728      0.00000324
 2 0a000b       0.00000009      0.00000494      0.00000040     -0.00000182     -0.00000003      0.48300727      0.00000324
 2 0b000a      -0.00000009     -0.00000494     -0.00000040      0.00000182      0.00000003     -0.48300727     -0.00000324
 2 a00b00       0.00000008      0.49622172     -0.00001360      0.48300728      0.00000029      0.00000182      0.00000039
 2 b00a00      -0.00000008     -0.49622172      0.00001360     -0.48300728     -0.00000029     -0.00000182     -0.00000039
 2 a0000b       0.49622172     -0.00000008      0.00000003     -0.00000029      0.48300727      0.00000003      0.00000000
 2 b0000a      -0.49622172      0.00000008     -0.00000003      0.00000029     -0.48300727     -0.00000003     -0.00000000
 2 0b0a00      -0.00000000     -0.00000000      0.36175332      0.00000984     -0.00000002     -0.00000315      0.42449489
 2 0a0b00       0.00000000      0.00000000     -0.36175332     -0.00000984      0.00000002      0.00000315     -0.42449489
 0 220000      -0.00000000      0.00000000      0.00664724      0.00000020     -0.00000000      0.00000012     -0.01870646
 0 202000      -0.00000000      0.00000000      0.01287661      0.00000035     -0.00000000     -0.00000011      0.01510994
 0 022000      -0.00000000      0.00000000     -0.01952391     -0.00000055      0.00000000     -0.00000001      0.00359654
 0 ab2000       0.00000000      0.00000001     -0.00000048      0.01719268      0.00000001      0.00000006      0.00000001
 0 ba2000      -0.00000000     -0.00000001      0.00000048     -0.01719268     -0.00000001     -0.00000006     -0.00000001
 0 b2a000      -0.00000002      0.00000000     -0.00000000      0.00000001     -0.01719268     -0.00000000     -0.00000000
 0 a2b000       0.00000002     -0.00000000      0.00000000     -0.00000001      0.01719268      0.00000000      0.00000000
 0 2ab000       0.00000000      0.00000000      0.00000001     -0.00000006     -0.00000000      0.01719269      0.00000012
 0 2ba000      -0.00000000     -0.00000000     -0.00000001      0.00000006      0.00000000     -0.01719269     -0.00000012
 
 Energy:     -191.67033182   -191.67033182   -191.64810887   -191.64810887   -191.64810887   -191.64810887   -191.64810887

 State:             15
 2 020000      -0.17249588
 2 002000      -0.17249593
 2 ab0000      -0.00000000
 2 ba0000       0.00000000
 2 a0b000       0.00000000
 2 b0a000      -0.00000000
 2 0ab000      -0.00000000
 2 0ba000       0.00000000
 2 200000      -0.17249564
 2 b000a0      -0.38528407
 2 a000b0       0.38528407
 2 00b00a      -0.38528403
 2 00a00b       0.38528403
 2 00b0a0      -0.00000000
 2 00a0b0       0.00000000
 2 0a00b0       0.00000000
 2 0b00a0      -0.00000000
 2 00ba00      -0.00000000
 2 00ab00       0.00000000
 2 0a000b       0.00000000
 2 0b000a      -0.00000000
 2 a00b00       0.00000000
 2 b00a00      -0.00000000
 2 a0000b      -0.00000000
 2 b0000a       0.00000000
 2 0b0a00      -0.38528403
 2 0a0b00       0.38528403
 0 220000       0.03371461
 0 202000       0.03371462
 0 022000       0.03371464
 0 ab2000       0.00000000
 0 ba2000      -0.00000000
 0 b2a000      -0.00000000
 0 a2b000       0.00000000
 0 2ab000       0.00000000
 0 2ba000      -0.00000000
 
 Energy:     -191.63238097
 


 **********************************************************************************************************************************
 DATASETS  * FILE   NREC   LENGTH (MB)   RECORD NAMES
              1      21       36.28       500      610      700      900      950      970     1000      129      960     1100   
                                          VAR    BASINP    GEOM    SYMINP    ZMAT    AOBASIS   BASIS     P2S    ABASIS      S 
                                         1400     1410     1420     1200     1210     1080     1700     1600     1650     1380   
                                           T        V       ECP      H0       H01     AOSYM    OPER      SMH    MOLCAS    JKOP   
                                         1700(1)
                                         OPER   

              2       5        0.79       700     1000      520     2100     2140   
                                         GEOM     BASIS   MCVARS     RHF     MCSCF   

 PROGRAMS   *        TOTAL     MULTI   RHF-SCF       INT
 CPU TIMES  *         2.74      1.90      0.05      0.58
 REAL TIME  *         4.69 SEC
 DISK USED  *        37.16 MB (local),      502.34 MB (total)
 SF USED    *        19.64 MB
 GA USED    *         0.00 MB       (max)       0.00 MB       (current)
 **********************************************************************************************************************************

 Energies and &lt;L**2&gt; values

         ENERGY     LL
    -191.8351606   2.0
    -191.8351606   2.0
    -191.8351606   2.0
    -191.6652280   6.0
    -191.6652280   6.0
    -191.6652280   6.0
    -191.6652280   6.0
    -191.6652280   6.0
    -191.6596578   2.0
    -191.6596578   2.0
    -191.6596578   2.0
    -191.6575768  -0.0
    -191.8012372   6.0
    -191.8012372   6.0
    -191.8012372   6.0
    -191.8012372   6.0
    -191.8012372   6.0
    -191.7677648  -0.0
    -191.6703318   2.0
    -191.6703318   2.0
    -191.6703318   2.0
    -191.6481089   6.0
    -191.6481089   6.0
    -191.6481089   6.0
    -191.6481089   6.0
    -191.6481089   6.0
    -191.6323810  -0.0
                                                  


 PROGRAM * CI (Multireference internally contracted CI)     Authors: H.-J. Werner, P.J. Knowles, 1987


 Convergence thresholds:  THRVAR = 1.00D-08  THRDEN = 1.00D-06

 Number of optimized states: 12  Roots:   1   2   3   4   5   6   7   8   9  10  11  12
 Number of reference states: 12  Roots:   1   2   3   4   5   6   7   8   9  10  11  12

 Reference symmetry:                   1   Triplet 
 Number of electrons:                 22
 Maximum number of shells:             5
 Maximum number of spin couplings:    90

 Reference space:       90 conf      120 CSFs
 N elec internal:    18284 conf    76944 CSFs
 N-1 el internal:    12821 conf    88545 CSFs
 N-2 el internal:     4717 conf    46537 CSFs

 Number of electrons in valence space:                     22
 Maximum number of open shell orbitals in reference space:  4
 Maximum number of open shell orbitals in internal spaces: 10


 Number of closed-shell orbitals:   9 (   6   3 )
 Number of active  orbitals:        7 (   1   6 )
 Number of external orbitals:      80 (  40  40 )

 Molecular orbitals read from record     2140.2  Type=MCSCF/NATURAL (state averaged)

 Valence orbitals related to previous ones by unitary transformation. Operators transformed.


 Number of p-space configurations:  15

 Reference wavefunction optimized for reference space (refopt=1)

 State     Reference Energy 
     1      -191.83516057
     2      -191.83516057
     3      -191.83516057
     4      -191.66522803
     5      -191.66522803
     6      -191.66522803
     7      -191.66522803
     8      -191.66522803
     9      -191.65965778
    10      -191.65965778
    11      -191.65965778
    12      -191.65757675

 ?WARNING: SMALL EIGENVALUE OF PAIR OVERLAP MATRIX:  0.1103D-06

 ?WARNING: SMALL EIGENVALUE OF PAIR OVERLAP MATRIX:  0.1748D-06

 ?WARNING: SMALL EIGENVALUE OF PAIR OVERLAP MATRIX:  0.1699D-06

 ?WARNING: SMALL EIGENVALUE OF PAIR OVERLAP MATRIX:  0.1103D-06

 ?WARNING: SMALL EIGENVALUE OF PAIR OVERLAP MATRIX:  0.1748D-06

 ?WARNING: SMALL EIGENVALUE OF PAIR OVERLAP MATRIX:  0.1699D-06

 ?WARNING: SMALL EIGENVALUE OF PAIR OVERLAP MATRIX:  0.1103D-06

 ?WARNING: SMALL EIGENVALUE OF PAIR OVERLAP MATRIX:  0.1748D-06

 ?WARNING: SMALL EIGENVALUE OF PAIR OVERLAP MATRIX:  0.1699D-06

 ?WARNING: SMALL EIGENVALUE OF PAIR OVERLAP MATRIX:  0.1103D-06

 ?WARNING: SMALL EIGENVALUE OF PAIR OVERLAP MATRIX:  0.1748D-06

 ?WARNING: SMALL EIGENVALUE OF PAIR OVERLAP MATRIX:  0.1699D-06

 ?WARNING: SMALL EIGENVALUE OF PAIR OVERLAP MATRIX:  0.1103D-06

 ?WARNING: SMALL EIGENVALUE OF PAIR OVERLAP MATRIX:  0.1748D-06

 ?WARNING: SMALL EIGENVALUE OF PAIR OVERLAP MATRIX:  0.1699D-06

 ?WARNING: SMALL EIGENVALUE OF PAIR OVERLAP MATRIX:  0.1103D-06

 ?WARNING: SMALL EIGENVALUE OF PAIR OVERLAP MATRIX:  0.1748D-06

 ?WARNING: SMALL EIGENVALUE OF PAIR OVERLAP MATRIX:  0.1699D-06

 ?WARNING: SMALL EIGENVALUE OF PAIR OVERLAP MATRIX:  0.1103D-06

 ?WARNING: SMALL EIGENVALUE OF PAIR OVERLAP MATRIX:  0.1748D-06

 ?WARNING: SMALL EIGENVALUE OF PAIR OVERLAP MATRIX:  0.1699D-06

 ?WARNING: SMALL EIGENVALUE OF PAIR OVERLAP MATRIX:  0.1103D-06

 ?WARNING: SMALL EIGENVALUE OF PAIR OVERLAP MATRIX:  0.1748D-06

 ?WARNING: SMALL EIGENVALUE OF PAIR OVERLAP MATRIX:  0.1699D-06

 ?WARNING: SMALL EIGENVALUE OF PAIR OVERLAP MATRIX:  0.1103D-06

 ?WARNING: SMALL EIGENVALUE OF PAIR OVERLAP MATRIX:  0.1748D-06

 ?WARNING: SMALL EIGENVALUE OF PAIR OVERLAP MATRIX:  0.1699D-06

 ?WARNING: SMALL EIGENVALUE OF PAIR OVERLAP MATRIX:  0.1103D-06

 ?WARNING: SMALL EIGENVALUE OF PAIR OVERLAP MATRIX:  0.1748D-06

 ?WARNING: SMALL EIGENVALUE OF PAIR OVERLAP MATRIX:  0.1699D-06

 ?WARNING: SMALL EIGENVALUE OF PAIR OVERLAP MATRIX:  0.1103D-06

 ?WARNING: SMALL EIGENVALUE OF PAIR OVERLAP MATRIX:  0.1748D-06

 ?WARNING: SMALL EIGENVALUE OF PAIR OVERLAP MATRIX:  0.1699D-06

 ?WARNING: SMALL EIGENVALUE OF PAIR OVERLAP MATRIX:  0.1103D-06

 ?WARNING: SMALL EIGENVALUE OF PAIR OVERLAP MATRIX:  0.1748D-06

 ?WARNING: SMALL EIGENVALUE OF PAIR OVERLAP MATRIX:  0.1699D-06

 ?WARNING: SMALL EIGENVALUE OF PAIR OVERLAP MATRIX:  0.1103D-06

 ?WARNING: SMALL EIGENVALUE OF PAIR OVERLAP MATRIX:  0.1748D-06

 ?WARNING: SMALL EIGENVALUE OF PAIR OVERLAP MATRIX:  0.1699D-06

 ?WARNING: SMALL EIGENVALUE OF PAIR OVERLAP MATRIX:  0.1103D-06

 ?WARNING: SMALL EIGENVALUE OF PAIR OVERLAP MATRIX:  0.1748D-06

 ?WARNING: SMALL EIGENVALUE OF PAIR OVERLAP MATRIX:  0.1699D-06

 ?WARNING: SMALL EIGENVALUE OF PAIR OVERLAP MATRIX:  0.1103D-06

 ?WARNING: SMALL EIGENVALUE OF PAIR OVERLAP MATRIX:  0.1748D-06

 ?WARNING: SMALL EIGENVALUE OF PAIR OVERLAP MATRIX:  0.1699D-06

 ?WARNING: SMALL EIGENVALUE OF PAIR OVERLAP MATRIX:  0.1103D-06

 ?WARNING: SMALL EIGENVALUE OF PAIR OVERLAP MATRIX:  0.1748D-06

 ?WARNING: SMALL EIGENVALUE OF PAIR OVERLAP MATRIX:  0.1699D-06

 ?WARNING: SMALL EIGENVALUE OF PAIR OVERLAP MATRIX:  0.1103D-06

 ?WARNING: SMALL EIGENVALUE OF PAIR OVERLAP MATRIX:  0.1748D-06

 ?WARNING: SMALL EIGENVALUE OF PAIR OVERLAP MATRIX:  0.1699D-06

 ?WARNING: SMALL EIGENVALUE OF PAIR OVERLAP MATRIX:  0.1103D-06

 ?WARNING: SMALL EIGENVALUE OF PAIR OVERLAP MATRIX:  0.1748D-06

 ?WARNING: SMALL EIGENVALUE OF PAIR OVERLAP MATRIX:  0.1699D-06

 Number of blocks in overlap matrix:  1217   Smallest eigenvalue:  0.11D-06
 Number of N-2 electron functions:    2455
 Number of N-1 electron functions:   88545

 Number of internal configurations:                38406
 Number of singly external configurations:       3541800
 Number of doubly external configurations:       3931560
 Total number of contracted configurations:      7511766
 Total number of uncontracted configurations:   77703006

 Diagonal Coupling coefficients finished.               Storage:  25420021 words, CPU-Time:     78.45 seconds.
 Energy denominators for pairs finished in 1 passes.    Storage:   1325241 words, CPU-time:      0.17 seconds.

  ITER. STATE  ROOT     SQ.NORM     CORR.ENERGY   TOTAL ENERGY   ENERGY CHANGE       DEN1      VAR(S)    VAR(P)      TIME
    1     1     1     1.00000000     0.00000000  -191.83516057     0.00000000    -0.77117943  0.53D-01  0.11D+00    90.27
    1     2     2     1.00000000     0.00000000  -191.83516057     0.00000000    -0.77111639  0.53D-01  0.11D+00    90.27
    1     3     3     1.00000000     0.00000000  -191.83516057     0.00000000    -0.77116975  0.53D-01  0.11D+00    90.27
    1     4     4     1.00000000     0.00000000  -191.66522803     0.00000000    -0.73677221  0.42D-01  0.98D-01    90.27
    1     5     5     1.00000000     0.00000000  -191.66522803     0.00000000    -0.73649162  0.42D-01  0.98D-01    90.27
    1     6     6     1.00000000     0.00000000  -191.66522803    -0.00000000    -0.73656912  0.42D-01  0.98D-01    90.27
    1     7     7     1.00000000     0.00000000  -191.66522803     0.00000000    -0.73658182  0.42D-01  0.98D-01    90.27
    1     8     8     1.00000000     0.00000000  -191.66522803     0.00000000    -0.73683053  0.42D-01  0.98D-01    90.27
    1     9     9     1.00000000     0.00000000  -191.65965778     0.00000000    -0.74165853  0.44D-01  0.99D-01    90.27
    1    10    10     1.00000000     0.00000000  -191.65965778     0.00000000    -0.74166036  0.44D-01  0.99D-01    90.27
    1    11    11     1.00000000     0.00000000  -191.65965778     0.00000000    -0.74164887  0.44D-01  0.99D-01    90.27
    1    12    12     1.00000000     0.00000000  -191.65757675     0.00000000    -0.73731229  0.42D-01  0.98D-01    90.27
    2     1     1     1.09512431    -0.59512709  -192.43028766    -0.59512709    -0.01882558  0.33D-02  0.16D-02   437.56
    2     2     2     1.09514073    -0.59512566  -192.43028623    -0.59512566    -0.01883738  0.33D-02  0.15D-02   437.56
    2     3     3     1.09522597    -0.59505101  -192.43021158    -0.59505101    -0.01890972  0.34D-02  0.15D-02   437.56
    2     4     4     1.08698894    -0.58377103  -192.24899906    -0.58377103    -0.01584198  0.24D-02  0.12D-02   437.56
    2     5     5     1.08702097    -0.58374743  -192.24897546    -0.58374743    -0.01586927  0.24D-02  0.12D-02   437.56
    2     6     6     1.08690328    -0.58374362  -192.24897165    -0.58374362    -0.01587842  0.24D-02  0.12D-02   437.56
    2     7     7     1.08693447    -0.58372834  -192.24895637    -0.58372834    -0.01589665  0.24D-02  0.12D-02   437.56
    2     8     8     1.08695073    -0.58371517  -192.24894320    -0.58371517    -0.01591007  0.24D-02  0.12D-02   437.56
    2     9     9     1.08761857    -0.58466241  -192.24432019    -0.58466241    -0.01646788  0.27D-02  0.13D-02   437.56
    2    10    10     1.08761926    -0.58465984  -192.24431762    -0.58465984    -0.01647361  0.27D-02  0.13D-02   437.56
    2    11    11     1.08763340    -0.58464546  -192.24430324    -0.58464546    -0.01648838  0.27D-02  0.13D-02   437.56
    2    12    12     1.08717806    -0.58394948  -192.24152623    -0.58394948    -0.01609116  0.25D-02  0.12D-02   437.56
    3     1     1     1.08641903    -0.61271661  -192.44787718    -0.01758951    -0.00044607  0.70D-04  0.56D-04   786.58
    3     2     2     1.08641514    -0.61271351  -192.44787408    -0.01758784    -0.00044763  0.69D-04  0.57D-04   786.58
    3     3     3     1.08641883    -0.61270825  -192.44786882    -0.01765724    -0.00045272  0.71D-04  0.57D-04   786.58
    3     4     4     1.08182359    -0.59864981  -192.26387784    -0.01487878    -0.00031606  0.37D-04  0.37D-04   786.58
    3     5     5     1.08182558    -0.59864949  -192.26387752    -0.01490206    -0.00031668  0.37D-04  0.38D-04   786.58
    3     6     6     1.08182381    -0.59864865  -192.26387668    -0.01490503    -0.00031715  0.37D-04  0.38D-04   786.58
    3     7     7     1.08184523    -0.59864744  -192.26387547    -0.01491910    -0.00031837  0.37D-04  0.39D-04   786.58
    3     8     8     1.08184432    -0.59864661  -192.26387464    -0.01493144    -0.00031915  0.37D-04  0.39D-04   786.58
    3     9     9     1.08186165    -0.60008053  -192.25973832    -0.01541813    -0.00033535  0.43D-04  0.39D-04   786.58
    3    10    10     1.08186221    -0.60007983  -192.25973761    -0.01541999    -0.00033546  0.43D-04  0.39D-04   786.58
    3    11    11     1.08186058    -0.60007927  -192.25973705    -0.01543381    -0.00033621  0.43D-04  0.39D-04   786.58
    3    12    12     1.08193036    -0.59907110  -192.25664785    -0.01512162    -0.00033340  0.38D-04  0.43D-04   786.58
    4     1     1     1.08645015    -0.61318722  -192.44834779    -0.00047061    -0.00002332  0.36D-05  0.33D-05  1134.86
    4     2     2     1.08644692    -0.61318669  -192.44834726    -0.00047318    -0.00002370  0.36D-05  0.34D-05  1134.86
    4     3     3     1.08644689    -0.61318650  -192.44834707    -0.00047825    -0.00002389  0.37D-05  0.34D-05  1134.86
    4     4     4     1.08259067    -0.59898548  -192.26421351    -0.00033567    -0.00001524  0.27D-05  0.23D-05  1134.86
    4     5     5     1.08259146    -0.59898537  -192.26421340    -0.00033588    -0.00001526  0.26D-05  0.23D-05  1134.86
    4     6     6     1.08258585    -0.59898529  -192.26421332    -0.00033664    -0.00001549  0.27D-05  0.23D-05  1134.86
    4     7     7     1.08259039    -0.59898521  -192.26421324    -0.00033777    -0.00001529  0.27D-05  0.23D-05  1134.86
    4     8     8     1.08258559    -0.59898507  -192.26421310    -0.00033847    -0.00001553  0.27D-05  0.23D-05  1134.86
    4     9     9     1.08253991    -0.60043393  -192.26009171    -0.00035340    -0.00001619  0.30D-05  0.23D-05  1134.86
    4    10    10     1.08253957    -0.60043370  -192.26009148    -0.00035386    -0.00001627  0.30D-05  0.23D-05  1134.86
    4    11    11     1.08253947    -0.60043368  -192.26009146    -0.00035441    -0.00001627  0.30D-05  0.23D-05  1134.86
    4    12    12     1.08279746    -0.59942772  -192.25700447    -0.00035662    -0.00001778  0.26D-05  0.32D-05  1134.86
    5     1     1     1.08657420    -0.61321349  -192.44837406    -0.00002627    -0.00000110  0.79D-07  0.19D-06  1482.76
    5     2     2     1.08657430    -0.61321344  -192.44837401    -0.00002676    -0.00000113  0.81D-07  0.19D-06  1482.76
    5     3     3     1.08657349    -0.61321344  -192.44837401    -0.00002695    -0.00000113  0.81D-07  0.19D-06  1482.76
    5     4     4     1.08280290    -0.59900361  -192.26423164    -0.00001813    -0.00000087  0.48D-07  0.21D-06  1482.76
    5     5     5     1.08280338    -0.59900354  -192.26423157    -0.00001817    -0.00000086  0.50D-07  0.21D-06  1482.76
    5     6     6     1.08280349    -0.59900347  -192.26423150    -0.00001818    -0.00000087  0.50D-07  0.21D-06  1482.76
    5     7     7     1.08280277    -0.59900345  -192.26423148    -0.00001824    -0.00000088  0.49D-07  0.21D-06  1482.76
    5     8     8     1.08280314    -0.59900333  -192.26423136    -0.00001826    -0.00000087  0.50D-07  0.21D-06  1482.76
    5     9     9     1.08272422    -0.60045275  -192.26011053    -0.00001882    -0.00000096  0.69D-07  0.23D-06  1482.76
    5    10    10     1.08272404    -0.60045263  -192.26011041    -0.00001893    -0.00000098  0.69D-07  0.23D-06  1482.76
    5    11    11     1.08272401    -0.60045260  -192.26011038    -0.00001892    -0.00000097  0.69D-07  0.23D-06  1482.76
    5    12    12     1.08308062    -0.59944934  -192.25702609    -0.00002162    -0.00000121  0.64D-07  0.31D-06  1482.76
    6     1     1     1.08656977    -0.61321474  -192.44837531    -0.00000125    -0.00000007  0.84D-08  0.12D-07  1833.38
    6     2     2     1.08656956    -0.61321473  -192.44837530    -0.00000129    -0.00000008  0.88D-08  0.13D-07  1833.38
    6     3     3     1.08656952    -0.61321473  -192.44837530    -0.00000129    -0.00000008  0.88D-08  0.13D-07  1833.38
    6     4     4     1.08281491    -0.59900472  -192.26423275    -0.00000110    -0.00000009  0.88D-08  0.19D-07  1833.38
    6     5     5     1.08281537    -0.59900464  -192.26423267    -0.00000109    -0.00000009  0.92D-08  0.19D-07  1833.38
    6     6     6     1.08281524    -0.59900457  -192.26423260    -0.00000110    -0.00000009  0.93D-08  0.19D-07  1833.38
    6     7     7     1.08281476    -0.59900456  -192.26423259    -0.00000111    -0.00000009  0.89D-08  0.19D-07  1833.38
    6     8     8     1.08281511    -0.59900443  -192.26423246    -0.00000110    -0.00000009  0.92D-08  0.19D-07  1833.38
    6     9     9     1.08273137    -0.60045396  -192.26011174    -0.00000121    -0.00000011  0.13D-07  0.24D-07  1833.38
    6    10    10     1.08273117    -0.60045386  -192.26011164    -0.00000123    -0.00000012  0.14D-07  0.25D-07  1833.38
    6    11    11     1.08273116    -0.60045382  -192.26011160    -0.00000122    -0.00000011  0.13D-07  0.25D-07  1833.38
    6    12    12     1.08309993    -0.59945090  -192.25702766    -0.00000156    -0.00000012  0.14D-07  0.24D-07  1833.38
    7     1     1     1.08657809    -0.61321482  -192.44837539    -0.00000009    -0.00000001  0.49D-09  0.10D-08  2177.58
    7     2     2     1.08657806    -0.61321482  -192.44837539    -0.00000009    -0.00000001  0.51D-09  0.10D-08  2177.58
    7     3     3     1.08657811    -0.61321482  -192.44837539    -0.00000009    -0.00000001  0.51D-09  0.10D-08  2177.58
    7     4     4     1.08282111    -0.59900482  -192.26423285    -0.00000011    -0.00000001  0.88D-09  0.17D-08  2177.58
    7     5     5     1.08282097    -0.59900474  -192.26423277    -0.00000011    -0.00000001  0.85D-09  0.17D-08  2177.58
    7     6     6     1.08282086    -0.59900468  -192.26423271    -0.00000011    -0.00000001  0.86D-09  0.17D-08  2177.58
    7     7     7     1.08282097    -0.59900467  -192.26423270    -0.00000011    -0.00000001  0.89D-09  0.17D-08  2177.58
    7     8     8     1.08282075    -0.59900454  -192.26423257    -0.00000011    -0.00000001  0.86D-09  0.17D-08  2177.58
    7     9     9     1.08273722    -0.60045410  -192.26011188    -0.00000014    -0.00000001  0.13D-08  0.24D-08  2177.58
    7    10    10     1.08273706    -0.60045400  -192.26011178    -0.00000015    -0.00000001  0.13D-08  0.25D-08  2177.58
    7    11    11     1.08273703    -0.60045396  -192.26011174    -0.00000014    -0.00000001  0.13D-08  0.24D-08  2177.58
    7    12    12     1.08310718    -0.59945105  -192.25702780    -0.00000015    -0.00000001  0.11D-08  0.19D-08  2177.58


 =====================================
 Analysis of CPU times by interactions
 =====================================

       I      S      P

 I   1.6%
 S   1.0%  12.9%
 P   0.4%  48.7%  25.9%

 Initialization:   3.7%
 Other:            5.7%

 Total CPU:     2177.6 seconds
 =====================================



 Wavefunction saved on  5201.2

 Reference coefficients greater than 0.0500000
 =============================================
 22222222220//000          -0.0000000   0.9481217   0.0000000  -0.0000000  -0.0000000   0.0000003   0.0000000  -0.0000000
                            0.0000073  -0.1174413  -0.0000383   0.0000000
 2222222222//0000           0.0008077  -0.0000000   0.9481214  -0.0000000   0.0000000   0.0000000  -0.0000000  -0.0000004
                            0.0000016   0.0000383  -0.1174411  -0.0000000
 2222222222/0/000           0.9481214   0.0000000  -0.0008077  -0.0000000  -0.0000006  -0.0000000  -0.0000000   0.0000000
                           -0.1174412  -0.0000073  -0.0000016  -0.0000000
 22222222220/0/00           0.0000000  -0.0000000   0.0000000  -0.0982756  -0.0000016  -0.0006356   0.7733350   0.0000109
                           -0.0000000  -0.0000000  -0.0000000   0.5510816
 222222222200/00/           0.0000000   0.0000000   0.0000000   0.7188741   0.0000006   0.0001576  -0.3015698   0.0000077
                           -0.0000000   0.0000000  -0.0000000   0.5510646
 2222222222/0000/           0.0831610   0.0000000  -0.0000708  -0.0000000   0.6751233   0.0000000   0.0000014  -0.0000000
                            0.6701531   0.0000419   0.0000091   0.0000000
 222222222200//00           0.0000000  -0.0831610  -0.0000000   0.0000895  -0.0000000   0.6751227   0.0005662   0.0000000
                            0.0000419  -0.6701535  -0.0002185   0.0000000
 2222222222/00/00           0.0000708  -0.0000000   0.0831609  -0.0000118  -0.0000000  -0.0000000  -0.0000110   0.6751223
                           -0.0000091  -0.0002185   0.6701542   0.0000000
 22222222220/00/0          -0.0000708   0.0000000  -0.0831606  -0.0000118   0.0000000   0.0000000  -0.0000110   0.6751202
                            0.0000091   0.0002185  -0.6701564  -0.0000000
 22222222220/000/          -0.0000000   0.0831610   0.0000000   0.0000895   0.0000000   0.6751193   0.0005662   0.0000000
                           -0.0000419   0.6701570   0.0002185  -0.0000000
[...]
 13  1     1    1  |1 0>          0.00%    0.00%    0.00%    0.10%    0.00%    0.00%    0.02%    0.00%
 14  1     2    1  |1 0>          0.00%    0.00%    0.03%    0.00%    0.00%    0.00%    0.00%    0.00%
 15  1     3    1  |1 0>          0.00%    0.00%    0.00%    0.00%    0.00%    0.10%    0.00%    0.00%
 16  1     4    1  |1 0>         13.95%    0.00%    0.00%    0.00%    4.38%    0.00%    0.00%    9.87%
 17  1     5    1  |1 0>          0.00%    0.00%    0.00%    5.19%    0.00%    0.00%    6.73%    0.00%
 18  1     6    1  |1 0>          0.00%   35.49%    2.61%    0.00%    0.00%    0.00%    0.00%    0.00%
 19  1     7    1  |1 0>         24.14%    0.00%    0.00%    0.00%    2.53%    0.00%    0.00%   17.07%
 20  1     8    1  |1 0>          0.00%    0.00%    0.00%    0.00%    0.00%    5.19%    0.00%    0.00%
 21  1     9    1  |1 0>          0.00%    0.00%    0.00%   17.83%    0.00%    0.00%   19.83%    0.00%
 22  1    10    1  |1 0>          0.00%    0.78%   10.64%    0.00%    0.00%    0.00%    0.00%    0.00%
 23  1    11    1  |1 0>          0.00%    0.00%    0.00%    0.00%    0.00%   17.83%    0.00%    0.00%
 24  1    12    1  |1 0>          0.00%    0.00%    0.00%    0.00%    0.20%    0.00%    0.00%    0.00%
 25  1     1    1  |1 1>-         0.00%    0.02%    0.02%    0.00%    0.00%    0.00%    0.00%    0.00%
 26  1     2    1  |1 1>-         0.00%    0.00%    0.00%    0.10%    0.00%    0.00%    0.02%    0.00%
 27  1     3    1  |1 1>-         0.03%    0.00%    0.00%    0.00%    0.10%    0.00%    0.00%    0.02%
 28  1     4    1  |1 1>-         0.00%    0.00%    0.00%    0.00%    0.00%    0.11%    0.00%    0.00%
 29  1     5    1  |1 1>-         0.00%   19.16%   18.94%    0.00%    0.00%    0.00%    0.00%    0.00%
 30  1     6    1  |1 1>-         0.00%    0.00%    0.00%    5.19%    0.00%    0.00%    6.73%    0.00%
 31  1     7    1  |1 1>-         0.00%    0.00%    0.00%    0.00%    0.00%    6.81%    0.00%    0.00%
 32  1     8    1  |1 1>-         9.52%    0.00%    0.00%    0.00%    5.19%    0.00%    0.00%    6.73%
 33  1     9    1  |1 1>-         0.00%    5.68%    5.75%    0.00%    0.00%    0.00%    0.00%    0.00%
 34  1    10    1  |1 1>-         0.00%    0.00%    0.00%   17.83%    0.00%    0.00%   19.83%    0.00%
 35  1    11    1  |1 1>-         8.57%    0.00%    0.00%    0.00%   17.83%    0.00%    0.00%   19.83%
 36  1    12    1  |1 1>-         0.00%    0.00%    0.00%    0.00%    0.00%    0.20%    0.00%    0.00%
 37  1     1    1  |0 0>          0.00%    0.00%    0.00%    0.00%    0.00%    0.00%    0.32%    0.00%
 38  1     2    1  |0 0>          0.24%    0.00%    0.00%    0.00%    0.00%    0.00%    0.00%    0.32%
 39  1     3    1  |0 0>          0.00%    0.00%    0.00%    0.00%    0.00%    0.00%    0.00%    0.00%
 40  1     4    1  |0 0>          0.00%    0.05%    0.19%    0.00%    0.00%    0.00%    0.00%    0.00%
 41  1     5    1  |0 0>          0.00%    0.19%    0.05%    0.00%    0.00%    0.00%    0.00%    0.00%
 42  1     6    1  |0 0>          0.00%    0.00%    0.00%    0.00%    0.00%    0.00%    0.00%    0.00%
 43  1     7    1  |0 0>          0.00%    0.00%    0.00%   46.64%    0.00%    0.00%    0.00%    0.00%
 44  1     8    1  |0 0>          0.00%    0.00%    0.00%    0.00%   46.64%    0.00%    0.00%    0.00%
 45  1     9    1  |0 0>          0.00%    0.00%    0.00%    0.00%    0.00%   46.65%    0.00%    0.00%
 46  1    10    1  |0 0>          0.00%    0.00%    0.00%    0.00%    0.00%    0.00%   19.58%    0.00%
 47  1    11    1  |0 0>         25.43%    0.00%    0.00%    0.00%    0.00%    0.00%    0.00%   19.57%
 48  1    12    1  |0 0>          0.00%    0.00%    0.00%    0.00%    0.00%    0.00%    0.00%    0.00%
 49  1    13    1  |0 0>          0.00%    6.15%   19.27%    0.00%    0.00%    0.00%    0.00%    0.00%
 50  1    14    1  |0 0>          0.00%   19.27%    6.15%    0.00%    0.00%    0.00%    0.00%    0.00%
 51  1    15    1  |0 0>          0.00%    0.00%    0.00%    0.00%    0.00%    0.00%    0.00%    0.00%

   Total
 Nr Sym  State Sym Spin / Nr.     33       34       35       36       37       38       39       40

  1  1     1    1  |1 1>+         0.00%    0.00%    0.00%    0.00%    0.00%    0.00%    0.00%    0.00%
  2  1     2    1  |1 1>+         0.02%    0.00%    0.00%    0.00%    0.00%    0.00%    0.00%    0.00%
  3  1     3    1  |1 1>+         0.00%    0.00%    0.03%    0.00%    0.00%    0.00%    0.00%    0.00%
  4  1     4    1  |1 1>+         0.00%    0.00%    0.00%   54.08%    0.00%    0.00%    1.93%    0.00%
  5  1     5    1  |1 1>+         0.00%    0.00%    0.00%    0.00%   50.61%    0.00%    0.00%    0.00%
  6  1     6    1  |1 1>+         6.73%    0.00%    0.00%    0.00%    0.00%   53.09%    0.00%    0.00%
  7  1     7    1  |1 1>+         0.00%    0.00%    0.00%    0.02%    0.00%    0.00%   37.30%    0.00%
  8  1     8    1  |1 1>+         0.00%   24.30%    2.63%    0.00%    0.00%    0.00%    0.00%   33.34%
  9  1     9    1  |1 1>+         0.00%    0.00%    0.00%    0.00%    0.00%    0.00%    0.00%    0.00%
 10  1    10    1  |1 1>+        19.83%    0.00%    0.00%    0.00%    0.00%    0.00%    0.00%    0.00%
 11  1    11    1  |1 1>+         0.00%    2.58%   23.86%    0.00%    0.00%    0.00%    0.00%    0.00%
 12  1    12    1  |1 1>+         0.00%    0.00%    0.00%    0.00%    0.00%    0.00%    0.00%    0.00%
 13  1     1    1  |1 0>          0.00%    0.00%    0.00%    0.00%    0.00%    0.00%    0.00%    0.00%
 14  1     2    1  |1 0>          0.00%    0.01%    0.02%    0.00%    0.00%    0.00%    0.00%    0.00%
 15  1     3    1  |1 0>          0.02%    0.00%    0.00%    0.00%    0.00%    0.00%    0.00%    0.00%
 16  1     4    1  |1 0>          0.00%    0.00%    0.00%    0.00%   48.83%    0.00%    0.00%    0.00%
 17  1     5    1  |1 0>          0.00%    0.00%    0.00%   44.39%    0.00%    0.00%    8.94%    0.00%
 18  1     6    1  |1 0>          0.00%   14.98%   11.96%    0.00%    0.00%    0.00%    0.00%   33.33%
 19  1     7    1  |1 0>          0.00%    0.00%    0.00%    0.00%    0.54%    0.00%    0.00%    0.00%
 20  1     8    1  |1 0>          6.73%    0.00%    0.00%    0.00%    0.00%    5.32%    0.00%    0.00%
 21  1     9    1  |1 0>          0.00%    0.00%    0.00%    0.00%    0.00%    0.00%    0.00%    0.00%
 22  1    10    1  |1 0>          0.00%   11.74%   14.70%    0.00%    0.00%    0.00%    0.00%    0.00%
 23  1    11    1  |1 0>         19.83%    0.00%    0.00%    0.00%    0.00%    0.00%    0.00%    0.00%
 24  1    12    1  |1 0>          0.00%    0.00%    0.00%    0.00%    0.00%    0.00%    0.00%    0.00%
 25  1     1    1  |1 1>-         0.00%    0.03%    0.00%    0.00%    0.00%    0.00%    0.00%    0.00%
 26  1     2    1  |1 1>-         0.00%    0.00%    0.00%    0.00%    0.00%    0.00%    0.00%    0.00%
 27  1     3    1  |1 1>-         0.00%    0.00%    0.00%    0.00%    0.00%    0.00%    0.00%    0.00%
 28  1     4    1  |1 1>-        26.51%    0.00%    0.00%    0.00%    0.00%   28.10%    0.00%    0.00%
 29  1     5    1  |1 1>-         0.00%    1.13%   25.81%    0.00%    0.00%    0.00%    0.00%   33.33%
 30  1     6    1  |1 1>-         0.00%    0.00%    0.00%    1.51%    0.00%    0.00%   51.82%    0.00%
 31  1     7    1  |1 1>-         0.43%    0.00%    0.00%    0.00%    0.00%   13.50%    0.00%    0.00%
 32  1     8    1  |1 1>-         0.00%    0.00%    0.00%    0.00%    0.03%    0.00%    0.00%    0.00%
 33  1     9    1  |1 1>-         0.00%   25.34%    1.10%    0.00%    0.00%    0.00%    0.00%    0.00%
 34  1    10    1  |1 1>-         0.00%    0.00%    0.00%    0.00%    0.00%    0.00%    0.00%    0.00%
 35  1    11    1  |1 1>-         0.00%    0.00%    0.00%    0.00%    0.00%    0.00%    0.00%    0.00%
 36  1    12    1  |1 1>-         0.00%    0.00%    0.00%    0.00%    0.00%    0.00%    0.00%    0.00%
 37  1     1    1  |0 0>          0.00%    0.00%    0.00%    0.00%    0.00%    0.00%    0.00%    0.00%
 38  1     2    1  |0 0>          0.00%    0.00%    0.00%    0.00%    0.00%    0.00%    0.00%    0.00%
 39  1     3    1  |0 0>          0.32%    0.00%    0.00%    0.00%    0.00%    0.00%    0.00%    0.00%
 40  1     4    1  |0 0>          0.00%    0.31%    0.00%    0.00%    0.00%    0.00%    0.00%    0.00%
 41  1     5    1  |0 0>          0.00%    0.00%    0.31%    0.00%    0.00%    0.00%    0.00%    0.00%
 42  1     6    1  |0 0>          0.00%    0.00%    0.00%    0.00%    0.00%    0.00%    0.00%    0.00%
 43  1     7    1  |0 0>          0.00%    0.00%    0.00%    0.00%    0.00%    0.00%    0.00%    0.00%
 44  1     8    1  |0 0>          0.00%    0.00%    0.00%    0.00%    0.00%    0.00%    0.00%    0.00%
 45  1     9    1  |0 0>          0.00%    0.00%    0.00%    0.00%    0.00%    0.00%    0.00%    0.00%
 46  1    10    1  |0 0>          0.00%    0.00%    0.00%    0.00%    0.00%    0.00%    0.00%    0.00%
 47  1    11    1  |0 0>          0.00%    0.00%    0.00%    0.00%    0.00%    0.00%    0.00%    0.00%
 48  1    12    1  |0 0>         19.57%    0.00%    0.00%    0.00%    0.00%    0.00%    0.00%    0.00%
 49  1    13    1  |0 0>          0.00%   19.50%    0.08%    0.00%    0.00%    0.00%    0.00%    0.00%
 50  1    14    1  |0 0>          0.00%    0.08%   19.50%    0.00%    0.00%    0.00%    0.00%    0.00%
 51  1    15    1  |0 0>          0.00%    0.00%    0.00%    0.00%    0.00%    0.00%    0.00%    0.00%

   Total
 Nr Sym  State Sym Spin / Nr.     41       42       43       44       45       46       47       48

  1  1     1    1  |1 1>+         0.00%    0.00%    0.00%    0.06%    0.00%    0.00%    0.09%    0.00%
  2  1     2    1  |1 1>+         0.00%    0.00%    0.00%    0.00%    0.06%    0.00%    0.00%    0.09%
  3  1     3    1  |1 1>+         0.00%    0.00%    0.00%    0.00%    0.00%    0.00%    0.00%    0.00%
  4  1     4    1  |1 1>+         0.00%    0.00%    0.08%    0.00%    0.00%    0.18%    0.00%    0.00%
  5  1     5    1  |1 1>+         0.00%    2.73%    0.00%    0.07%    0.00%    0.00%    0.30%    0.00%
  6  1     6    1  |1 1>+         0.25%    0.00%    0.00%    0.00%    0.07%    0.00%    0.00%    0.30%
  7  1     7    1  |1 1>+         0.00%    0.00%    0.01%    0.00%    0.00%    1.02%    0.00%    0.00%
  8  1     8    1  |1 1>+         0.00%    0.00%    0.00%    0.00%    0.00%    0.00%    0.00%    0.00%
  9  1     9    1  |1 1>+         0.00%    0.00%    0.00%    7.34%    0.00%    0.00%   21.55%    0.00%
 10  1    10    1  |1 1>+         0.00%    0.00%    0.00%    0.00%    7.34%    0.00%    0.00%   21.55%
 11  1    11    1  |1 1>+         0.00%    0.00%    0.00%    0.00%    0.00%    0.00%    0.00%    0.00%
 12  1    12    1  |1 1>+         0.00%    0.00%   71.71%    0.00%    0.00%    0.00%    0.00%    0.00%
 13  1     1    1  |1 0>          0.00%    0.00%    0.06%    0.00%    0.00%    0.09%    0.00%    0.00%
 14  1     2    1  |1 0>          0.00%    0.00%    0.00%    0.00%    0.00%    0.00%    0.00%    0.00%
 15  1     3    1  |1 0>          0.00%    0.00%    0.00%    0.00%    0.06%    0.00%    0.00%    0.09%
 16  1     4    1  |1 0>          0.00%    1.41%    0.00%    0.06%    0.00%    0.00%    0.44%    0.00%
 17  1     5    1  |1 0>          0.00%    0.00%    0.07%    0.00%    0.00%    0.30%    0.00%    0.00%
 18  1     6    1  |1 0>          0.00%    0.00%    0.00%    0.00%    0.00%    0.00%    0.00%    0.00%
 19  1     7    1  |1 0>          0.00%   42.56%    0.00%    0.03%    0.00%    0.00%    0.76%    0.00%
 20  1     8    1  |1 0>         48.02%    0.00%    0.00%    0.00%    0.07%    0.00%    0.00%    0.30%
 21  1     9    1  |1 0>          0.00%    0.00%    7.34%    0.00%    0.00%   21.55%    0.00%    0.00%
 22  1    10    1  |1 0>          0.00%    0.00%    0.00%    0.00%    0.00%    0.00%    0.00%    0.00%
 23  1    11    1  |1 0>          0.00%    0.00%    0.00%    0.00%    7.34%    0.00%    0.00%   21.55%
 24  1    12    1  |1 0>          0.00%    0.00%    0.00%   71.71%    0.00%    0.00%    0.00%    0.00%
 25  1     1    1  |1 1>-         0.00%    0.00%    0.00%    0.00%    0.00%    0.00%    0.00%    0.00%
 26  1     2    1  |1 1>-         0.00%    0.00%    0.06%    0.00%    0.00%    0.09%    0.00%    0.00%
 27  1     3    1  |1 1>-         0.00%    0.00%    0.00%    0.06%    0.00%    0.00%    0.09%    0.00%
 28  1     4    1  |1 1>-         5.65%    0.00%    0.00%    0.00%    0.00%    0.00%    0.00%    1.18%
 29  1     5    1  |1 1>-         0.00%    0.00%    0.00%    0.00%    0.00%    0.00%    0.00%    0.00%
 30  1     6    1  |1 1>-         0.00%    0.00%    0.07%    0.00%    0.00%    0.30%    0.00%    0.00%
 31  1     7    1  |1 1>-        46.08%    0.00%    0.00%    0.00%    0.09%    0.00%    0.00%    0.02%
 32  1     8    1  |1 1>-         0.00%   53.30%    0.00%    0.07%    0.00%    0.00%    0.30%    0.00%
 33  1     9    1  |1 1>-         0.00%    0.00%    0.00%    0.00%    0.00%    0.00%    0.00%    0.00%
 34  1    10    1  |1 1>-         0.00%    0.00%    7.34%    0.00%    0.00%   21.55%    0.00%    0.00%
 35  1    11    1  |1 1>-         0.00%    0.00%    0.00%    7.34%    0.00%    0.00%   21.55%    0.00%
 36  1    12    1  |1 1>-         0.00%    0.00%    0.00%    0.00%   71.71%    0.00%    0.00%    0.00%
 37  1     1    1  |0 0>          0.00%    0.00%    0.00%    0.00%    0.00%    0.02%    0.00%    0.00%
 38  1     2    1  |0 0>          0.00%    0.00%    0.00%    0.00%    0.00%    0.00%    0.02%    0.00%
 39  1     3    1  |0 0>          0.00%    0.00%    0.00%    0.00%    0.00%    0.00%    0.00%    0.02%
 40  1     4    1  |0 0>          0.00%    0.00%    0.00%    0.00%    0.00%    0.00%    0.00%    0.00%
 41  1     5    1  |0 0>          0.00%    0.00%    0.00%    0.00%    0.00%    0.00%    0.00%    0.00%
 42  1     6    1  |0 0>          0.00%    0.00%    0.00%    0.00%    0.00%    0.00%    0.00%    0.00%
 43  1     7    1  |0 0>          0.00%    0.00%   13.27%    0.00%    0.00%    0.00%    0.00%    0.00%
 44  1     8    1  |0 0>          0.00%    0.00%    0.00%   13.27%    0.00%    0.00%    0.00%    0.00%
 45  1     9    1  |0 0>          0.00%    0.00%    0.00%    0.00%   13.27%    0.00%    0.00%    0.00%
 46  1    10    1  |0 0>          0.00%    0.00%    0.00%    0.00%    0.00%   54.90%    0.00%    0.00%
 47  1    11    1  |0 0>          0.00%    0.00%    0.00%    0.00%    0.00%    0.00%   54.90%    0.00%
 48  1    12    1  |0 0>          0.00%    0.00%    0.00%    0.00%    0.00%    0.00%    0.00%   54.90%
 49  1    13    1  |0 0>          0.00%    0.00%    0.00%    0.00%    0.00%    0.00%    0.00%    0.00%
 50  1    14    1  |0 0>          0.00%    0.00%    0.00%    0.00%    0.00%    0.00%    0.00%    0.00%
 51  1    15    1  |0 0>          0.00%    0.00%    0.00%    0.00%    0.00%    0.00%    0.00%    0.00%

   Total
 Nr Sym  State Sym Spin / Nr.     49       50       51

  1  1     1    1  |1 1>+         0.00%    0.00%    0.00%
  2  1     2    1  |1 1>+         0.00%    0.00%    0.00%
  3  1     3    1  |1 1>+         0.01%    0.11%    0.07%
  4  1     4    1  |1 1>+         0.00%    0.00%    0.00%
  5  1     5    1  |1 1>+         0.00%    0.00%    0.00%
  6  1     6    1  |1 1>+         0.00%    0.00%    0.00%
  7  1     7    1  |1 1>+         0.00%    0.00%    0.00%
  8  1     8    1  |1 1>+         1.10%    0.10%    0.00%
  9  1     9    1  |1 1>+         0.00%    0.00%    0.00%
 10  1    10    1  |1 1>+         0.00%    0.00%    0.00%
 11  1    11    1  |1 1>+         2.44%   26.29%    7.08%
 12  1    12    1  |1 1>+         0.00%    0.00%    0.00%
 13  1     1    1  |1 0>          0.00%    0.00%    0.00%
 14  1     2    1  |1 0>          0.06%    0.07%    0.07%
 15  1     3    1  |1 0>          0.00%    0.00%    0.00%
 16  1     4    1  |1 0>          0.00%    0.00%    0.00%
 17  1     5    1  |1 0>          0.00%    0.00%    0.00%
 18  1     6    1  |1 0>          0.64%    0.56%    0.00%
 19  1     7    1  |1 0>          0.00%    0.00%    0.00%
 20  1     8    1  |1 0>          0.00%    0.00%    0.00%
 21  1     9    1  |1 0>          0.00%    0.00%    0.00%
 22  1    10    1  |1 0>         13.40%   15.33%    7.08%
 23  1    11    1  |1 0>          0.00%    0.00%    0.00%
 24  1    12    1  |1 0>          0.00%    0.00%    0.00%
 25  1     1    1  |1 1>-         0.12%    0.01%    0.07%
 26  1     2    1  |1 1>-         0.00%    0.00%    0.00%
 27  1     3    1  |1 1>-         0.00%    0.00%    0.00%
 28  1     4    1  |1 1>-         0.00%    0.00%    0.00%
 29  1     5    1  |1 1>-         0.06%    1.14%    0.00%
 30  1     6    1  |1 1>-         0.00%    0.00%    0.00%
 31  1     7    1  |1 1>-         0.00%    0.00%    0.00%
 32  1     8    1  |1 1>-         0.00%    0.00%    0.00%
 33  1     9    1  |1 1>-        27.26%    1.47%    7.08%
 34  1    10    1  |1 1>-         0.00%    0.00%    0.00%
 35  1    11    1  |1 1>-         0.00%    0.00%    0.00%
 36  1    12    1  |1 1>-         0.00%    0.00%    0.00%
 37  1     1    1  |0 0>          0.00%    0.00%    0.00%
 38  1     2    1  |0 0>          0.00%    0.00%    0.00%
 39  1     3    1  |0 0>          0.00%    0.00%    0.00%
 40  1     4    1  |0 0>          0.02%    0.00%    0.00%
 41  1     5    1  |0 0>          0.00%    0.02%    0.00%
 42  1     6    1  |0 0>          0.00%    0.00%    0.11%
 43  1     7    1  |0 0>          0.00%    0.00%    0.00%
 44  1     8    1  |0 0>          0.00%    0.00%    0.00%
 45  1     9    1  |0 0>          0.00%    0.00%    0.00%
 46  1    10    1  |0 0>          0.00%    0.00%    0.00%
 47  1    11    1  |0 0>          0.00%    0.00%    0.00%
 48  1    12    1  |0 0>          0.00%    0.00%    0.00%
 49  1    13    1  |0 0>         54.81%    0.09%    0.00%
 50  1    14    1  |0 0>          0.09%   54.81%    0.00%
 51  1    15    1  |0 0>          0.00%    0.00%   78.45%


 No matrix element <i|DMX|i> larger than 5E-7
 No matrix element <i|DMX|1> larger than 5E-7

 No matrix element <i|DMY|i> larger than 5E-7
 No matrix element <i|DMY|1> larger than 5E-7

 No matrix element <i|DMZ|i> larger than 5E-7
 No matrix element <i|DMZ|1> larger than 5E-7


 **********************************************************************************************************************************
 DATASETS  * FILE   NREC   LENGTH (MB)   RECORD NAMES
              1      21       36.28       500      610      700      900      950      970     1000      129      960     1100   
                                          VAR    BASINP    GEOM    SYMINP    ZMAT    AOBASIS   BASIS     P2S    ABASIS      S 
                                         1400     1410     1420     1200     1210     1080     1700     1600     1650     1380   
                                           T        V       ECP      H0       H01     AOSYM    OPER      SMH    MOLCAS    JKOP   
                                         1700(1)
                                         OPER   

              2       7     1447.04       700     1000      520     2100     2140     5201     5101   
                                         GEOM     BASIS   MCVARS     RHF     MCSCF    MRCI     MRCI   

 PROGRAMS   *        TOTAL        CI        CI        CI     MULTI   RHF-SCF       INT
 CPU TIMES  *     72237.64  65499.18   3252.23   3483.45      1.90      0.05      0.58
 REAL TIME  *     73108.92 SEC
 DISK USED  *         1.45 GB (local),       17.44 GB (total)
 SF USED    *         7.72 GB
 GA USED    *         0.00 MB       (max)       0.00 MB       (current)
 **********************************************************************************************************************************

 CI/aug-cc-pWCVTZ-PP energy=   -192.273765861429

              CI              CI           MULTI         RHF-SCF
   -192.23728994   -192.25702780   -191.64810887   -191.86422677
 **********************************************************************************************************************************
 Molpro calculation terminated with 1 warning(s)
