
 Working directory              : /wrk/irikura/molpro.ovFfLirJnf/
 Global scratch directory       : /wrk/irikura/molpro.ovFfLirJnf/
 Wavefunction directory         : /home/irikura/wfu/
 Main file repository           : /wrk/irikura/molpro.ovFfLirJnf/

 id        : nistki

 Nodes            nprocs
 pn112695.nist.gov    8
 GA implementation: MPI file
 GA implementation (serial work in mppx): MPI file

 Using customized tuning parameters: mindgm=1; mindgv=20; mindgc=4; mindgr=1; noblas=0; minvec=7
 default implementation of scratch files=sf  


 Variables initialized (1040), CPU time= 0.01 sec
 ***,Pb SO-CI
 memory,1500,M;
 
 gprint,orbitals,civector;
 
 symmetry,xyz
 geometry={Pb};
 
 basis=aug-cc-pwCV5Z-PP
 
                                                                                 ! spherical anion orbitals (4S)
 {rhf; wf,charge=-1,sym=2,spin=3}
 
 NTRIP=11
 NSING=6
 
 {multi
     closed,6,3
     occ,7,9
     wf,charge=0,sym=1,spin=2;state,NTRIP;
     wf,charge=0,sym=1,spin=0;state,NSING;
     expec2,lxx,lyy,lzz;
 }
 table, energy, ll
 title, Energies and &lt;L**2&gt; values
 
 core,0,0
 
 {ci;wf,sym=1,spin=2;state,NTRIP; save,5201.2}
 hlsdiag = energd4
 {ci;wf,sym=1,spin=0;state,NSING; save,5203.2}
 hlsdiag(NTRIP+1) = energd4
 
 table,hlsdiag
 
 {ci;hlsmat,ecp,5201.2,5203.2;print,vls=0,hls=0}                                 !compute and diagonalize SO matrix
 Commands initialized (846), CPU time= 0.02 sec, 717 directives.
 Default parameters read. Elapsed time= 0.12 sec

 Checking input...
 Passed
1


                                         ***  PROGRAM SYSTEM MOLPRO  ***
                                       Copyright, TTI GmbH Stuttgart, 2015
                                    Version 2023.2 linked Fri Sep 22 03:27:09 2023


 **********************************************************************************************************************************
 LABEL *   Pb SO-CI                                                                                                                                                      
  (32 PROC) 64 bit mpp version                                                           DATE: 25-Nov-24          TIME: 18:00:25  
 **********************************************************************************************************************************

 SHA1:             3c61bfe44d37c8635c785372c339f5cbdd4e4b59
 **********************************************************************************************************************************

 Memory per process:      1500 MW
 Total memory per node:  12000 MW

 GA preallocation disabled
 GA check disabled

 Variable memory set to 1500.0 MW


 ZSYMEL=XYZ

 SETTING BASIS          =    AUG-CC-PWCV5Z-PP


 Recomputing integrals since basis changed


 Using spherical harmonics

 Library entry Pb   ECP ECP60MDF                 selected for group  1
 Library entry PB     S aug-cc-pwCV5Z-PP     selected for orbital group  1
 Library entry PB     P aug-cc-pwCV5Z-PP     selected for orbital group  1
 Library entry PB     D aug-cc-pwCV5Z-PP     selected for orbital group  1
 Library entry PB     F aug-cc-pwCV5Z-PP     selected for orbital group  1
 Library entry PB     G aug-cc-pwCV5Z-PP     selected for orbital group  1
 Library entry PB     H aug-cc-pwCV5Z-PP     selected for orbital group  1
 Library entry PB     I aug-cc-pwCV5Z-PP     selected for orbital group  1


 PROGRAM * SEWARD (Integral evaluation for generally contracted gaussian basis sets)     Author: Roland Lindh, 1990

 Geometry written to block  1 of record 700

 Orientation using atomic masses  
 Molecule type: Atom
 User-specified symmetry elements: XYZ
 Symmetry elements: XYZ
 Rotational constants:       0.0000000      0.0000000      0.0000000 GHz  (calculated with average atomic masses)

 Point group  Ci  



 ATOMIC COORDINATES

 NR  ATOM    CHARGE       X              Y              Z

   1  PB     22.00    0.000000000    0.000000000    0.000000000

 NUCLEAR CHARGE:                   22
 NUMBER OF PRIMITIVE AOS:         459
 NUMBER OF SYMMETRY AOS:          327
 NUMBER OF CONTRACTIONS:          265   (  129Ag  +  136Au  )
 NUMBER OF INNER CORE ORBITALS:     0   (    0Ag  +    0Au  )
 NUMBER OF OUTER CORE ORBITALS:     9   (    6Ag  +    3Au  )
 NUMBER OF VALENCE ORBITALS:        4   (    1Ag  +    3Au  )


 LX: Ag           LY: Ag           LZ: Ag 


 NUCLEAR REPULSION ENERGY    0.00000000

 EXTRA SYMMETRY OF AOS IN SYMMETRY 1:   1 1 1 1 1 1 1 1 1 1   1 1 2 3 4 5 6 2 3 4   5 6 2 3 4 5 6 2 3 4   5 6 2 3 4 5 6 2 3 4
                                        5 6 2 3 4 5 6 2 3 4   5 6 2 3 4 5 6 2 3 4   5 6 7 8 91011121314  15 7 8 9101112131415
                                        7 8 9101112131415 7   8 9101112131415 7 8   9101112131415 7 8 9  10111213141516171819
                                       202122232425262728
 EXTRA SYMMETRY OF AOS IN SYMMETRY 2:   1 2 3 1 2 3 1 2 3 1   2 3 1 2 3 1 2 3 1 2   3 1 2 3 1 2 3 1 2 3   1 2 3 1 2 3 4 5 6 7
                                        8 910 4 5 6 7 8 910   4 5 6 7 8 910 4 5 6   7 8 910 4 5 6 7 8 9  10 4 5 6 7 8 910 4 5
                                        6 7 8 910 4 5 6 7 8   9101112131415161718  19202111121314151617  18192021111213141516
                                       17181920211112131415  161718192021


 Eigenvalues of metric

         1 0.182E-04 0.215E-04 0.215E-04 0.215E-04 0.215E-04 0.215E-04 0.416E-04 0.287E-03
         2 0.228E-05 0.228E-05 0.228E-05 0.344E-03 0.344E-03 0.344E-03 0.263E-02 0.263E-02


 Contracted 2-electron integrals neglected if value below      1.0D-12
 AO integral compression algorithm  1   Integral accuracy      1.0D-12

     561.250 MB (compressed) written to integral file ( 13.7%)

     Node minimum: 57.147 MB, node maximum: 83.100 MB


 NUMBER OF SORTED TWO-ELECTRON INTEGRALS:   39102068.     BUFFER LENGTH:  32768
 NUMBER OF SEGMENTS:   3  SEGMENT LENGTH:   15998580      RECORD LENGTH: 524288

 Memory used in sort:      16.56 MW

 SORT1 READ   511790813. AND WROTE     6708865. INTEGRALS IN     21 RECORDS. CPU TIME:     2.68 SEC, REAL TIME:     2.85 SEC
 SORT2 READ    53582235. AND WROTE   312900871. INTEGRALS IN   1928 RECORDS. CPU TIME:     1.00 SEC, REAL TIME:     1.09 SEC

 Node minimum:    39095432.  Node maximum:    39129437. integrals

 OPERATOR DM      FOR CENTER  0  COORDINATES:    0.000000    0.000000    0.000000


 **********************************************************************************************************************************
 DATASETS  * FILE   NREC   LENGTH (MB)   RECORD NAMES
              1      19       30.46       500      610      700      900      950      970     1000      129      960     1100   
                                          VAR    BASINP    GEOM    SYMINP    ZMAT    AOBASIS   BASIS     P2S    ABASIS      S 
                                         1400     1410     1420     1200     1210     1080     1700     1600     1650   
                                           T        V       ECP      H0       H01     AOSYM    OPER      SMH    MOLCAS    

 PROGRAMS   *        TOTAL       INT
 CPU TIMES  *        15.23     15.01
 REAL TIME  *        17.09 SEC
 DISK USED  *        30.87 MB (local),        1.33 GB (total)
 GA USED    *         0.00 MB       (max)       0.00 MB       (current)
 **********************************************************************************************************************************


 Program * Restricted Hartree-Fock

 Orbital guess generated from atomic densities. Full valence occupancy:    7   6

 Initial alpha occupancy:   6   7
 Initial beta  occupancy:   4   6

 NELEC=   23   SYM=2   MS2= 3   THRE=1.0D-08   THRD=3.2D-06   THRG=3.2D-06  HFMA2=F  DIIS_START=2   DIIS_MAX=10   DIIS_INCORE=F

 Level shifts:    0.00 (CLOSED)    0.00 (OPEN)    0.30 (GAP_MIN)

 ITER           ETOT              DE          GRAD        DDIFF     DIIS  NEXP   TIME(IT)  TIME(TOT)  DIAG
   1     -140.99982926    -140.99982926     0.00D+00     0.17D+00     0     0       0.23      0.41    start
   2     -179.13713445     -38.13730519     0.12D+00     0.20D+00     1     0       0.23      0.64    diag2
   3     -187.65806050      -8.52092605     0.12D+00     0.69D-01     2     0       0.24      0.88    diag2
   4     -191.43572375      -3.77766324     0.56D-01     0.52D-01     3     0       0.24      1.12    diag2
   5     -191.76229995      -0.32657621     0.11D-01     0.20D-01     4     0       0.23      1.35    diag2
   6     -191.85258727      -0.09028732     0.35D-02     0.59D-02     5     0       0.24      1.59    diag2
   7     -191.86165640      -0.00906913     0.11D-02     0.19D-02     6     0       0.24      1.83    diag2
   8     -191.86377789      -0.00212149     0.51D-03     0.75D-03     7     0       0.24      2.07    fixocc
   9     -191.86430765      -0.00052976     0.17D-03     0.68D-03     8     0       0.24      2.31    diag2
  10     -191.86437457      -0.00006692     0.11D-03     0.20D-03     9     0       0.24      2.55    diag2/orth
  11     -191.86439092      -0.00001635     0.22D-04     0.95D-04     9     0       0.24      2.79    diag2
  12     -191.86439560      -0.00000468     0.11D-04     0.40D-04     9     0       0.24      3.03    diag2
  13     -191.86439698      -0.00000138     0.46D-05     0.33D-04     9     0       0.24      3.27    diag2
  14     -191.86439720      -0.00000022     0.18D-05     0.15D-04     9     0       0.24      3.51    diag2
  15     -191.86439723      -0.00000003     0.71D-06     0.54D-05     9     0       0.24      3.75    diag2
  16     -191.86439724      -0.00000001     0.30D-06     0.32D-05     9     0       0.24      3.99    diag2
  17     -191.86439724      -0.00000000     0.10D-06     0.35D-06     0     0       0.24      4.23    diag

 Final alpha occupancy:   7   6
 Final beta  occupancy:   7   3

 !RHF STATE 1.2 Energy               -191.864397240744
  RHF One-electron energy            -340.681777118059
  RHF Two-electron energy             148.817379877315
  RHF Kinetic energy                   62.712671773439
  RHF Nuclear energy                    0.000000000000
  RHF Virial quotient                  -3.059419919692

 !RHF STATE 1.2 Dipole moment           0.00000000     0.00000000     0.00000000
 Dipole moment /Debye                   0.00000000     0.00000000     0.00000000

 ELECTRON ORBITALS
 =================

  Orbital  Occupation    Energy    Cen Mu Typ  Coefficients
    1.1     2.00000    -5.94945     1  1  s    1.00000
    2.1     2.00000    -0.84962     1  1  d0  -0.50939    1  1  d2+  0.85985
    3.1     2.00000    -0.84962     1  1  d1+  0.99942
    4.1     2.00000    -0.84962     1  1  d2-  0.99940
    5.1     2.00000    -0.84962     1  1  d0   0.85986    1  1  d2+  0.50939
    6.1     2.00000    -0.84962     1  1  d1-  0.99942
    7.1     2.00000    -0.35280     1  1  s   -0.38141    1  5  s    0.52245    1  6  s    0.42682    1 11  s   -0.25488
    1.2     2.00000    -3.63192     1  1  px   1.00025
    2.2     2.00000    -3.63191     1  1  pz   1.00025
    3.2     2.00000    -3.63191     1  1  py   1.00025
    4.2     1.00000    -0.05163     1  5  py   0.35611    1  6  py   0.37651    1  7  py   0.25410
    5.2     1.00000    -0.05163     1  5  pz   0.35611    1  6  pz   0.37651    1  7  pz   0.25410
    6.2     1.00000    -0.05163     1  5  px   0.35611    1  6  px   0.37649    1  7  px   0.25414


 HOMO      6.2    -0.051631 =      -1.4050eV
 LUMO      7.2     0.120361 =       3.2752eV
 LUMO-HOMO         0.171992 =       4.6801eV

 Orbitals saved in record  2100.2


 **********************************************************************************************************************************
 DATASETS  * FILE   NREC   LENGTH (MB)   RECORD NAMES
              1      19       30.46       500      610      700      900      950      970     1000      129      960     1100   
                                          VAR    BASINP    GEOM    SYMINP    ZMAT    AOBASIS   BASIS     P2S    ABASIS      S 
                                         1400     1410     1420     1200     1210     1080     1700     1600     1650   
                                           T        V       ECP      H0       H01     AOSYM    OPER      SMH    MOLCAS    

              2       4        1.51       700     1000      520     2100   
                                         GEOM     BASIS   MCVARS     RHF  

 PROGRAMS   *        TOTAL   RHF-SCF       INT
 CPU TIMES  *        19.53      4.30     15.01
 REAL TIME  *        22.22 SEC
 DISK USED  *        36.95 MB (local),        1.38 GB (total)
 GA USED    *         0.00 MB       (max)       0.00 MB       (current)
 **********************************************************************************************************************************
 SETTING NTRIP          =        11.00000000                                  
 SETTING NSING          =         6.00000000                                  

 PROGRAM * MULTI (Direct Multiconfiguration SCF)       Authors: P.J. Knowles, H.-J. Werner (1984)
                                                                D.A. Kreplin, P.J. Knowles, H.-J. Werner (2019)

 Number of closed-shell orbitals:   9 (    6    3)
 Number of active  orbitals:        7 (    1    6)
 Number of external orbitals:     249 (  122  127)

 State symmetry 1

 Number of active electrons:   4    Spin symmetry=Triplet   Space symmetry=1
 Number of states:            11
 Number of CSFs:             120   (135 determinants, 245 intermediate states)

 State symmetry 2

 Number of active electrons:   4    Spin symmetry=Singlet   Space symmetry=1
 Number of states:             6
 Number of CSFs:             126   (261 determinants, 441 intermediate states)

 Molecular orbitals read from record     2100.2  Type=RHF/CANONICAL  
 *** IN SYMMETRY 1 ORBITAL  2 SYMMETRY CONTAMINATION OF 0.375D+00 HAS BEEN REMOVED
 *** IN SYMMETRY 1 ORBITAL  3 SYMMETRY CONTAMINATION OF 0.238D-02 HAS BEEN REMOVED
 *** IN SYMMETRY 1 ORBITAL  4 SYMMETRY CONTAMINATION OF 0.774D-02 HAS BEEN REMOVED
 *** IN SYMMETRY 1 ORBITAL  5 SYMMETRY CONTAMINATION OF 0.373D+00 HAS BEEN REMOVED
 *** IN SYMMETRY 1 ORBITAL  6 SYMMETRY CONTAMINATION OF 0.212D-02 HAS BEEN REMOVED

 EXTRA SYMMETRY OF MOS IN SYMMETRY 1:   1 5 4 3 2 6 1 1 5 4   3 2 6 1 5 4 3 2 6 7  11 8141015 91312 1 2   6 4 3 510 91315 714
                                        81211 2 6 4 3 5 110   91315 7 8141211 5 4   3 2 6 110 91315 7 8  14121116282220211824
                                       261917232527 5 4 3 6   210 91315 714 81211   1 5 4 3 6 210 91315   714 81211 1 5 4 3 6
                                        2 1 5 4 3 6 2 1 1
 *** IN SYMMETRY 2 ORBITAL  1 SYMMETRY CONTAMINATION OF 0.134D-02 HAS BEEN REMOVED
 *** IN SYMMETRY 2 ORBITAL  2 SYMMETRY CONTAMINATION OF 0.654D-03 HAS BEEN REMOVED
 *** IN SYMMETRY 2 ORBITAL  3 SYMMETRY CONTAMINATION OF 0.123D-02 HAS BEEN REMOVED
 *** IN SYMMETRY 2 ORBITAL  4 SYMMETRY CONTAMINATION OF 0.160D-02 HAS BEEN REMOVED
 *** IN SYMMETRY 2 ORBITAL  5 SYMMETRY CONTAMINATION OF 0.760D-03 HAS BEEN REMOVED
 *** IN SYMMETRY 2 ORBITAL  6 SYMMETRY CONTAMINATION OF 0.161D-02 HAS BEEN REMOVED
 *** IN SYMMETRY 2 ORBITAL  7 SYMMETRY CONTAMINATION OF 0.154D-02 HAS BEEN REMOVED
 *** IN SYMMETRY 2 ORBITAL  8 SYMMETRY CONTAMINATION OF 0.667D-03 HAS BEEN REMOVED
 *** IN SYMMETRY 2 ORBITAL  9 SYMMETRY CONTAMINATION OF 0.163D-02 HAS BEEN REMOVED
 EXTRA SYMMETRY OF MOS IN SYMMETRY 2:   1 3 2 2 3 1 2 3 1 2   3 1 710 9 4 8 5 6 3   2 1 6 5 4 810 9 7 7  10 9 8 4 6 5 3 2 120
                                       13181511171614211912   710 9 8 4 6 5 1 3 2  20131815111617142119  12 710 9 8 4 6 52013
                                       181511171621141912 7  10 9 8 4 6 5 1 3 2 7  10 9 8 4 6 520131815  11171621141912 1 3 2
                                        710 9 8 4 6 5 1 3 2   1 2 3 1 2 3

 Wavefunction dump at record             2140.2

 Convergence thresholds  0.10E-04 (gradient)  0.10E-05 (energy)

 Weight factors for state symmetry  1:    0.05882   0.05882   0.05882   0.05882   0.05882   0.05882   0.05882   0.05882
                                          0.05882   0.05882   0.05882
 Weight factors for state symmetry  2:    0.05882   0.05882   0.05882   0.05882   0.05882   0.05882
 
 Number of orbital rotations:  2021  ( 24 closed/active, 1113 closed/virtual, 0 active/active, 884 active/virtual )
 Total number of variables:    5072
 
 Second-order MCSCF: L-BFGS accelerated
 
 ITER  MIC  NCI  NEG     ENERGY(VAR)    ENERGY(PROJ) ENERGY CHANGE       GRAD(0)  GRAD(ORB)   GRAD(CI)      STEP      TIME
   1   14   20    0   -191.71052344    -191.74197138   -0.03144794    0.14996046 0.00144601 0.00000000  0.87E+00      3.32
   2    6   10    0   -191.74140875    -191.74314287   -0.00173412    0.10150597 0.00006193 0.00000000  0.12E+00      6.19
   3    5   10    0   -191.74314856    -191.74314862   -0.00000006    0.00056281 0.00000010 0.00000000  0.53E-03      8.82
   4    6   12    0   -191.74314862    -191.74314862    0.00000000    0.00000003 0.00000001 0.00000000  0.98E-07     11.33

 CONVERGENCE REACHED!  Final gradient:    0.00000001 ( 0.73E-08)
                       Final energy:   -191.74314862
 
 Results for state 1.1 Triplet
 =============================
 !MCSCF STATE 1.1 Triplet Energy              -191.836634845449
 Nuclear energy                                  0.00000000
 Kinetic energy                                 62.83626508
 One electron energy                          -336.24960786
 Two electron energy                           144.41297302
 Virial ratio                                    4.05296049
 
 !MCSCF STATE 1.1 Triplet Dipole moment          0.00000000     0.00000000     0.00000000
 Dipole moment /Debye                            0.00000000     0.00000000     0.00000000
 
 Results for state 2.1 Triplet
 =============================
 !MCSCF STATE 2.1 Triplet Energy              -191.836634844683
 Nuclear energy                                  0.00000000
 Kinetic energy                                 62.83626510
 One electron energy                          -336.24960792
 Two electron energy                           144.41297308
 Virial ratio                                    4.05296049
 
 !MCSCF STATE 2.1 Triplet Dipole moment          0.00000000     0.00000000     0.00000000
 Dipole moment /Debye                            0.00000000     0.00000000     0.00000000
 
 Results for state 3.1 Triplet
 =============================
 !MCSCF STATE 3.1 Triplet Energy              -191.836634844642
 Nuclear energy                                  0.00000000
 Kinetic energy                                 62.83626510
 One electron energy                          -336.24960792
 Two electron energy                           144.41297308
 Virial ratio                                    4.05296049
 
 !MCSCF STATE 3.1 Triplet Dipole moment          0.00000000     0.00000000     0.00000000
 Dipole moment /Debye                            0.00000000     0.00000000     0.00000000
 
 Results for state 4.1 Triplet
 =============================
 !MCSCF STATE 4.1 Triplet Energy              -191.669505952889
 Nuclear energy                                  0.00000000
 Kinetic energy                                 62.37728536
 One electron energy                          -331.74664648
 Two electron energy                           140.07714053
 Virial ratio                                    4.07274523
 
 !MCSCF STATE 4.1 Triplet Dipole moment          0.00000000     0.00000000     0.00000000
 Dipole moment /Debye                            0.00000000     0.00000000     0.00000000
 
 Results for state 5.1 Triplet
 =============================
 !MCSCF STATE 5.1 Triplet Energy              -191.669505952802
 Nuclear energy                                  0.00000000
 Kinetic energy                                 62.37728535
 One electron energy                          -331.74664647
 Two electron energy                           140.07714051
 Virial ratio                                    4.07274523
 
 !MCSCF STATE 5.1 Triplet Dipole moment          0.00000000     0.00000000     0.00000000
 Dipole moment /Debye                            0.00000000     0.00000000     0.00000000
 
 Results for state 6.1 Triplet
 =============================
 !MCSCF STATE 6.1 Triplet Energy              -191.669505952770
 Nuclear energy                                  0.00000000
 Kinetic energy                                 62.37728535
 One electron energy                          -331.74664647
 Two electron energy                           140.07714051
 Virial ratio                                    4.07274523
 
 !MCSCF STATE 6.1 Triplet Dipole moment          0.00000000     0.00000000     0.00000000
 Dipole moment /Debye                            0.00000000     0.00000000     0.00000000
 
 Results for state 7.1 Triplet
 =============================
 !MCSCF STATE 7.1 Triplet Energy              -191.669505952481
 Nuclear energy                                  0.00000000
 Kinetic energy                                 62.37728534
 One electron energy                          -331.74664643
 Two electron energy                           140.07714048
 Virial ratio                                    4.07274523
 
 !MCSCF STATE 7.1 Triplet Dipole moment          0.00000000     0.00000000     0.00000000
 Dipole moment /Debye                            0.00000000     0.00000000     0.00000000
 
 Results for state 8.1 Triplet
 =============================
 !MCSCF STATE 8.1 Triplet Energy              -191.669505952481
 Nuclear energy                                  0.00000000
 Kinetic energy                                 62.37728534
 One electron energy                          -331.74664643
 Two electron energy                           140.07714048
 Virial ratio                                    4.07274523
 
 !MCSCF STATE 8.1 Triplet Dipole moment          0.00000000     0.00000000     0.00000000
 Dipole moment /Debye                            0.00000000     0.00000000     0.00000000
 
 Results for state 9.1 Triplet
 =============================
 !MCSCF STATE 9.1 Triplet Energy              -191.664785592782
 Nuclear energy                                  0.00000000
 Kinetic energy                                 62.45564198
 One electron energy                          -332.13107515
 Two electron energy                           140.46628956
 Virial ratio                                    4.06881459
 
 !MCSCF STATE 9.1 Triplet Dipole moment          0.00000000     0.00000000     0.00000000
 Dipole moment /Debye                            0.00000000     0.00000000     0.00000000
 
 Results for state 10.1 Triplet
 ==============================
 !MCSCF STATE 10.1 Triplet Energy             -191.664785592725
 Nuclear energy                                  0.00000000
 Kinetic energy                                 62.45564198
 One electron energy                          -332.13107516
 Two electron energy                           140.46628956
 Virial ratio                                    4.06881459
 
 !MCSCF STATE 10.1 Triplet Dipole moment         0.00000000     0.00000000     0.00000000
 Dipole moment /Debye                            0.00000000     0.00000000     0.00000000
 
 Results for state 11.1 Triplet
 ==============================
 !MCSCF STATE 11.1 Triplet Energy             -191.664785592722
 Nuclear energy                                  0.00000000
 Kinetic energy                                 62.45564197
 One electron energy                          -332.13107510
 Two electron energy                           140.46628951
 Virial ratio                                    4.06881459
 
 !MCSCF STATE 11.1 Triplet Dipole moment         0.00000000     0.00000000     0.00000000
 Dipole moment /Debye                            0.00000000     0.00000000     0.00000000
 
 Results for state 1.1 Singlet
 =============================
 !MCSCF STATE 1.1 Singlet Energy              -191.802618580282
 Nuclear energy                                  0.00000000
 Kinetic energy                                 62.79415923
 One electron energy                          -336.01304048
 Two electron energy                           144.21042190
 Virial ratio                                    4.05446591
 
 !MCSCF STATE 1.1 Singlet Dipole moment          0.00000000     0.00000000     0.00000000
 Dipole moment /Debye                            0.00000000     0.00000000     0.00000000
 
 Results for state 2.1 Singlet
 =============================
 !MCSCF STATE 2.1 Singlet Energy              -191.802618580280
 Nuclear energy                                  0.00000000
 Kinetic energy                                 62.79415923
 One electron energy                          -336.01304048
 Two electron energy                           144.21042190
 Virial ratio                                    4.05446591
 
 !MCSCF STATE 2.1 Singlet Dipole moment          0.00000000     0.00000000     0.00000000
 Dipole moment /Debye                            0.00000000     0.00000000     0.00000000
 
 Results for state 3.1 Singlet
 =============================
 !MCSCF STATE 3.1 Singlet Energy              -191.802618579423
 Nuclear energy                                  0.00000000
 Kinetic energy                                 62.79415925
 One electron energy                          -336.01304053
 Two electron energy                           144.21042195
 Virial ratio                                    4.05446591
 
 !MCSCF STATE 3.1 Singlet Dipole moment          0.00000000     0.00000000     0.00000000
 Dipole moment /Debye                            0.00000000     0.00000000     0.00000000
 
 Results for state 4.1 Singlet
 =============================
 !MCSCF STATE 4.1 Singlet Energy              -191.802618579369
 Nuclear energy                                  0.00000000
 Kinetic energy                                 62.79415925
 One electron energy                          -336.01304053
 Two electron energy                           144.21042195
 Virial ratio                                    4.05446591
 
 !MCSCF STATE 4.1 Singlet Dipole moment          0.00000000     0.00000000     0.00000000
 Dipole moment /Debye                            0.00000000     0.00000000     0.00000000
 
 Results for state 5.1 Singlet
 =============================
 !MCSCF STATE 5.1 Singlet Energy              -191.802618579102
 Nuclear energy                                  0.00000000
 Kinetic energy                                 62.79415925
 One electron energy                          -336.01304054
 Two electron energy                           144.21042196
 Virial ratio                                    4.05446591
 
 !MCSCF STATE 5.1 Singlet Dipole moment          0.00000000     0.00000000     0.00000000
 Dipole moment /Debye                            0.00000000     0.00000000     0.00000000
 
 Results for state 6.1 Singlet
 =============================
 !MCSCF STATE 6.1 Singlet Energy              -191.768642559858
 Nuclear energy                                  0.00000000
 Kinetic energy                                 62.73042723
 One electron energy                          -335.61453475
 Two electron energy                           143.84589219
 Virial ratio                                    4.05702752
 
 !MCSCF STATE 6.1 Singlet Dipole moment          0.00000000     0.00000000     0.00000000
 Dipole moment /Debye                            0.00000000     0.00000000     0.00000000
 
 State-averaged charge density matrix saved on record 2140.2 (density set 1)
 
 No non-zero expectation values
 
 Expectation values for two-electron operators:
 
 ? Warning
 ? Transition properties are only calculated between states of the same symmetry
 ? The problem occurs in mu_properties_expec2

 !MCSCF expec      <1.1 Triplet|LXLX|1.1 Triplet>    -0.000000000000
 !MCSCF expec      <2.1 Triplet|LXLX|2.1 Triplet>     1.000000000000
 !MCSCF expec      <3.1 Triplet|LXLX|3.1 Triplet>     1.000000000000
 !MCSCF expec      <4.1 Triplet|LXLX|4.1 Triplet>     0.008008836016
 !MCSCF expec      <5.1 Triplet|LXLX|5.1 Triplet>     0.999999999422
 !MCSCF expec      <6.1 Triplet|LXLX|6.1 Triplet>     1.000000000019
 !MCSCF expec      <7.1 Triplet|LXLX|7.1 Triplet>     4.000000000000
 !MCSCF expec      <8.1 Triplet|LXLX|8.1 Triplet>     3.991991540048
 !MCSCF expec      <9.1 Triplet|LXLX|9.1 Triplet>     1.000000000000
 !MCSCF expec    <10.1 Triplet|LXLX|10.1 Triplet>     0.999999999999
 !MCSCF expec    <11.1 Triplet|LXLX|11.1 Triplet>    -0.000000000000
 !MCSCF expec      <1.1 Singlet|LXLX|1.1 Singlet>     3.997208809304
 !MCSCF expec      <2.1 Singlet|LXLX|2.1 Singlet>     4.000000000000
 !MCSCF expec      <3.1 Singlet|LXLX|3.1 Singlet>     0.999999999942
 !MCSCF expec      <4.1 Singlet|LXLX|4.1 Singlet>     1.000000000001
 !MCSCF expec      <5.1 Singlet|LXLX|5.1 Singlet>     0.002791153718
 !MCSCF expec      <6.1 Singlet|LXLX|6.1 Singlet>    -0.000000000000
 
 !MCSCF expec      <1.1 Triplet|LYLY|1.1 Triplet>     1.000000000000
 !MCSCF expec      <2.1 Triplet|LYLY|2.1 Triplet>     0.999999998688
 !MCSCF expec      <3.1 Triplet|LYLY|3.1 Triplet>     0.000000001339
 !MCSCF expec      <4.1 Triplet|LYLY|4.1 Triplet>     3.150845186880
 !MCSCF expec      <5.1 Triplet|LYLY|5.1 Triplet>     3.999999993586
 !MCSCF expec      <6.1 Triplet|LYLY|6.1 Triplet>     1.000000005407
 !MCSCF expec      <7.1 Triplet|LYLY|7.1 Triplet>     1.000000000000
 !MCSCF expec      <8.1 Triplet|LYLY|8.1 Triplet>     0.849158307535
 !MCSCF expec      <9.1 Triplet|LYLY|9.1 Triplet>     0.000000000366
 !MCSCF expec    <10.1 Triplet|LYLY|10.1 Triplet>     0.999999999872
 !MCSCF expec    <11.1 Triplet|LYLY|11.1 Triplet>     1.000000000000
 !MCSCF expec      <1.1 Singlet|LYLY|1.1 Singlet>     0.909920303781
 !MCSCF expec      <2.1 Singlet|LYLY|2.1 Singlet>     1.000000000000
 !MCSCF expec      <3.1 Singlet|LYLY|3.1 Singlet>     1.000000009640
 !MCSCF expec      <4.1 Singlet|LYLY|4.1 Singlet>     3.999999992363
 !MCSCF expec      <5.1 Singlet|LYLY|5.1 Singlet>     3.090079108409
 !MCSCF expec      <6.1 Singlet|LYLY|6.1 Singlet>    -0.000000000000
 
 !MCSCF expec      <1.1 Triplet|LZLZ|1.1 Triplet>     1.000000000000
 !MCSCF expec      <2.1 Triplet|LZLZ|2.1 Triplet>     0.000000001312
 !MCSCF expec      <3.1 Triplet|LZLZ|3.1 Triplet>     0.999999998661
 !MCSCF expec      <4.1 Triplet|LZLZ|4.1 Triplet>     2.841145977104
 !MCSCF expec      <5.1 Triplet|LZLZ|5.1 Triplet>     1.000000006991
 !MCSCF expec      <6.1 Triplet|LZLZ|6.1 Triplet>     3.999999994575
 !MCSCF expec      <7.1 Triplet|LZLZ|7.1 Triplet>     1.000000000000
 !MCSCF expec      <8.1 Triplet|LZLZ|8.1 Triplet>     1.158850152417
 !MCSCF expec      <9.1 Triplet|LZLZ|9.1 Triplet>     0.999999999634
 !MCSCF expec    <10.1 Triplet|LZLZ|10.1 Triplet>     0.000000000129
 !MCSCF expec    <11.1 Triplet|LZLZ|11.1 Triplet>     1.000000000000
 !MCSCF expec      <1.1 Singlet|LZLZ|1.1 Singlet>     1.092870886915
 !MCSCF expec      <2.1 Singlet|LZLZ|2.1 Singlet>     1.000000000000
 !MCSCF expec      <3.1 Singlet|LZLZ|3.1 Singlet>     3.999999990419
 !MCSCF expec      <4.1 Singlet|LZLZ|4.1 Singlet>     1.000000007636
 !MCSCF expec      <5.1 Singlet|LZLZ|5.1 Singlet>     2.907129737873
 !MCSCF expec      <6.1 Singlet|LZLZ|6.1 Singlet>    -0.000000000000
 
 !MCSCF expec      <1.1 Triplet|L**2|1.1 Triplet>     2.000000000000
 !MCSCF expec      <2.1 Triplet|L**2|2.1 Triplet>     2.000000000000
 !MCSCF expec      <3.1 Triplet|L**2|3.1 Triplet>     2.000000000000
 !MCSCF expec      <4.1 Triplet|L**2|4.1 Triplet>     6.000000000000
 !MCSCF expec      <5.1 Triplet|L**2|5.1 Triplet>     6.000000000000
 !MCSCF expec      <6.1 Triplet|L**2|6.1 Triplet>     6.000000000000
 !MCSCF expec      <7.1 Triplet|L**2|7.1 Triplet>     6.000000000000
 !MCSCF expec      <8.1 Triplet|L**2|8.1 Triplet>     6.000000000000
 !MCSCF expec      <9.1 Triplet|L**2|9.1 Triplet>     2.000000000000
 !MCSCF expec    <10.1 Triplet|L**2|10.1 Triplet>     2.000000000000
 !MCSCF expec    <11.1 Triplet|L**2|11.1 Triplet>     2.000000000000
 !MCSCF expec      <1.1 Singlet|L**2|1.1 Singlet>     6.000000000000
 !MCSCF expec      <2.1 Singlet|L**2|2.1 Singlet>     6.000000000000
 !MCSCF expec      <3.1 Singlet|L**2|3.1 Singlet>     6.000000000000
 !MCSCF expec      <4.1 Singlet|L**2|4.1 Singlet>     6.000000000000
 !MCSCF expec      <5.1 Singlet|L**2|5.1 Singlet>     6.000000000000
 !MCSCF expec      <6.1 Singlet|L**2|6.1 Singlet>    -0.000000000000
 
 EXTRA SYMMETRY OF MOS IN SYMMETRY 1:   1 3 5 6 2 4 1 1 3 5   6 4 2 1 5 3 6 2 413  101514 81211 7 9 1 5   3 6 4 21310141511 8
                                       12 7 9 5 3 6 4 2 113  10151411 812 7 9 3 5   6 2 4 11310151411 8  12 7 922162018241927
                                       232617212528 3 5 6 2   4101315141112 8 7 9   1 2 3 5 6 410131415  1112 8 7 9 1 2 3 5 6
                                        4 1 2 3 5 6 4 1 1
 EXTRA SYMMETRY OF MOS IN SYMMETRY 2:   2 1 3 3 1 2 3 1 2 1   2 3 9 7 810 5 6 4 1   2 3 9 7 810 5 6 4 9   7 810 5 6 4 2 1 318
                                       20151716141221131911   9 7 810 5 6 4 2 1 3  18201517161412211319  11 9 7 810 5 6 42018
                                       151716141221131911 9   7 810 5 6 4 2 1 3 7   910 8 5 6 418201517  16141221131911 2 1 3
                                        9 7 510 8 6 4 2 1 3   1 2 3 1 2 3
 
  NATURAL ORBITALS (STATE AVERAGED)
  =================================

  Orbital  Occupation    Energy    Cen Mu Typ  Coefficients
    1.1     2.00000    -6.25368     1  1  s    0.99858
    2.1     2.00000    -1.15412     1  1  d2-  1.00117
    3.1     2.00000    -1.15412     1  1  d2+  1.00117
    4.1     2.00000    -1.15412     1  1  d1-  1.00117
    5.1     2.00000    -1.15412     1  1  d0   1.00117
    6.1     2.00000    -1.15412     1  1  d1+  1.00117
    7.1     1.97378    -0.62588     1  1  s   -0.40256    1  5  s    0.61353    1  6  s    0.43889    1 11  s   -0.26856
    1.2     2.00000    -3.93637     1  1  py   0.99976
    2.2     2.00000    -3.93637     1  1  px   0.99976
    3.2     2.00000    -3.93637     1  1  pz   0.99976
    4.2     0.51591    -0.09969     1  1  pz  -0.25838    1  5  pz   0.46789    1  6  pz   0.39075
    5.2     0.51591    -0.09969     1  1  px  -0.25838    1  5  px   0.46789    1  6  px   0.39075
    6.2     0.51591    -0.09969     1  1  py  -0.25838    1  5  py   0.46789    1  6  py   0.39075
    7.2     0.15950     0.03354     1  5  pz  -0.25870    1 12  pz   0.99151
    8.2     0.15950     0.03354     1  5  px  -0.25870    1 12  px   0.99151
    9.2     0.15950     0.03354     1  5  py  -0.25870    1 12  py   0.99151
 
 Natural orbital dump (state averaged) at molpro section 2140.2 (Orbital set 2)
 
 Transform the CI vectors
 
 CI Coefficients of symmetry 1 (Triplet)
 =======================================

 State:              1               2               3               4               5               6               7
 2 a0a000       0.99510964      0.00000000     -0.00000000      0.00000000      0.00000000     -0.00000000      0.00000000
 2 0aa000      -0.00000000      0.99510964     -0.00003605     -0.00000000     -0.00000000     -0.00000000      0.00000000
 2 aa0000       0.00000000      0.00003605      0.99510964     -0.00000000      0.00000000     -0.00000000      0.00000000
 2 0a00a0      -0.00000000      0.00000000     -0.00000000      0.80963074      0.00002093     -0.00000476     -0.00000009
 2 00a00a      -0.00000000      0.00000000     -0.00000000     -0.37340970     -0.00000994      0.00000045      0.00000004
 2 0a0a00      -0.00000000     -0.00000009     -0.00256710     -0.00001813      0.70186379     -0.00003110      0.00000004
 2 0a000a      -0.00000000      0.00256710     -0.00000009      0.00000420      0.00003110      0.70186379      0.00000003
 2 00aa00      -0.00256710     -0.00000000     -0.00000000      0.00000008     -0.00000004     -0.00000003      0.70186376
 2 a0000a       0.00256709     -0.00000000     -0.00000000      0.00000008     -0.00000004     -0.00000003      0.70186375
 2 00a0a0      -0.00000000     -0.00256709      0.00000009      0.00000420      0.00003110      0.70186372      0.00000003
 2 a000a0       0.00000000      0.00000009      0.00256709     -0.00001813      0.70186372     -0.00003110      0.00000004
 2 a00a00      -0.00000000      0.00000000     -0.00000000     -0.43622096     -0.00001099      0.00000431      0.00000005
 2 0000aa      -0.00000000     -0.01577168      0.00000057     -0.00000000     -0.00000000     -0.00000001     -0.00000000
 2 000aa0      -0.00000000     -0.00000057     -0.01577168     -0.00000000      0.00000001     -0.00000000     -0.00000000
 2 000a0a      -0.01577168     -0.00000000     -0.00000000     -0.00000000      0.00000000     -0.00000000      0.00000000
 0 a2a000      -0.08854250     -0.00000000     -0.00000000     -0.00000000      0.00000000     -0.00000000     -0.00000000
 0 2aa000      -0.00000000     -0.08854249      0.00000321      0.00000000      0.00000000      0.00000000      0.00000000
 0 aa2000      -0.00000000     -0.00000321     -0.08854249      0.00000000     -0.00000000      0.00000000      0.00000000
 0 0a20a0       0.00000000     -0.00000000      0.00000000     -0.06636300     -0.00000172      0.00000039      0.00000001
 0 2a00a0      -0.00000000     -0.00000000      0.00000000     -0.06632874     -0.00000171      0.00000039      0.00000001
 0 02a00a      -0.00000000      0.00000000     -0.00000000      0.03025960      0.00000081     -0.00000003     -0.00000000
 0 20a00a       0.00000000     -0.00000000      0.00000000      0.03093914      0.00000082     -0.00000004     -0.00000000
 0 0a2a00       0.00000000     -0.00000005     -0.00141192      0.00000149     -0.05770623      0.00000256     -0.00000000
 0 2a000a       0.00000000      0.00141192     -0.00000005     -0.00000035     -0.00000256     -0.05770623     -0.00000000
 0 02aa00      -0.00141192      0.00000000      0.00000000     -0.00000001      0.00000000      0.00000000     -0.05770623
 0 a2000a       0.00141192      0.00000000      0.00000000     -0.00000001      0.00000000      0.00000000     -0.05770623
 0 20a0a0       0.00000000     -0.00141192      0.00000005     -0.00000035     -0.00000256     -0.05770622     -0.00000000
 0 a020a0      -0.00000000      0.00000005      0.00141192      0.00000149     -0.05770622      0.00000256     -0.00000000
 0 2a0a00       0.00000000      0.00000069      0.01897801      0.00000148     -0.05732340      0.00000254     -0.00000000
 0 0a200a       0.00000000     -0.01897801      0.00000069     -0.00000034     -0.00000254     -0.05732340     -0.00000000
 0 20aa00       0.01897801     -0.00000000     -0.00000000     -0.00000001      0.00000000      0.00000000     -0.05732340
 0 a0200a      -0.01897801      0.00000000      0.00000000     -0.00000001      0.00000000      0.00000000     -0.05732340
 0 02a0a0       0.00000000      0.01897801     -0.00000069     -0.00000034     -0.00000254     -0.05732340     -0.00000000
 0 a200a0      -0.00000000     -0.00000069     -0.01897801      0.00000148     -0.05732340      0.00000254     -0.00000000
 0 a20a00      -0.00000000      0.00000000      0.00000000      0.03542385      0.00000089     -0.00000035     -0.00000000
 0 a02a00       0.00000000     -0.00000000     -0.00000000      0.03606913      0.00000091     -0.00000035     -0.00000000
 
 Energy:     -191.83663485   -191.83663484   -191.83663484   -191.66950595   -191.66950595   -191.66950595   -191.66950595

 State:              8               9              10              11
 2 a0a000      -0.00000000     -0.00000000      0.00000001     -0.00729950
 2 0aa000      -0.00000000     -0.00000014     -0.00729951     -0.00000001
 2 aa0000       0.00000000     -0.00729951      0.00000014      0.00000000
 2 0a00a0      -0.03626410      0.00000000      0.00000000      0.00000000
 2 00a00a       0.71929281     -0.00000000      0.00000000     -0.00000000
 2 0a0a00       0.00000029     -0.69616844      0.00001331      0.00000026
 2 0a000a       0.00000174      0.00001331      0.69616844      0.00000068
 2 00aa00       0.00000000     -0.00000026      0.00000068     -0.69616847
 2 a0000a       0.00000000      0.00000026     -0.00000068      0.69616848
 2 00a0a0       0.00000174     -0.00001331     -0.69616851     -0.00000068
 2 a000a0       0.00000029      0.69616851     -0.00001331     -0.00000026
 2 a00a00      -0.68302872     -0.00000000      0.00000000     -0.00000000
 2 0000aa      -0.00000000     -0.00000245     -0.12827679     -0.00000013
 2 000aa0      -0.00000000     -0.12827679      0.00000245      0.00000005
 2 000a0a      -0.00000000     -0.00000005      0.00000013     -0.12827679
 0 a2a000      -0.00000000      0.00000000     -0.00000000      0.00421809
 0 2aa000       0.00000000      0.00000008      0.00421809      0.00000000
 0 aa2000      -0.00000000      0.00421809     -0.00000008     -0.00000000
 0 0a20a0       0.00258925     -0.00000000     -0.00000000     -0.00000000
 0 2a00a0       0.00335413     -0.00000000     -0.00000000     -0.00000000
 0 02a00a      -0.05911944      0.00000000     -0.00000000      0.00000000
 0 20a00a      -0.05876667      0.00000000     -0.00000000      0.00000000
 0 0a2a00      -0.00000002      0.05765030     -0.00000110     -0.00000002
 0 2a000a      -0.00000014     -0.00000110     -0.05765030     -0.00000006
 0 02aa00      -0.00000000      0.00000002     -0.00000006      0.05765030
 0 a2000a      -0.00000000     -0.00000002      0.00000006     -0.05765030
 0 20a0a0      -0.00000014      0.00000110      0.05765030      0.00000006
 0 a020a0      -0.00000002     -0.05765030      0.00000110      0.00000002
 0 2a0a00      -0.00000002      0.05581745     -0.00000107     -0.00000002
 0 0a200a      -0.00000014     -0.00000107     -0.05581745     -0.00000005
 0 20aa00      -0.00000000      0.00000002     -0.00000005      0.05581745
 0 a0200a      -0.00000000     -0.00000002      0.00000005     -0.05581745
 0 02a0a0      -0.00000014      0.00000107      0.05581746      0.00000005
 0 a200a0      -0.00000002     -0.05581746      0.00000107      0.00000002
 0 a20a00       0.05617742      0.00000000     -0.00000000      0.00000000
 0 a02a00       0.05576530      0.00000000     -0.00000000      0.00000000
 
 Energy:     -191.66950595   -191.66478559   -191.66478559   -191.66478559
 
 
 CI Coefficients of symmetry 1 (Singlet)
 =======================================
 
 2 020000      -0.02140568      0.00000119     -0.00000636     -0.00000006      0.81005154      0.56215787
 2 002000       0.71222806     -0.00003954      0.00000210     -0.00000102     -0.38648793      0.56215784
 2 b0a000      -0.00003896     -0.70177011      0.00000000      0.00000000     -0.00000000      0.00000000
 2 a0b000       0.00003896      0.70177011     -0.00000000     -0.00000000      0.00000000     -0.00000000
 2 0ab000       0.00000093     -0.00000000      0.70177011      0.00003946      0.00000554     -0.00000000
 2 0ba000      -0.00000093      0.00000000     -0.70177011     -0.00003946     -0.00000554      0.00000000
 2 ab0000       0.00000105     -0.00000000     -0.00003946      0.70177011      0.00000008      0.00000000
 2 ba0000      -0.00000105      0.00000000      0.00003946     -0.70177011     -0.00000008     -0.00000000
 2 200000      -0.69082238      0.00003835      0.00000426      0.00000108     -0.42356365      0.56215784
 0 220000       0.06322145     -0.00000351      0.00000019     -0.00000009     -0.03430688     -0.09737471
 0 022000      -0.06132136      0.00000340      0.00000038      0.00000010     -0.03759794     -0.09737471
 0 202000      -0.00190009      0.00000011     -0.00000056     -0.00000001      0.07190483     -0.09737470
 0 b2a000       0.00000346      0.06229315      0.00000000     -0.00000000      0.00000000     -0.00000000
 0 a2b000      -0.00000346     -0.06229315     -0.00000000      0.00000000     -0.00000000      0.00000000
 0 2ab000      -0.00000008      0.00000000     -0.06229315     -0.00000350     -0.00000049      0.00000000
 0 2ba000       0.00000008     -0.00000000      0.06229315      0.00000350      0.00000049     -0.00000000
 0 ba2000       0.00000009     -0.00000000     -0.00000350      0.06229315      0.00000001     -0.00000000
 0 ab2000      -0.00000009      0.00000000      0.00000350     -0.06229315     -0.00000001      0.00000000
 2 0b00a0       0.00101919     -0.00000006      0.00000030      0.00000000     -0.03856916     -0.05880975
 2 0a00b0      -0.00101919      0.00000006     -0.00000030     -0.00000000      0.03856916      0.05880975
 2 a00b00      -0.03289228      0.00000183      0.00000020      0.00000005     -0.02016723      0.05880974
 2 b00a00       0.03289228     -0.00000183     -0.00000020     -0.00000005      0.02016723     -0.05880974
 2 00a00b       0.03391147     -0.00000188      0.00000010     -0.00000005     -0.01840193      0.05880974
 2 00b00a      -0.03391147      0.00000188     -0.00000010      0.00000005      0.01840193     -0.05880974
 
 Energy:     -191.80261858   -191.80261858   -191.80261858   -191.80261858   -191.80261858   -191.76864256
 


 **********************************************************************************************************************************
 DATASETS  * FILE   NREC   LENGTH (MB)   RECORD NAMES
              1      21       86.94       500      610      700      900      950      970     1000      129      960     1100   
                                          VAR    BASINP    GEOM    SYMINP    ZMAT    AOBASIS   BASIS     P2S    ABASIS      S 
                                         1400     1410     1420     1200     1210     1080     1700     1600     1650     1380   
                                           T        V       ECP      H0       H01     AOSYM    OPER      SMH    MOLCAS    JKOP   
                                         1700(1)
                                         OPER   

              2       5        2.83       700     1000      520     2100     2140   
                                         GEOM     BASIS   MCVARS     RHF     MCSCF   

 PROGRAMS   *        TOTAL     MULTI   RHF-SCF       INT
 CPU TIMES  *        31.54     12.01      4.30     15.01
 REAL TIME  *        35.81 SEC
 DISK USED  *        89.89 MB (local),        1.79 GB (total)
 SF USED    *       148.89 MB
 GA USED    *         0.00 MB       (max)       0.00 MB       (current)
 **********************************************************************************************************************************

 Energies and &lt;L**2&gt; values

         ENERGY     LL
    -191.8366348   2.0
    -191.8366348   2.0
    -191.8366348   2.0
    -191.6695060   6.0
    -191.6695060   6.0
    -191.6695060   6.0
    -191.6695060   6.0
    -191.6695060   6.0
    -191.6647856   2.0
    -191.6647856   2.0
    -191.6647856   2.0
    -191.8026186   6.0
    -191.8026186   6.0
    -191.8026186   6.0
    -191.8026186   6.0
    -191.8026186   6.0
    -191.7686426  -0.0
                                                  


 PROGRAM * CI (Multireference internally contracted CI)     Authors: H.-J. Werner, P.J. Knowles, 1987


 Convergence thresholds:  THRVAR = 1.00D-08  THRDEN = 1.00D-06

 Number of optimized states: 11  Roots:   1   2   3   4   5   6   7   8   9  10  11
 Number of reference states: 11  Roots:   1   2   3   4   5   6   7   8   9  10  11

 Reference symmetry:                   1   Triplet 
 Number of electrons:                 22
 Maximum number of shells:             5
 Maximum number of spin couplings:    90

 Reference space:       90 conf      120 CSFs
 N elec internal:    18284 conf    76944 CSFs
 N-1 el internal:    12821 conf    88545 CSFs
 N-2 el internal:     4717 conf    46537 CSFs

 Number of electrons in valence space:                     22
 Maximum number of open shell orbitals in reference space:  4
 Maximum number of open shell orbitals in internal spaces: 10


 Number of closed-shell orbitals:   9 (   6   3 )
 Number of active  orbitals:        7 (   1   6 )
 Number of external orbitals:     249 ( 122 127 )

 Molecular orbitals read from record     2140.2  Type=MCSCF/NATURAL (state averaged)

 Valence orbitals related to previous ones by unitary transformation. Operators transformed.


 Number of p-space configurations:  15

 Reference wavefunction optimized for reference space (refopt=1)

 State     Reference Energy 
     1      -191.83663485
     2      -191.83663484
     3      -191.83663484
     4      -191.66950595
     5      -191.66950595
     6      -191.66950595
     7      -191.66950595
     8      -191.66950595
     9      -191.66478559
    10      -191.66478559
    11      -191.66478559

 ?WARNING: SMALL EIGENVALUE OF PAIR OVERLAP MATRIX:  0.1031D-06

 ?WARNING: SMALL EIGENVALUE OF PAIR OVERLAP MATRIX:  0.1031D-06

 ?WARNING: SMALL EIGENVALUE OF PAIR OVERLAP MATRIX:  0.1031D-06

 ?WARNING: SMALL EIGENVALUE OF PAIR OVERLAP MATRIX:  0.1031D-06

 ?WARNING: SMALL EIGENVALUE OF PAIR OVERLAP MATRIX:  0.1031D-06

 ?WARNING: SMALL EIGENVALUE OF PAIR OVERLAP MATRIX:  0.1031D-06

 ?WARNING: SMALL EIGENVALUE OF PAIR OVERLAP MATRIX:  0.1166D-06

 ?WARNING: SMALL EIGENVALUE OF PAIR OVERLAP MATRIX:  0.1031D-06

 ?WARNING: SMALL EIGENVALUE OF PAIR OVERLAP MATRIX:  0.1031D-06

 ?WARNING: SMALL EIGENVALUE OF PAIR OVERLAP MATRIX:  0.1031D-06

 ?WARNING: SMALL EIGENVALUE OF PAIR OVERLAP MATRIX:  0.1031D-06

 ?WARNING: SMALL EIGENVALUE OF PAIR OVERLAP MATRIX:  0.1031D-06

 ?WARNING: SMALL EIGENVALUE OF PAIR OVERLAP MATRIX:  0.1031D-06

 ?WARNING: SMALL EIGENVALUE OF PAIR OVERLAP MATRIX:  0.1031D-06

 ?WARNING: SMALL EIGENVALUE OF PAIR OVERLAP MATRIX:  0.1031D-06

 ?WARNING: SMALL EIGENVALUE OF PAIR OVERLAP MATRIX:  0.1031D-06

 ?WARNING: SMALL EIGENVALUE OF PAIR OVERLAP MATRIX:  0.1031D-06

 ?WARNING: SMALL EIGENVALUE OF PAIR OVERLAP MATRIX:  0.1031D-06

 ?WARNING: SMALL EIGENVALUE OF PAIR OVERLAP MATRIX:  0.1031D-06

 Number of blocks in overlap matrix:  1023   Smallest eigenvalue:  0.10D-06
 Number of N-2 electron functions:    2268
 Number of N-1 electron functions:   88545

 Number of internal configurations:                38406
 Number of singly external configurations:      11024685
 Number of doubly external configurations:      35163228
 Total number of contracted configurations:     46226319
 Total number of uncontracted configurations:  731368774

 Diagonal Coupling coefficients finished.               Storage:  24097073 words, CPU-Time:    110.38 seconds.
 Energy denominators for pairs finished in 1 passes.    Storage:   3764734 words, CPU-time:      5.11 seconds.

  ITER. STATE  ROOT     SQ.NORM     CORR.ENERGY   TOTAL ENERGY   ENERGY CHANGE       DEN1      VAR(S)    VAR(P)      TIME
    1     1     1     1.00000000     0.00000000  -191.83663485     0.00000000    -0.95547801  0.48D-01  0.12D+00   142.83
    1     2     2     1.00000000     0.00000000  -191.83663484     0.00000000    -0.95572204  0.48D-01  0.12D+00   142.83
    1     3     3     1.00000000     0.00000000  -191.83663484    -0.00000000    -0.95592727  0.48D-01  0.12D+00   142.83
    1     4     4     1.00000000     0.00000000  -191.66950595     0.00000000    -0.91760749  0.40D-01  0.10D+00   142.83
    1     5     5     1.00000000     0.00000000  -191.66950595    -0.00000000    -0.91729027  0.41D-01  0.10D+00   142.83
    1     6     6     1.00000000     0.00000000  -191.66950595     0.00000000    -0.91721453  0.40D-01  0.10D+00   142.83
    1     7     7     1.00000000     0.00000000  -191.66950595    -0.00000000    -0.91748553  0.40D-01  0.10D+00   142.83
    1     8     8     1.00000000     0.00000000  -191.66950595     0.00000000    -0.91715570  0.40D-01  0.10D+00   142.83
    1     9     9     1.00000000     0.00000000  -191.66478559     0.00000000    -0.92260537  0.43D-01  0.11D+00   142.83
    1    10    10     1.00000000     0.00000000  -191.66478559     0.00000000    -0.92249140  0.43D-01  0.11D+00   142.83
    1    11    11     1.00000000     0.00000000  -191.66478559     0.00000000    -0.92241921  0.43D-01  0.11D+00   142.83
    2     1     1     1.10363922    -0.76305918  -192.59969402    -0.76305918    -0.02638916  0.42D-02  0.20D-02  4151.25
    2     2     2     1.10368343    -0.76296969  -192.59960453    -0.76296969    -0.02646308  0.42D-02  0.20D-02  4151.25
    2     3     3     1.10378894    -0.76290067  -192.59953552    -0.76290067    -0.02656448  0.43D-02  0.20D-02  4151.25
    2     4     4     1.09686817    -0.75363617  -192.42314212    -0.75363617    -0.02123764  0.28D-02  0.15D-02  4151.25
    2     5     5     1.09687231    -0.75362213  -192.42312808    -0.75362213    -0.02124912  0.28D-02  0.15D-02  4151.25
    2     6     6     1.09694922    -0.75361642  -192.42312238    -0.75361642    -0.02124917  0.28D-02  0.15D-02  4151.25
    2     7     7     1.09690531    -0.75360103  -192.42310698    -0.75360103    -0.02127622  0.28D-02  0.15D-02  4151.25
    2     8     8     1.09697349    -0.75359597  -192.42310192    -0.75359597    -0.02127596  0.28D-02  0.15D-02  4151.25
    2     9     9     1.09835447    -0.75399373  -192.41877933    -0.75399373    -0.02240408  0.35D-02  0.15D-02  4151.25
    2    10    10     1.09835555    -0.75398393  -192.41876952    -0.75398393    -0.02241106  0.35D-02  0.15D-02  4151.25
    2    11    11     1.09839864    -0.75396210  -192.41874769    -0.75396210    -0.02243917  0.35D-02  0.15D-02  4151.25
    3     1     1     1.08998348    -0.78778030  -192.62441514    -0.02472112    -0.00046281  0.68D-04  0.52D-04  8060.66
    3     2     2     1.08998020    -0.78777493  -192.62440978    -0.02480524    -0.00046815  0.69D-04  0.52D-04  8060.66
    3     3     3     1.08996805    -0.78776849  -192.62440334    -0.02486782    -0.00047153  0.69D-04  0.53D-04  8060.66
    3     4     4     1.08690834    -0.77357285  -192.44307880    -0.01993667    -0.00029464  0.35D-04  0.29D-04  8060.66
    3     5     5     1.08690789    -0.77357191  -192.44307787    -0.01994978    -0.00029556  0.35D-04  0.29D-04  8060.66
    3     6     6     1.08690478    -0.77357160  -192.44307756    -0.01995518    -0.00029556  0.35D-04  0.29D-04  8060.66
    3     7     7     1.08692627    -0.77357082  -192.44307677    -0.01996979    -0.00029745  0.35D-04  0.30D-04  8060.66
    3     8     8     1.08692104    -0.77356979  -192.44307574    -0.01997382    -0.00029773  0.35D-04  0.30D-04  8060.66
    3     9     9     1.08710903    -0.77502867  -192.43981426    -0.02103493    -0.00033917  0.48D-04  0.34D-04  8060.66
    3    10    10     1.08710501    -0.77502773  -192.43981332    -0.02104380    -0.00033963  0.49D-04  0.34D-04  8060.66
    3    11    11     1.08711260    -0.77502743  -192.43981302    -0.02106533    -0.00034044  0.48D-04  0.34D-04  8060.66
    4     1     1     1.08963044    -0.78826456  -192.62489940    -0.00048426    -0.00002181  0.31D-05  0.28D-05 11630.26
    4     2     2     1.08962912    -0.78826436  -192.62489921    -0.00048943    -0.00002198  0.32D-05  0.28D-05 11630.26
    4     3     3     1.08962265    -0.78826341  -192.62489826    -0.00049492    -0.00002270  0.32D-05  0.29D-05 11630.26
    4     4     4     1.08706552    -0.77387926  -192.44338521    -0.00030641    -0.00001246  0.22D-05  0.15D-05 11630.26
    4     5     5     1.08706723    -0.77387924  -192.44338519    -0.00030732    -0.00001234  0.21D-05  0.15D-05 11630.26
    4     6     6     1.08706426    -0.77387923  -192.44338518    -0.00030762    -0.00001254  0.22D-05  0.16D-05 11630.26
    4     7     7     1.08706801    -0.77387915  -192.44338510    -0.00030833    -0.00001224  0.21D-05  0.15D-05 11630.26
    4     8     8     1.08706731    -0.77387905  -192.44338501    -0.00030927    -0.00001226  0.21D-05  0.15D-05 11630.26
    4     9     9     1.08718306    -0.77538185  -192.44016744    -0.00035318    -0.00001517  0.29D-05  0.18D-05 11630.26
    4    10    10     1.08718217    -0.77538176  -192.44016736    -0.00035403    -0.00001524  0.29D-05  0.18D-05 11630.26
    4    11    11     1.08718246    -0.77538175  -192.44016734    -0.00035432    -0.00001526  0.29D-05  0.18D-05 11630.26
    5     1     1     1.08976814    -0.78828908  -192.62492393    -0.00002452    -0.00000096  0.58D-07  0.15D-06 14883.34
    5     2     2     1.08976771    -0.78828907  -192.62492392    -0.00002471    -0.00000096  0.58D-07  0.15D-06 14883.34
    5     3     3     1.08976762    -0.78828902  -192.62492387    -0.00002561    -0.00000101  0.60D-07  0.15D-06 14883.34
    5     4     4     1.08719567    -0.77389391  -192.44339987    -0.00001466    -0.00000067  0.34D-07  0.14D-06 14883.34
    5     5     5     1.08719537    -0.77389379  -192.44339974    -0.00001455    -0.00000067  0.34D-07  0.14D-06 14883.34
    5     6     6     1.08719570    -0.77389372  -192.44339967    -0.00001449    -0.00000066  0.35D-07  0.14D-06 14883.34
    5     7     7     1.08719534    -0.77389350  -192.44339945    -0.00001434    -0.00000066  0.35D-07  0.14D-06 14883.34
    5     8     8     1.08719524    -0.77389342  -192.44339938    -0.00001437    -0.00000066  0.35D-07  0.14D-06 14883.34
    5     9     9     1.08729356    -0.77539916  -192.44018475    -0.00001731    -0.00000086  0.69D-07  0.16D-06 14883.34
    5    10    10     1.08729336    -0.77539914  -192.44018473    -0.00001737    -0.00000085  0.68D-07  0.16D-06 14883.34
    5    11    11     1.08729326    -0.77539912  -192.44018472    -0.00001738    -0.00000085  0.68D-07  0.16D-06 14883.34
    6     1     1     1.08978049    -0.78829017  -192.62492502    -0.00000109    -0.00000006  0.57D-08  0.90D-08 18138.73
    6     2     2     1.08978034    -0.78829017  -192.62492502    -0.00000110    -0.00000006  0.61D-08  0.93D-08 18138.73
    6     3     3     1.08978047    -0.78829017  -192.62492502    -0.00000115    -0.00000006  0.58D-08  0.91D-08 18138.73
    6     4     4     1.08721699    -0.77389475  -192.44340070    -0.00000084    -0.00000006  0.49D-08  0.12D-07 18138.73
    6     5     5     1.08721678    -0.77389462  -192.44340058    -0.00000084    -0.00000006  0.49D-08  0.12D-07 18138.73
    6     6     6     1.08721732    -0.77389455  -192.44340050    -0.00000083    -0.00000006  0.50D-08  0.12D-07 18138.73
    6     7     7     1.08721712    -0.77389432  -192.44340027    -0.00000082    -0.00000006  0.51D-08  0.12D-07 18138.73
    6     8     8     1.08721707    -0.77389425  -192.44340020    -0.00000082    -0.00000006  0.50D-08  0.12D-07 18138.73
    6     9     9     1.08731096    -0.77540018  -192.44018577    -0.00000103    -0.00000008  0.84D-08  0.17D-07 18138.73
    6    10    10     1.08731090    -0.77540015  -192.44018574    -0.00000102    -0.00000008  0.84D-08  0.17D-07 18138.73
    6    11    11     1.08731087    -0.77540014  -192.44018573    -0.00000102    -0.00000008  0.83D-08  0.17D-07 18138.73
    7     1     1     1.08978763    -0.78829024  -192.62492509    -0.00000007    -0.00000000  0.35D-09  0.74D-09 21389.13
    7     2     2     1.08978762    -0.78829024  -192.62492509    -0.00000007    -0.00000000  0.33D-09  0.72D-09 21389.13
    7     3     3     1.08978763    -0.78829024  -192.62492509    -0.00000007    -0.00000000  0.33D-09  0.72D-09 21389.13
    7     4     4     1.08722080    -0.77389483  -192.44340078    -0.00000007    -0.00000001  0.53D-09  0.95D-09 21389.13
    7     5     5     1.08722079    -0.77389470  -192.44340065    -0.00000008    -0.00000001  0.53D-09  0.96D-09 21389.13
    7     6     6     1.08722049    -0.77389462  -192.44340057    -0.00000007    -0.00000001  0.52D-09  0.97D-09 21389.13
    7     7     7     1.08722036    -0.77389440  -192.44340035    -0.00000007    -0.00000001  0.52D-09  0.97D-09 21389.13
    7     8     8     1.08722033    -0.77389432  -192.44340027    -0.00000007    -0.00000001  0.52D-09  0.97D-09 21389.13
    7     9     9     1.08731523    -0.77540029  -192.44018588    -0.00000011    -0.00000001  0.77D-09  0.17D-08 21389.13
    7    10    10     1.08731523    -0.77540026  -192.44018585    -0.00000011    -0.00000001  0.76D-09  0.17D-08 21389.13
    7    11    11     1.08731523    -0.77540025  -192.44018584    -0.00000011    -0.00000001  0.77D-09  0.17D-08 21389.13


 =====================================
 Analysis of CPU times by interactions
 =====================================

       I      S      P

 I   0.3%
 S   0.2%  24.1%
 P   0.2%  25.3%  38.6%

 Initialization:   0.5%
 Other:           10.8%

 Total CPU:    21389.1 seconds
 =====================================



 Wavefunction saved on  5201.2

 Reference coefficients greater than 0.0500000
 =============================================
 2222222222/0/000           0.9531242   0.0144349  -0.0206524   0.0000000  -0.0000000  -0.0000000   0.0000000   0.0000000
                            0.0309104   0.0008812   0.0036952
 22222222220//000          -0.0157293   0.9513767  -0.0609561  -0.0000000  -0.0000000  -0.0000000  -0.0000001  -0.0000000
                           -0.0012907   0.0309275   0.0034217
 2222222222//0000           0.0196845   0.0612755   0.9512825  -0.0000000  -0.0000000   0.0000000   0.0000000  -0.0000001
                            0.0035728   0.0035493  -0.0307331
 22222222220/00/0           0.0000000   0.0000000  -0.0000000  -0.0618333   0.7755807  -0.0075816  -0.0017489   0.0003696
                            0.0000004   0.0000002  -0.0000001
 222222222200/00/          -0.0000000   0.0000000   0.0000000   0.7026216  -0.3342526   0.0026785  -0.0006481  -0.0005980
                           -0.0000004   0.0000006   0.0000001
 222222222200/0/0          -0.0003864   0.0233727  -0.0014975   0.0014014   0.0016319   0.0002928   0.6738197   0.0047831
                            0.0276590  -0.6627682  -0.0733256
 22222222220/000/           0.0003864  -0.0233728   0.0014975   0.0014001   0.0016315   0.0002926   0.6738149   0.0047827
                           -0.0276596   0.6627729   0.0733262
 22222222220/0/00           0.0004836   0.0015054   0.0233704   0.0004312  -0.0002551   0.0043249  -0.0047851   0.6738102
                           -0.0765649  -0.0760597   0.6586005
 2222222222/000/0          -0.0004836  -0.0015054  -0.0233705   0.0004311  -0.0002554   0.0043262  -0.0047849   0.6738032
                            0.0765652   0.0760607  -0.6586074
 2222222222/0000/          -0.0234156  -0.0003546   0.0005074   0.0005839   0.0066343   0.6737912  -0.0002791  -0.0043250
                            0.6624038   0.0188831   0.0791883
 222222222200//00           0.0234156   0.0003546  -0.0005074   0.0005835   0.0066348   0.6737907  -0.0002795  -0.0043255
                           -0.6624045  -0.0188831  -0.0791869
 2222222222/00/00          -0.0000000  -0.0000000  -0.0000000  -0.6407878  -0.4413282   0.0049032   0.0023970   0.0002284
                            0.0000000  -0.0000007   0.0000000
 22222222220000//           0.0001729  -0.0104595   0.0006702   0.0000001   0.0000000   0.0000000   0.0000004   0.0000000
                            0.0053450  -0.1280772  -0.0141699
 2222222222000/0/          -0.0104787  -0.0001587   0.0002271  -0.0000000   0.0000000  -0.0000000  -0.0000000  -0.0000000
                           -0.1280063  -0.0036491  -0.0153026
 2222222222000//0          -0.0002164  -0.0006737  -0.0104585  -0.0000000   0.0000000  -0.0000001  -0.0000000   0.0000007
                           -0.0147958  -0.0146983   0.1272720
 2222220222/2/000          -0.0743446  -0.0011259   0.0016109   0.0000000   0.0000000   0.0000001   0.0000000  -0.0000000
                            0.0007757   0.0000221   0.0000927
 22222202222//000           0.0012269  -0.0742083   0.0047546   0.0000000  -0.0000000  -0.0000000   0.0000006   0.0000000
                           -0.0000324   0.0007762   0.0000859
 2222220222//2000          -0.0015354  -0.0047795  -0.0742010   0.0000000  -0.0000000  -0.0000000  -0.0000000   0.0000001
                            0.0000897   0.0000891  -0.0007713
 22222202220/20/0           0.0000000  -0.0000000   0.0000000   0.0040494  -0.0554531   0.0005424   0.0001258  -0.0000262
                           -0.0000000  -0.0000001  -0.0000000
 22222202222/00/0           0.0000000   0.0000000   0.0000000   0.0047876  -0.0553937   0.0005412   0.0001241  -0.0000266
                           -0.0000001   0.0000000   0.0000000
 222222022202/00/           0.0000000   0.0000000   0.0000000  -0.0503682   0.0235524  -0.0001880   0.0000474   0.0000427
                            0.0000000  -0.0000000  -0.0000000
 222222022220/00/           0.0000000  -0.0000000   0.0000000  -0.0500488   0.0242191  -0.0001948   0.0000452   0.0000428
                            0.0000001  -0.0000001  -0.0000000

 Coefficients of fixed reference functions:
 ==========================================

 State      Coefficients
 1           0.956383   -0.015783    0.019752    0.000000   -0.000000    0.000000   -0.000000   -0.000000    0.000771    0.000616
            -0.037334
 2           0.014484    0.954629    0.061485    0.000000   -0.000000   -0.000000    0.000000   -0.000000    0.002400   -0.037266
            -0.000565
 3          -0.020723   -0.061164    0.954535   -0.000000   -0.000000    0.000000    0.000000    0.000000    0.037262    0.002388
             0.000809
 4           0.000000   -0.000000   -0.000000   -0.033355    0.000613    0.001992    0.957677    0.000830    0.000000   -0.000001
             0.000000
 5          -0.000000   -0.000000   -0.000000    0.957631   -0.000363    0.002320    0.033341    0.009435    0.000000   -0.000000
            -0.000000
 6          -0.000000   -0.000000    0.000000   -0.009399    0.006151    0.000416   -0.001163    0.958194   -0.000001   -0.000000
             0.000000
 7           0.000000   -0.000000    0.000000   -0.002249   -0.006805    0.958231   -0.002067   -0.000397   -0.000000   -0.000003
             0.000000
 8           0.000000   -0.000000   -0.000000    0.000428    0.958216    0.006802   -0.000607   -0.006151    0.000005   -0.000000
             0.000000
 9           0.037858   -0.001581    0.004376    0.000000    0.000000   -0.000000   -0.000000   -0.000000   -0.109844   -0.039681
             0.950318
 10          0.001079    0.037879    0.004347    0.000000    0.000001    0.000003    0.000001    0.000000   -0.109120    0.950844
             0.027091
 11          0.004526    0.004191   -0.037641   -0.000000   -0.000005    0.000000    0.000000    0.000001    0.944866    0.105197
             0.113606

 Coefficients of rotated reference functions:
 ============================================

 State      Coefficients
 1           0.957446   -0.000000    0.000000    0.000000   -0.000000   -0.000000    0.000000   -0.000000    0.000381    0.000005
             0.000037
 2          -0.000000    0.957446   -0.000000   -0.000000   -0.000000   -0.000000   -0.000000   -0.000000   -0.000007    0.000382
             0.000018
 3           0.000000   -0.000000    0.957446   -0.000000    0.000000    0.000000    0.000000   -0.000000    0.000037    0.000019
            -0.000380
 4           0.000000   -0.000000   -0.000000    0.958260    0.000000   -0.000000   -0.000000    0.000000   -0.000000    0.000000
             0.000000
 5          -0.000000   -0.000000    0.000000    0.000000    0.958260    0.000000    0.000000    0.000000    0.000000    0.000000
            -0.000000
 6          -0.000000   -0.000000    0.000000   -0.000000    0.000000    0.958260   -0.000000   -0.000000   -0.000000   -0.000000
             0.000000
 7           0.000000   -0.000000    0.000000   -0.000000    0.000000   -0.000000    0.958260    0.000000   -0.000000   -0.000000
            -0.000000
 8          -0.000000   -0.000000   -0.000000    0.000000    0.000000   -0.000000    0.000000    0.958260   -0.000000   -0.000000
             0.000000
 9           0.000381   -0.000007    0.000037   -0.000000    0.000000   -0.000000   -0.000000   -0.000000    0.958227    0.000000
             0.000000
 10          0.000005    0.000382    0.000019    0.000000    0.000000   -0.000000   -0.000000   -0.000000    0.000000    0.958227
             0.000000
 11          0.000037    0.000018   -0.000380    0.000000   -0.000000    0.000000   -0.000000    0.000000    0.000000    0.000000
             0.958227


 RESULTS FOR STATE 1.1
 =====================

 Coefficient of reference function:   C(0) = 0.95638278 (fixed)   0.95751851 (relaxed)   0.95744553 (rotated)

 Energy contributions of configuration classes

 CLASS          SQ.NORM        ECORR1        ECORR2
 +++++++++++++++++++++++++++++++++++++++++++++++++++
 Internals    0.00099054   -0.00191696   -0.70593379
 Singles      0.01565561   -0.05713493   -0.06368556
 Pairs        0.07422096    0.03814381   -0.01867089
 Total        1.09086712   -0.02090808   -0.78829024
 +++++++++++++++++++++++++++++++++++++++++++++++++++


 Reference energy                    -191.83636798
 Nuclear energy                         0.00000000
 Kinetic energy                        63.24408911
 One electron energy                 -335.66560341
 Two electron energy                  143.04067832
 Virial quotient                       -3.04573799
 Correlation energy                    -0.78855711
 !MRCI STATE 1.1 Energy              -192.624925089014

 Properties without orbital relaxation:

 !MRCI STATE 1.1 Dipole moment          0.00000000     0.00000000     0.00000000
 Dipole moment /Debye                   0.00000000     0.00000000     0.00000000

 Cluster corrected energies          -192.69657900 (Davidson, fixed reference)
 Cluster corrected energies          -192.69644787 (Davidson, relaxed reference)
 Cluster corrected energies          -192.69657900 (Davidson, rotated reference)

 Cluster corrected energies          -192.69440902 (Pople, fixed reference)
 Cluster corrected energies          -192.69427214 (Pople, relaxed reference)
 Cluster corrected energies          -192.69440902 (Pople, rotated reference)



 RESULTS FOR STATE 2.1
 =====================

 Coefficient of reference function:   C(0) = 0.95462928 (fixed)   0.95751852 (relaxed)   0.95744553 (rotated)

 Energy contributions of configuration classes

 CLASS          SQ.NORM        ECORR1        ECORR2
 +++++++++++++++++++++++++++++++++++++++++++++++++++
 Internals    0.00099054   -0.00191696   -0.67149696
 Singles      0.01565554   -0.05713482   -0.06368550
 Pairs        0.07422102    0.00057768   -0.05310778
 Total        1.09086710   -0.05847409   -0.78829024
 +++++++++++++++++++++++++++++++++++++++++++++++++++


 Reference energy                    -191.83636798
 Nuclear energy                         0.00000000
 Kinetic energy                        63.24408898
 One electron energy                 -335.66560385
 Two electron energy                  143.04067876
 Virial quotient                       -3.04573800
 Correlation energy                    -0.78855710
 !MRCI STATE 2.1 Energy              -192.624925085666

 Properties without orbital relaxation:

 !MRCI STATE 2.1 Dipole moment          0.00000000     0.00000000     0.00000000
 Dipole moment /Debye                   0.00000000     0.00000000     0.00000000

 Cluster corrected energies          -192.69657898 (Davidson, fixed reference)
 Cluster corrected energies          -192.69644785 (Davidson, relaxed reference)
 Cluster corrected energies          -192.69657898 (Davidson, rotated reference)

 Cluster corrected energies          -192.69440900 (Pople, fixed reference)
 Cluster corrected energies          -192.69427213 (Pople, relaxed reference)
 Cluster corrected energies          -192.69440900 (Pople, rotated reference)



 RESULTS FOR STATE 3.1
 =====================

 Coefficient of reference function:   C(0) = 0.95453482 (fixed)   0.95751852 (relaxed)   0.95744553 (rotated)

 Energy contributions of configuration classes

 CLASS          SQ.NORM        ECORR1        ECORR2
 +++++++++++++++++++++++++++++++++++++++++++++++++++
 Internals    0.00099054   -0.00191696   -0.67020973
 Singles      0.01565557   -0.05713482   -0.06368551
 Pairs        0.07422100   -0.00082651   -0.05439500
 Total        1.09086711   -0.05987829   -0.78829024
 +++++++++++++++++++++++++++++++++++++++++++++++++++


 Reference energy                    -191.83636798
 Nuclear energy                         0.00000000
 Kinetic energy                        63.24408710
 One electron energy                 -335.66560215
 Two electron energy                  143.04067707
 Virial quotient                       -3.04573809
 Correlation energy                    -0.78855710
 !MRCI STATE 3.1 Energy              -192.624925085234

 Properties without orbital relaxation:

 !MRCI STATE 3.1 Dipole moment          0.00000000     0.00000000     0.00000000
 Dipole moment /Debye                   0.00000000     0.00000000     0.00000000

 Cluster corrected energies          -192.69657899 (Davidson, fixed reference)
 Cluster corrected energies          -192.69644786 (Davidson, relaxed reference)
 Cluster corrected energies          -192.69657899 (Davidson, rotated reference)

 Cluster corrected energies          -192.69440901 (Pople, fixed reference)
 Cluster corrected energies          -192.69427213 (Pople, relaxed reference)
 Cluster corrected energies          -192.69440901 (Pople, rotated reference)



 RESULTS FOR STATE 4.1
 =====================

 Maximum overlap with reference state  7

 Coefficient of reference function:   C(0) = 0.95767692 (fixed)   0.95837409 (relaxed)   0.95826023 (rotated)

 Energy contributions of configuration classes

 CLASS          SQ.NORM        ECORR1        ECORR2
 +++++++++++++++++++++++++++++++++++++++++++++++++++
 Internals    0.00164844   -0.00324664   -0.65534208
 Singles      0.01742211   -0.06149426   -0.06884472
 Pairs        0.06994248   -0.00000023   -0.04970802
 Total        1.08901302   -0.06474113   -0.77389483
 +++++++++++++++++++++++++++++++++++++++++++++++++++


 Reference energy                    -191.66950595
 Nuclear energy                         0.00000000
 Kinetic energy                        62.99640730
 One electron energy                 -331.56986951
 Two electron energy                  139.12646873
 Virial quotient                       -3.05483136
 Correlation energy                    -0.77389483
 !MRCI STATE 4.1 Energy              -192.443400779348

 Properties without orbital relaxation:

 !MRCI STATE 4.1 Dipole moment          0.00000000     0.00000000     0.00000000
 Dipole moment /Debye                   0.00000000     0.00000000     0.00000000

 Cluster corrected energies          -192.51228750 (Davidson, fixed reference)
 Cluster corrected energies          -192.51208726 (Davidson, relaxed reference)
 Cluster corrected energies          -192.51228750 (Davidson, rotated reference)

 Cluster corrected energies          -192.51009714 (Pople, fixed reference)
 Cluster corrected energies          -192.50988879 (Pople, relaxed reference)
 Cluster corrected energies          -192.51009714 (Pople, rotated reference)



 RESULTS FOR STATE 5.1
 =====================

 Maximum overlap with reference state  4

 Coefficient of reference function:   C(0) = 0.95763071 (fixed)   0.95837409 (relaxed)   0.95826024 (rotated)

 Energy contributions of configuration classes

 CLASS          SQ.NORM        ECORR1        ECORR2
 +++++++++++++++++++++++++++++++++++++++++++++++++++
 Internals    0.00164842   -0.00324664   -0.65534247
 Singles      0.01742212   -0.06149424   -0.06884463
 Pairs        0.06994245    0.00000029   -0.04970760
 Total        1.08901298   -0.06474058   -0.77389470
 +++++++++++++++++++++++++++++++++++++++++++++++++++


 Reference energy                    -191.66950595
 Nuclear energy                         0.00000000
 Kinetic energy                        62.99641132
 One electron energy                 -331.56987392
 Two electron energy                  139.12647326
 Virial quotient                       -3.05483117
 Correlation energy                    -0.77389470
 !MRCI STATE 5.1 Energy              -192.443400651495

 Properties without orbital relaxation:

 !MRCI STATE 5.1 Dipole moment          0.00000000     0.00000000     0.00000000
 Dipole moment /Debye                   0.00000000     0.00000000     0.00000000

 Cluster corrected energies          -192.51228733 (Davidson, fixed reference)
 Cluster corrected energies          -192.51208711 (Davidson, relaxed reference)
 Cluster corrected energies          -192.51228733 (Davidson, rotated reference)

 Cluster corrected energies          -192.51009697 (Pople, fixed reference)
 Cluster corrected energies          -192.50988864 (Pople, relaxed reference)
 Cluster corrected energies          -192.51009697 (Pople, rotated reference)



 RESULTS FOR STATE 6.1
 =====================

 Maximum overlap with reference state  8

 Coefficient of reference function:   C(0) = 0.95819373 (fixed)   0.95837422 (relaxed)   0.95826037 (rotated)

 Energy contributions of configuration classes

 CLASS          SQ.NORM        ECORR1        ECORR2
 +++++++++++++++++++++++++++++++++++++++++++++++++++
 Internals    0.00164844   -0.00324663   -0.65534238
 Singles      0.01742186   -0.06149391   -0.06884442
 Pairs        0.06994240   -0.00000025   -0.04970782
 Total        1.08901271   -0.06474079   -0.77389462
 +++++++++++++++++++++++++++++++++++++++++++++++++++


 Reference energy                    -191.66950595
 Nuclear energy                         0.00000000
 Kinetic energy                        62.99639106
 One electron energy                 -331.56984860
 Two electron energy                  139.12644803
 Virial quotient                       -3.05483215
 Correlation energy                    -0.77389462
 !MRCI STATE 6.1 Energy              -192.443400572904

 Properties without orbital relaxation:

 !MRCI STATE 6.1 Dipole moment          0.00000000     0.00000000     0.00000000
 Dipole moment /Debye                   0.00000000     0.00000000     0.00000000

 Cluster corrected energies          -192.51228703 (Davidson, fixed reference)
 Cluster corrected energies          -192.51208680 (Davidson, relaxed reference)
 Cluster corrected energies          -192.51228703 (Davidson, rotated reference)

 Cluster corrected energies          -192.51009666 (Pople, fixed reference)
 Cluster corrected energies          -192.50988832 (Pople, relaxed reference)
 Cluster corrected energies          -192.51009666 (Pople, rotated reference)



 RESULTS FOR STATE 7.1
 =====================

 Maximum overlap with reference state  6

 Coefficient of reference function:   C(0) = 0.95823133 (fixed)   0.95837428 (relaxed)   0.95826044 (rotated)

 Energy contributions of configuration classes

 CLASS          SQ.NORM        ECORR1        ECORR2
 +++++++++++++++++++++++++++++++++++++++++++++++++++
 Internals    0.00164841   -0.00324663   -0.65534241
 Singles      0.01742178   -0.06149380   -0.06884423
 Pairs        0.06994235   -0.00000019   -0.04970776
 Total        1.08901254   -0.06474062   -0.77389440
 +++++++++++++++++++++++++++++++++++++++++++++++++++


 Reference energy                    -191.66950595
 Nuclear energy                         0.00000000
 Kinetic energy                        62.99639296
 One electron energy                 -331.56984919
 Two electron energy                  139.12644884
 Virial quotient                       -3.05483205
 Correlation energy                    -0.77389440
 !MRCI STATE 7.1 Energy              -192.443400347865

 Properties without orbital relaxation:

 !MRCI STATE 7.1 Dipole moment          0.00000000     0.00000000     0.00000000
 Dipole moment /Debye                   0.00000000     0.00000000     0.00000000

 Cluster corrected energies          -192.51228666 (Davidson, fixed reference)
 Cluster corrected energies          -192.51208645 (Davidson, relaxed reference)
 Cluster corrected energies          -192.51228666 (Davidson, rotated reference)

 Cluster corrected energies          -192.51009628 (Pople, fixed reference)
[...]
 21  1    10    1  |1 0>          0.06%    0.00%    0.00%    0.00%    0.00%    0.00%    0.00%    0.00%
 22  1    11    1  |1 0>          0.00%    0.00%    0.00%    0.02%    0.00%    0.00%    0.00%    0.00%
 23  1     1    1  |1 1>-        29.03%    0.02%    0.02%    0.00%   27.47%   12.48%    0.01%    0.00%
 24  1     2    1  |1 1>-         0.01%   49.08%    0.83%    0.02%    0.01%    0.00%    0.10%    0.00%
 25  1     3    1  |1 1>-         0.01%    0.83%   48.98%    0.11%    0.01%    0.01%   29.87%    0.00%
 26  1     4    1  |1 1>-         0.00%    0.00%    0.00%    0.00%    0.00%    0.00%    0.00%    0.37%
 27  1     5    1  |1 1>-         0.00%    0.00%    0.00%    0.04%    0.00%    0.00%    0.00%    0.00%
 28  1     6    1  |1 1>-         0.00%    0.00%    0.00%    0.00%    0.12%    0.26%    0.00%    0.00%
 29  1     7    1  |1 1>-         0.00%    0.03%    0.00%    0.00%    0.00%    0.00%    0.00%    0.00%
 30  1     8    1  |1 1>-         0.00%    0.00%    0.03%    0.00%    0.00%    0.00%    0.09%    0.00%
 31  1     9    1  |1 1>-         0.06%    0.00%    0.00%    0.00%    0.00%    0.00%    0.00%    0.00%
 32  1    10    1  |1 1>-         0.00%    0.02%    0.00%    0.00%    0.00%    0.00%    0.00%    0.00%
 33  1    11    1  |1 1>-         0.00%    0.00%    0.01%    0.00%    0.00%    0.00%    0.00%    0.00%
 34  1     1    1  |0 0>          0.00%    0.00%    0.00%    0.00%   39.29%    0.17%    0.00%    0.00%
 35  1     2    1  |0 0>          0.00%    0.00%    0.00%    0.00%    0.00%    0.00%   39.46%    0.00%
 36  1     3    1  |0 0>          0.00%    0.00%    0.00%    0.00%    0.00%    0.00%    0.00%   39.46%
 37  1     4    1  |0 0>          0.00%    0.00%    0.00%    0.00%    0.00%    0.00%    0.00%    0.00%
 38  1     5    1  |0 0>          0.00%    0.00%    0.00%    0.00%    0.17%   39.29%    0.00%    0.00%
 39  1     6    1  |0 0>         12.69%    0.00%    0.00%    0.00%    0.00%    0.00%    0.00%    0.00%

   Total
 Nr Sym  State Sym Spin / Nr.      9       10       11       12       13       14       15       16

  1  1     1    1  |1 1>+         0.00%   19.90%    0.01%    0.00%    0.01%    0.00%    0.00%    0.00%
  2  1     2    1  |1 1>+         0.00%    0.01%   19.42%    0.40%    0.08%    0.03%    0.02%    0.00%
  3  1     3    1  |1 1>+         0.00%    0.01%    0.08%    0.00%   18.95%    7.47%    4.24%    0.00%
  4  1     4    1  |1 1>+         0.07%    0.00%    0.00%    0.01%    0.00%    0.00%    0.00%   28.11%
  5  1     5    1  |1 1>+         0.31%    0.00%    0.00%    0.06%    0.00%    0.00%    0.00%    6.37%
  6  1     6    1  |1 1>+         0.00%    0.02%    0.00%    0.00%    0.00%    0.00%    0.00%    0.03%
  7  1     7    1  |1 1>+         0.00%    0.00%    0.02%    0.00%    0.00%    0.00%    0.00%    0.00%
  8  1     8    1  |1 1>+         0.00%    0.00%    0.00%    0.00%    0.02%    0.05%    0.00%    0.00%
  9  1     9    1  |1 1>+         0.00%    0.05%    0.00%    0.00%    0.00%    0.00%    0.00%    0.01%
 10  1    10    1  |1 1>+         0.00%    0.00%    0.05%    0.00%    0.00%    0.00%    0.00%    0.00%
 11  1    11    1  |1 1>+         0.00%    0.00%    0.00%    0.00%    0.05%    0.02%    0.03%    0.00%
 12  1     1    1  |1 0>         29.95%    0.00%    0.52%   19.38%    0.00%    0.01%    0.00%    0.02%
 13  1     2    1  |1 0>          0.01%    0.00%    0.09%    0.00%    0.04%   26.40%    4.24%    0.00%
 14  1     3    1  |1 0>          0.03%    0.00%   19.30%    0.53%    0.00%    0.11%    0.02%    0.00%
 15  1     4    1  |1 0>          0.00%    0.02%    0.00%    0.00%    0.00%    0.00%    0.00%    0.04%
 16  1     5    1  |1 0>          0.00%    0.05%    0.00%    0.00%    0.00%    0.00%    0.00%    0.03%
 17  1     6    1  |1 0>          0.09%    0.00%    0.00%    0.02%    0.00%    0.00%    0.00%   25.84%
 18  1     7    1  |1 0>          0.00%    0.00%    0.00%    0.00%    0.07%    0.00%    0.00%    0.00%
 19  1     8    1  |1 0>          0.00%    0.00%    0.02%    0.00%    0.00%    0.00%    0.00%    0.00%
 20  1     9    1  |1 0>          0.00%    0.00%    0.00%    0.05%    0.00%    0.00%    0.00%    6.72%
 21  1    10    1  |1 0>          0.00%    0.00%    0.00%    0.00%    0.00%    0.07%    0.03%    0.01%
 22  1    11    1  |1 0>          0.00%    0.00%    0.05%    0.00%    0.00%    0.00%    0.00%    0.07%
 23  1     1    1  |1 1>-         0.01%    0.01%    0.00%    0.01%   20.73%    5.80%    4.26%    0.00%
 24  1     2    1  |1 1>-        29.87%    0.08%    0.40%   19.43%    0.00%    0.00%    0.00%    0.02%
 25  1     3    1  |1 1>-         0.10%   19.82%    0.00%    0.08%    0.01%    0.00%    0.00%    0.00%
 26  1     4    1  |1 1>-         0.00%    0.00%    0.07%    0.00%    0.00%    0.00%    0.00%    0.00%
 27  1     5    1  |1 1>-         0.00%    0.00%    0.00%    0.00%    0.00%    0.00%    0.00%    0.01%
 28  1     6    1  |1 1>-         0.00%    0.00%    0.00%    0.00%    0.02%    0.06%    0.00%    0.00%
 29  1     7    1  |1 1>-         0.09%    0.00%    0.00%    0.02%    0.00%    0.00%    0.00%   25.86%
 30  1     8    1  |1 1>-         0.00%    0.02%    0.00%    0.00%    0.00%    0.00%    0.00%    0.03%
 31  1     9    1  |1 1>-         0.00%    0.00%    0.00%    0.00%    0.05%    0.01%    0.03%    0.01%
 32  1    10    1  |1 1>-         0.00%    0.00%    0.00%    0.05%    0.00%    0.00%    0.00%    6.77%
 33  1    11    1  |1 1>-         0.00%    0.05%    0.00%    0.00%    0.00%    0.00%    0.00%    0.03%
 34  1     1    1  |0 0>          0.00%    0.00%    0.00%    0.00%   59.87%    0.10%    0.00%    0.00%
 35  1     2    1  |0 0>          0.00%   59.97%    0.00%    0.00%    0.00%    0.00%    0.00%    0.00%
 36  1     3    1  |0 0>          0.00%    0.00%   59.06%    0.91%    0.00%    0.00%    0.00%    0.00%
 37  1     4    1  |0 0>         39.46%    0.00%    0.91%   59.06%    0.00%    0.00%    0.00%    0.00%
 38  1     5    1  |0 0>          0.00%    0.00%    0.00%    0.00%    0.10%   59.87%    0.00%    0.00%
 39  1     6    1  |0 0>          0.00%    0.00%    0.00%    0.00%    0.00%    0.00%   87.13%    0.00%

   Total
 Nr Sym  State Sym Spin / Nr.     17       18       19       20       21       22       23       24

  1  1     1    1  |1 1>+         0.02%    0.00%    0.00%    0.00%    0.00%    0.10%    0.00%    0.00%
  2  1     2    1  |1 1>+         0.00%    0.02%    0.00%    0.00%    0.10%    0.00%    0.00%    0.00%
  3  1     3    1  |1 1>+         0.00%    0.00%    0.03%    0.00%    0.00%    0.00%    0.11%    0.02%
  4  1     4    1  |1 1>+         0.05%    0.00%    0.00%    9.79%    0.02%    0.12%    0.00%    0.00%
  5  1     5    1  |1 1>+         0.00%    0.00%    0.00%   43.28%    0.08%    0.47%    0.00%    0.00%
  6  1     6    1  |1 1>+        25.86%    0.00%    0.00%    0.11%    0.00%   13.33%    0.00%    0.00%
  7  1     7    1  |1 1>+         0.00%   25.89%    0.00%    0.02%   13.42%    0.00%    0.00%    0.00%
  8  1     8    1  |1 1>+         0.00%    0.00%    0.00%    0.00%    0.00%    0.00%    8.94%   44.82%
  9  1     9    1  |1 1>+         6.70%    0.01%    0.44%    0.11%    0.03%    9.14%    0.15%    0.03%
 10  1    10    1  |1 1>+         0.01%    6.72%    0.43%    0.02%    9.25%    0.02%    0.14%    0.03%
 11  1    11    1  |1 1>+         0.10%    0.08%   32.38%    0.00%    0.11%    0.14%   10.18%    2.03%
 12  1     1    1  |1 0>          0.00%    0.00%    0.00%    0.10%    0.00%    0.00%    0.00%    0.00%
 13  1     2    1  |1 0>          0.00%    0.00%    0.03%    0.00%    0.00%    0.00%    0.09%    0.05%
 14  1     3    1  |1 0>          0.00%    0.02%    0.00%    0.00%    0.10%    0.00%    0.00%    0.00%
 15  1     4    1  |1 0>         23.38%    0.00%    0.00%    0.20%    0.01%   17.09%    0.00%    0.00%
 16  1     5    1  |1 0>         11.08%    0.00%    0.00%    0.48%    0.01%   35.97%    0.00%    0.00%
 17  1     6    1  |1 0>          0.06%    0.00%    0.00%   13.20%    0.04%    0.21%    0.00%    0.00%
 18  1     7    1  |1 0>          0.00%    0.00%    0.00%    0.00%    0.00%    0.00%   18.52%   35.24%
 19  1     8    1  |1 0>          0.00%   25.89%    0.00%    0.04%   13.40%    0.00%    0.00%    0.00%
 20  1     9    1  |1 0>          0.01%    0.07%    0.06%    9.05%    0.24%    0.11%    0.01%    0.01%
 21  1    10    1  |1 0>          0.00%    0.09%   32.79%    0.00%    0.13%    0.00%    8.11%    4.27%
 22  1    11    1  |1 0>          0.00%    6.66%    0.40%    0.25%    9.04%    0.00%    0.10%    0.05%
 23  1     1    1  |1 1>-         0.00%    0.00%    0.03%    0.00%    0.00%    0.00%    0.00%    0.13%
 24  1     2    1  |1 1>-         0.00%    0.00%    0.00%    0.10%    0.00%    0.00%    0.00%    0.00%
 25  1     3    1  |1 1>-         0.02%    0.00%    0.00%    0.00%    0.00%    0.10%    0.00%    0.00%
 26  1     4    1  |1 1>-         0.00%    0.22%    0.00%    0.12%   53.29%    0.01%    0.00%    0.00%
 27  1     5    1  |1 1>-         0.00%   34.30%    0.00%    0.00%    0.34%    0.00%    0.01%    0.00%
 28  1     6    1  |1 1>-         0.00%    0.00%    0.00%    0.00%    0.00%    0.00%   53.18%    0.58%
 29  1     7    1  |1 1>-         0.03%    0.01%    0.00%   13.23%    0.03%    0.18%    0.00%    0.00%
 30  1     8    1  |1 1>-        25.87%    0.00%    0.00%    0.18%    0.00%   13.25%    0.00%    0.00%
 31  1     9    1  |1 1>-         0.09%    0.00%   32.75%    0.03%    0.00%    0.11%    0.13%   12.24%
 32  1    10    1  |1 1>-         0.04%    0.00%    0.03%    8.92%    0.02%    0.46%    0.00%    0.01%
 33  1    11    1  |1 1>-         6.68%    0.00%    0.47%    0.44%    0.00%    8.84%    0.00%    0.17%
 34  1     1    1  |0 0>          0.00%    0.00%    0.00%    0.00%    0.00%    0.00%    0.11%    0.21%
 35  1     2    1  |0 0>          0.00%    0.00%    0.00%    0.00%    0.00%    0.32%    0.00%    0.00%
 36  1     3    1  |0 0>          0.00%    0.00%    0.00%    0.00%    0.32%    0.00%    0.00%    0.00%
 37  1     4    1  |0 0>          0.00%    0.00%    0.00%    0.32%    0.00%    0.00%    0.00%    0.00%
 38  1     5    1  |0 0>          0.00%    0.00%    0.00%    0.00%    0.00%    0.00%    0.21%    0.11%
 39  1     6    1  |0 0>          0.00%    0.00%    0.18%    0.00%    0.00%    0.00%    0.00%    0.00%

   Total
 Nr Sym  State Sym Spin / Nr.     25       26       27       28       29       30       31       32

  1  1     1    1  |1 1>+         0.00%    0.04%    0.00%    0.00%    0.00%    0.00%    0.00%    0.00%
  2  1     2    1  |1 1>+         0.00%    0.00%    0.04%    0.00%    0.00%    0.00%    0.00%    0.00%
  3  1     3    1  |1 1>+         0.00%    0.00%    0.00%    0.00%    0.00%    0.00%    0.00%    0.00%
  4  1     4    1  |1 1>+         4.41%    0.01%    0.01%   53.63%    0.19%    0.00%    1.26%    0.00%
  5  1     5    1  |1 1>+         1.00%    0.00%    0.00%    0.22%    0.00%    0.00%   37.98%    0.04%
  6  1     6    1  |1 1>+         0.00%    4.06%    0.01%    0.16%   46.83%    0.00%    0.00%    0.08%
  7  1     7    1  |1 1>+         0.01%    0.01%    4.06%    0.00%    0.00%   35.91%    0.03%   17.15%
  8  1     8    1  |1 1>+         0.00%    0.00%    0.00%    0.00%    0.00%    0.00%    0.00%    0.01%
  9  1     9    1  |1 1>+         0.06%   42.54%    0.00%    0.00%    0.00%    0.00%    0.00%    0.00%
 10  1    10    1  |1 1>+         0.11%    0.00%   42.50%    0.00%    0.00%    0.00%    0.00%    0.00%
 11  1    11    1  |1 1>+         0.00%    0.56%    0.56%    0.00%    0.00%    0.00%    0.00%    0.00%
 12  1     1    1  |1 0>          0.04%    0.00%    0.00%    0.00%    0.00%    0.00%    0.00%    0.00%
 13  1     2    1  |1 0>          0.00%    0.00%    0.00%    0.00%    0.00%    0.00%    0.00%    0.00%
 14  1     3    1  |1 0>          0.00%    0.00%    0.04%    0.00%    0.00%    0.00%    0.00%    0.00%
 15  1     4    1  |1 0>          0.00%    3.67%    0.01%    0.18%   50.86%    0.00%    0.00%    0.01%
 16  1     5    1  |1 0>          0.00%    1.74%    0.00%    0.02%    1.42%    0.00%    0.03%    0.56%
 17  1     6    1  |1 0>          4.06%    0.01%    0.01%   44.31%    0.18%    0.00%    8.81%    0.01%
 18  1     7    1  |1 0>          0.00%    0.00%    0.00%    0.00%    0.00%    0.00%    0.00%    0.01%
 19  1     8    1  |1 0>          0.01%    0.01%    4.06%    0.00%    0.00%    6.47%    0.05%   46.17%
 20  1     9    1  |1 0>         42.87%    0.05%    0.18%    0.00%    0.00%    0.00%    0.00%    0.00%
 21  1    10    1  |1 0>          0.05%    0.00%    0.54%    0.00%    0.00%    0.00%    0.00%    0.00%
 22  1    11    1  |1 0>          0.20%    0.08%   42.38%    0.00%    0.00%    0.00%    0.00%    0.00%
 23  1     1    1  |1 1>-         0.00%    0.00%    0.00%    0.00%    0.00%    0.00%    0.00%    0.00%
 24  1     2    1  |1 1>-         0.04%    0.00%    0.00%    0.00%    0.00%    0.00%    0.00%    0.00%
 25  1     3    1  |1 1>-         0.00%    0.04%    0.00%    0.00%    0.00%    0.00%    0.00%    0.00%
 26  1     4    1  |1 1>-         0.00%    0.00%    0.03%    0.00%    0.00%    5.32%    0.05%   27.77%
 27  1     5    1  |1 1>-         0.02%    0.01%    5.38%    0.00%    0.00%   52.30%    0.01%    7.43%
 28  1     6    1  |1 1>-         0.00%    0.00%    0.00%    0.00%    0.00%    0.00%    0.00%    0.00%
 29  1     7    1  |1 1>-         4.06%    0.00%    0.01%    1.47%    0.00%    0.00%   51.78%    0.06%
 30  1     8    1  |1 1>-         0.00%    4.06%    0.01%    0.01%    0.52%    0.00%    0.02%    0.72%
 31  1     9    1  |1 1>-         0.06%    0.58%    0.00%    0.00%    0.00%    0.00%    0.00%    0.00%
 32  1    10    1  |1 1>-        42.75%    0.26%    0.13%    0.00%    0.00%    0.00%    0.00%    0.00%
 33  1    11    1  |1 1>-         0.24%   42.27%    0.05%    0.00%    0.00%    0.00%    0.00%    0.00%
 34  1     1    1  |0 0>          0.00%    0.00%    0.00%    0.00%    0.00%    0.00%    0.00%    0.00%
 35  1     2    1  |0 0>          0.00%    0.00%    0.00%    0.00%    0.00%    0.00%    0.00%    0.00%
 36  1     3    1  |0 0>          0.00%    0.00%    0.00%    0.00%    0.00%    0.00%    0.00%    0.00%
 37  1     4    1  |0 0>          0.00%    0.00%    0.00%    0.00%    0.00%    0.00%    0.00%    0.00%
 38  1     5    1  |0 0>          0.00%    0.00%    0.00%    0.00%    0.00%    0.00%    0.00%    0.00%
 39  1     6    1  |0 0>          0.00%    0.00%    0.00%    0.00%    0.00%    0.00%    0.00%    0.00%

   Total
 Nr Sym  State Sym Spin / Nr.     33       34       35       36       37       38       39

  1  1     1    1  |1 1>+         0.00%    0.00%    0.00%    0.00%    0.00%    0.00%    0.00%
  2  1     2    1  |1 1>+         0.00%    0.00%    0.00%    0.00%    0.00%    0.00%    0.00%
  3  1     3    1  |1 1>+         0.00%    0.00%    0.00%    0.00%    0.00%    0.00%    0.00%
  4  1     4    1  |1 1>+         0.00%    0.00%    2.12%    0.01%    0.18%    0.00%    0.00%
  5  1     5    1  |1 1>+         0.02%    0.00%    9.35%    0.03%    0.77%    0.00%    0.00%
  6  1     6    1  |1 1>+         6.25%    0.00%    0.02%    3.06%    0.02%    0.01%    0.01%
  7  1     7    1  |1 1>+         0.24%    0.00%    0.24%    0.03%    2.85%    0.00%    0.00%
  8  1     8    1  |1 1>+         0.01%   33.32%    0.00%    0.02%    0.00%    0.54%   11.89%
  9  1     9    1  |1 1>+         0.00%    0.00%    0.15%   40.05%    0.06%    0.31%    0.15%
 10  1    10    1  |1 1>+         0.00%    0.00%    2.99%    0.15%   36.93%    0.62%    0.01%
 11  1    11    1  |1 1>+         0.00%    0.00%    0.02%    0.20%    0.49%   50.74%    2.25%
 12  1     1    1  |1 0>          0.00%    0.00%    0.00%    0.00%    0.00%    0.00%    0.00%
 13  1     2    1  |1 0>          0.00%    0.00%    0.00%    0.00%    0.00%    0.00%    0.00%
 14  1     3    1  |1 0>          0.00%    0.00%    0.00%    0.00%    0.00%    0.00%    0.00%
 15  1     4    1  |1 0>          0.37%    0.00%    0.02%    3.95%    0.02%    0.01%    0.00%
 16  1     5    1  |1 0>         39.87%    0.01%    0.03%    8.33%    0.05%    0.02%    0.01%
 17  1     6    1  |1 0>          0.03%    0.00%    2.89%    0.00%    0.22%    0.00%    0.00%
 18  1     7    1  |1 0>          0.00%   33.32%    0.00%    0.00%    0.00%    6.87%    5.59%
 19  1     8    1  |1 0>          0.63%    0.01%    0.22%    0.03%    2.87%    0.00%    0.00%
 20  1     9    1  |1 0>          0.00%    0.00%   39.29%    0.12%    1.07%    0.01%    0.06%
 21  1    10    1  |1 0>          0.00%    0.00%    0.09%    0.21%    0.44%   23.87%   29.25%
 22  1    11    1  |1 0>          0.00%    0.00%    0.95%    0.26%   38.77%    0.28%    0.43%
 23  1     1    1  |1 1>-         0.00%    0.00%    0.00%    0.00%    0.00%    0.00%    0.00%
 24  1     2    1  |1 1>-         0.00%    0.00%    0.00%    0.00%    0.00%    0.00%    0.00%
 25  1     3    1  |1 1>-         0.00%    0.00%    0.00%    0.00%    0.00%    0.00%    0.00%
 26  1     4    1  |1 1>-         0.38%    0.00%    0.89%    0.11%   11.37%    0.00%    0.00%
 27  1     5    1  |1 1>-         0.10%    0.00%    0.01%    0.00%    0.07%    0.00%    0.00%
 28  1     6    1  |1 1>-         0.02%   33.32%    0.00%    0.03%    0.00%   11.24%    1.18%
 29  1     7    1  |1 1>-         0.02%    0.00%    2.88%    0.00%    0.23%    0.00%    0.00%
 30  1     8    1  |1 1>-        52.05%    0.02%    0.01%    3.08%    0.02%    0.00%    0.00%
 31  1     9    1  |1 1>-         0.00%    0.00%    0.06%    0.76%    0.01%    5.20%   47.82%
 32  1    10    1  |1 1>-         0.00%    0.00%   37.47%    0.19%    2.82%    0.03%    0.03%
 33  1    11    1  |1 1>-         0.00%    0.00%    0.05%   39.13%    0.47%    0.00%    1.06%
 34  1     1    1  |0 0>          0.00%    0.00%    0.00%    0.00%    0.00%    0.14%    0.11%
 35  1     2    1  |0 0>          0.00%    0.00%    0.00%    0.24%    0.00%    0.00%    0.00%
 36  1     3    1  |0 0>          0.00%    0.00%    0.02%    0.00%    0.22%    0.00%    0.00%
 37  1     4    1  |0 0>          0.00%    0.00%    0.23%    0.00%    0.02%    0.00%    0.00%
 38  1     5    1  |0 0>          0.00%    0.00%    0.00%    0.00%    0.00%    0.11%    0.14%
 39  1     6    1  |0 0>          0.00%    0.00%    0.00%    0.00%    0.00%    0.00%    0.00%



 **********************************************************************************************************************************
 DATASETS  * FILE   NREC   LENGTH (MB)   RECORD NAMES
              1      21       86.94       500      610      700      900      950      970     1000      129      960     1100   
                                          VAR    BASINP    GEOM    SYMINP    ZMAT    AOBASIS   BASIS     P2S    ABASIS      S 
                                         1400     1410     1420     1200     1210     1080     1700     1600     1650     1380   
                                           T        V       ECP      H0       H01     AOSYM    OPER      SMH    MOLCAS    JKOP   
                                         1700(1)
                                         OPER   

              2       7     5042.77       700     1000      520     2100     2140     5201     5203   
                                         GEOM     BASIS   MCVARS     RHF     MCSCF    MRCI     MRCI   

 PROGRAMS   *        TOTAL        CI        CI        CI     MULTI   RHF-SCF       INT
 CPU TIMES  *    101049.66  73912.18   4054.19  23051.74     12.01      4.30     15.01
 REAL TIME  *    102580.72 SEC
 DISK USED  *         5.01 GB (local),       41.16 GB (total)
 SF USED    *        37.69 GB
 GA USED    *         0.00 MB       (max)       0.00 MB       (current)
 **********************************************************************************************************************************

 CI/aug-cc-pWCV5Z-PP energy=   -192.492505906542

              CI              CI           MULTI         RHF-SCF
   -192.55813561   -192.44018584   -191.76864256   -191.86439724
 **********************************************************************************************************************************
 Molpro calculation terminated with 1 warning(s)
