
 Working directory              : /wrk/irikura/molpro.Fvk0fWIpW1/
 Global scratch directory       : /wrk/irikura/molpro.Fvk0fWIpW1/
 Wavefunction directory         : /home/irikura/wfu/
 Main file repository           : /wrk/irikura/molpro.Fvk0fWIpW1/

 id        : nistki

 Nodes            nprocs
 pn112695.nist.gov    8
 GA implementation: MPI file
 GA implementation (serial work in mppx): MPI file

 Using customized tuning parameters: mindgm=1; mindgv=20; mindgc=4; mindgr=1; noblas=0; minvec=7
 default implementation of scratch files=sf  


 Variables initialized (1040), CPU time= 0.00 sec
 ***,Pb SO-CI
 memory,3000,M;
 
 gprint,orbitals,civector;
 gprint,basis
 
 symmetry,xyz
 geometry={Pb};
 
 basis={
 ecp,pb,ECP60MDF;
 spdfghi,pb,aug-cc-pwCV5Z-PP;C; spdf,1,even,nprim=2,ratio=3.0;
 }
 
                                                                                 ! spherical anion orbitals (4S)
 {rhf; wf,charge=-1,sym=2,spin=3}
 
 NTRIP=12
 NSING=15
 
                                                                                 ! add 7p to active space
 {multi
     closed,6,3
     occ,7,9
     wf,charge=0,sym=1,spin=2;state,NTRIP;
     wf,charge=0,sym=1,spin=0;state,NSING;
     expec2,lxx,lyy,lzz;
 }
 table, energy, ll
 title, Energies and &lt;L**2&gt; values
 
 core,0,0
 
 {ci;wf,sym=1,spin=2;state,NTRIP; save,5201.2}
 hlsdiag = energd4
 {ci;wf,sym=1,spin=0;state,NSING; save,5101.2}
 hlsdiag(NTRIP+1) = energd4
 
 table,hlsdiag
 
 {ci;hlsmat,ecp,5201.2,5101.2;print,vls=0,hls=0}                                 !compute and diagonalize SO matrix
 Commands initialized (846), CPU time= 0.01 sec, 717 directives.
 Default parameters read. Elapsed time= 0.10 sec

 Checking input...
 Passed
1


                                         ***  PROGRAM SYSTEM MOLPRO  ***
                                       Copyright, TTI GmbH Stuttgart, 2015
                                    Version 2023.2 linked Fri Sep 22 03:27:09 2023


 **********************************************************************************************************************************
 LABEL *   Pb SO-CI                                                                                                                                                      
  (32 PROC) 64 bit mpp version                                                           DATE: 29-Nov-24          TIME: 17:09:07  
 **********************************************************************************************************************************

 SHA1:             3c61bfe44d37c8635c785372c339f5cbdd4e4b59
 **********************************************************************************************************************************

 Memory per process:      3000 MW
 Total memory per node:  24000 MW

 GA preallocation disabled
 GA check disabled

 Variable memory set to 3000.0 MW



 ZSYMEL=XYZ

 SETTING BASIS          =    USERDEF


 Recomputing integrals since basis changed


 Using spherical harmonics

 Library entry Pb   ECP ECP60MDF                 selected for group  1
 Library entry PB     S AUG-CC-PWCV5Z-PP     selected for orbital group  1
 Even tempered Pb S diffuse               selected for group 1    nprim= 2    centre=  0.004    ratio= 3.000    dratio= 1.000
 Library entry PB     P AUG-CC-PWCV5Z-PP     selected for orbital group  1
 Even tempered Pb P diffuse               selected for group 1    nprim= 2    centre=  0.003    ratio= 3.000    dratio= 1.000
 Library entry PB     D AUG-CC-PWCV5Z-PP     selected for orbital group  1
 Even tempered Pb D diffuse               selected for group 1    nprim= 2    centre=  0.006    ratio= 3.000    dratio= 1.000
 Library entry PB     F AUG-CC-PWCV5Z-PP     selected for orbital group  1
 Even tempered Pb F diffuse               selected for group 1    nprim= 2    centre=  0.011    ratio= 3.000    dratio= 1.000
 Library entry PB     G AUG-CC-PWCV5Z-PP     selected for orbital group  1
 Library entry PB     H AUG-CC-PWCV5Z-PP     selected for orbital group  1
 Library entry PB     I AUG-CC-PWCV5Z-PP     selected for orbital group  1


 PROGRAM * SEWARD (Integral evaluation for generally contracted gaussian basis sets)     Author: Roland Lindh, 1990

 Geometry written to block  1 of record 700

 Orientation using atomic masses  
 Molecule type: Atom
 User-specified symmetry elements: XYZ
 Symmetry elements: XYZ
 Rotational constants:       0.0000000      0.0000000      0.0000000 GHz  (calculated with average atomic masses)

 Point group  Ci  



 ATOMIC COORDINATES

 NR  ATOM    CHARGE       X              Y              Z

   1  PB     22.00    0.000000000    0.000000000    0.000000000


          PB  CORE POTENTIAL

          h POTENTIAL

 POWERS             2
 EXPONENTIALS   1.000000    
 COEFFICIENTS   0.000000    

          s - h POTENTIAL

 POWERS             2              2
 EXPONENTIALS   12.29630       8.632634    
 COEFFICIENTS   281.2855       62.52022    

          p - h POTENTIAL

 POWERS             2              2              2              2
 EXPONENTIALS   10.24179       8.924176       6.581342       6.255403    
 COEFFICIENTS   72.27690       144.5911       4.758693       9.940621    

          d - h POTENTIAL

 POWERS             2              2              2              2
 EXPONENTIALS   7.754336       7.720281       4.970264       4.563789    
 COEFFICIENTS   35.84851       53.72434       10.11526       14.83373    

          f - h POTENTIAL

 POWERS             2              2
 EXPONENTIALS   3.887512       3.811963    
 COEFFICIENTS   12.20989       16.19029    

          g - h POTENTIAL

 POWERS             2              2
 EXPONENTIALS   5.691577       5.715567    
 COEFFICIENTS  -9.096665      -11.53200    


          PB  SPIN-ORBIT POTENTIAL

          p POTENTIAL

 POWERS             2              2              2              2
 EXPONENTIALS   10.24179       8.924176       6.581342       6.255403    
 COEFFICIENTS  -144.5538       144.5911      -9.517385       9.940621    

          d POTENTIAL

 POWERS             2              2              2              2
 EXPONENTIALS   7.754336       7.720281       4.970264       4.563789    
 COEFFICIENTS  -35.84851       35.81623      -10.11526       9.889154    

          f POTENTIAL

 POWERS             2              2
 EXPONENTIALS   3.887512       3.811963    
 COEFFICIENTS  -8.139928       8.095145    

          g POTENTIAL

 POWERS             2              2
 EXPONENTIALS   5.691577       5.715567    
 COEFFICIENTS   4.548332      -4.612798    


 BASIS DATA

   Nr Sym  Nuc  Type         Exponents   Contraction coefficients

    1.1 Ag    1  1s       24689.500000     0.000004    0.000000    0.000000    0.000000    0.000000    0.000000
                                           0.000000
    2.1 Ag                 4473.230000     0.000023    0.000000    0.000000    0.000000    0.000000    0.000000
                                           0.000000
    3.1 Ag                 1061.660000     0.000114    0.000000    0.000000    0.000000    0.000000    0.000000
                                           0.000000
    4.1 Ag                  279.239000     0.000368    0.000000    0.000000    0.000000    0.000000    0.000000
                                           0.000000
    5.1 Ag                   34.754200     0.023086    0.000000    0.000000    0.000000    0.000000    0.000000
                                           0.000000
    6.1 Ag                   21.709700    -0.204498    0.000000    0.000000    0.000000    0.000000    0.000000
                                           0.000000
    7.1 Ag                   13.563700     0.712561    1.000000    0.000000    0.000000    0.000000    0.000000
                                           0.000000
                              8.473470    -0.653960    0.000000    0.000000    0.000000    0.000000    0.000000
                                           0.000000
                              5.119560    -0.601024    0.000000    0.000000    0.000000    0.000000    0.000000
                                           0.000000
                              2.119960     0.586466    0.000000    0.000000    0.000000    0.000000    0.000000
                                           0.000000
                              1.255290     0.657512    0.000000    0.000000    0.000000    0.000000    0.000000
                                           0.000000
                              0.720284     0.237746    0.000000    1.000000    0.000000    0.000000    0.000000
                                           0.000000
                              0.377802     0.021597    0.000000    0.000000    1.000000    0.000000    0.000000
                                           0.000000
                              0.197699    -0.000066    0.000000    0.000000    0.000000    1.000000    0.000000
                                           0.000000
                              0.098623     0.000212    0.000000    0.000000    0.000000    0.000000    1.000000
                                           0.000000
                              0.047037    -0.000025    0.000000    0.000000    0.000000    0.000000    0.000000
                                           1.000000
    8.1 Ag    1  1s           6.347500     1.000000
    9.1 Ag    1  1s           3.964500     1.000000
   10.1 Ag    1  1s           2.476100     1.000000
   11.1 Ag    1  1s           1.546500     1.000000
   12.1 Ag    1  1s           0.019000     1.000000
   13.1 Ag    1  1s           0.006333     1.000000
   14.1 Ag    1  1s           0.002111     1.000000
   15.1 Ag    1  3d0        345.372000     0.000009
                            117.644000     0.000065
                             46.165300     0.000337
                             12.561400     0.011443
                              6.710330    -0.075307
                              2.582300     0.180008
                              1.572080     0.298518
                              0.939445     0.321561
                              0.541633     0.242277
                              0.300588     0.115501
                              0.159712     0.028593
                              0.072600     0.002184
   16.1 Ag    1  3d2-       345.372000     0.000009
                            117.644000     0.000065
                             46.165300     0.000337
                             12.561400     0.011443
                              6.710330    -0.075307
                              2.582300     0.180008
                              1.572080     0.298518
                              0.939445     0.321561
                              0.541633     0.242277
                              0.300588     0.115501
                              0.159712     0.028593
                              0.072600     0.002184
   17.1 Ag    1  3d1+       345.372000     0.000009
                            117.644000     0.000065
                             46.165300     0.000337
                             12.561400     0.011443
                              6.710330    -0.075307
                              2.582300     0.180008
                              1.572080     0.298518
                              0.939445     0.321561
                              0.541633     0.242277
                              0.300588     0.115501
                              0.159712     0.028593
                              0.072600     0.002184
   18.1 Ag    1  3d2+       345.372000     0.000009
                            117.644000     0.000065
                             46.165300     0.000337
                             12.561400     0.011443
                              6.710330    -0.075307
                              2.582300     0.180008
                              1.572080     0.298518
                              0.939445     0.321561
                              0.541633     0.242277
                              0.300588     0.115501
                              0.159712     0.028593
                              0.072600     0.002184
   19.1 Ag    1  3d1-       345.372000     0.000009
                            117.644000     0.000065
                             46.165300     0.000337
                             12.561400     0.011443
                              6.710330    -0.075307
                              2.582300     0.180008
                              1.572080     0.298518
                              0.939445     0.321561
                              0.541633     0.242277
                              0.300588     0.115501
                              0.159712     0.028593
                              0.072600     0.002184
   20.1 Ag    1  3d0        345.372000     0.000000
                            117.644000     0.000000
                             46.165300     0.000000
                             12.561400     0.000000
                              6.710330     0.000000
                              2.582300     0.000000
                              1.572080     0.000000
                              0.939445     0.000000
                              0.541633     1.000000
                              0.300588     0.000000
                              0.159712     0.000000
                              0.072600     0.000000
   21.1 Ag    1  3d2-       345.372000     0.000000
                            117.644000     0.000000
                             46.165300     0.000000
                             12.561400     0.000000
                              6.710330     0.000000
                              2.582300     0.000000
                              1.572080     0.000000
                              0.939445     0.000000
                              0.541633     1.000000
                              0.300588     0.000000
                              0.159712     0.000000
                              0.072600     0.000000
   22.1 Ag    1  3d1+       345.372000     0.000000
                            117.644000     0.000000
                             46.165300     0.000000
                             12.561400     0.000000
                              6.710330     0.000000
                              2.582300     0.000000
                              1.572080     0.000000
                              0.939445     0.000000
                              0.541633     1.000000
                              0.300588     0.000000
                              0.159712     0.000000
                              0.072600     0.000000
   23.1 Ag    1  3d2+       345.372000     0.000000
                            117.644000     0.000000
                             46.165300     0.000000
                             12.561400     0.000000
                              6.710330     0.000000
                              2.582300     0.000000
                              1.572080     0.000000
                              0.939445     0.000000
                              0.541633     1.000000
                              0.300588     0.000000
                              0.159712     0.000000
                              0.072600     0.000000
   24.1 Ag    1  3d1-       345.372000     0.000000
                            117.644000     0.000000
                             46.165300     0.000000
                             12.561400     0.000000
                              6.710330     0.000000
                              2.582300     0.000000
                              1.572080     0.000000
                              0.939445     0.000000
                              0.541633     1.000000
                              0.300588     0.000000
                              0.159712     0.000000
                              0.072600     0.000000
   25.1 Ag    1  3d0        345.372000     0.000000
                            117.644000     0.000000
                             46.165300     0.000000
                             12.561400     0.000000
                              6.710330     0.000000
                              2.582300     0.000000
                              1.572080     0.000000
                              0.939445     0.000000
                              0.541633     0.000000
                              0.300588     1.000000
                              0.159712     0.000000
                              0.072600     0.000000
   26.1 Ag    1  3d2-       345.372000     0.000000
                            117.644000     0.000000
                             46.165300     0.000000
                             12.561400     0.000000
                              6.710330     0.000000
                              2.582300     0.000000
                              1.572080     0.000000
                              0.939445     0.000000
                              0.541633     0.000000
                              0.300588     1.000000
                              0.159712     0.000000
                              0.072600     0.000000
   27.1 Ag    1  3d1+       345.372000     0.000000
                            117.644000     0.000000
                             46.165300     0.000000
                             12.561400     0.000000
                              6.710330     0.000000
                              2.582300     0.000000
                              1.572080     0.000000
                              0.939445     0.000000
                              0.541633     0.000000
                              0.300588     1.000000
                              0.159712     0.000000
                              0.072600     0.000000
   28.1 Ag    1  3d2+       345.372000     0.000000
                            117.644000     0.000000
                             46.165300     0.000000
                             12.561400     0.000000
                              6.710330     0.000000
                              2.582300     0.000000
                              1.572080     0.000000
                              0.939445     0.000000
                              0.541633     0.000000
                              0.300588     1.000000
                              0.159712     0.000000
                              0.072600     0.000000
   29.1 Ag    1  3d1-       345.372000     0.000000
                            117.644000     0.000000
                             46.165300     0.000000
                             12.561400     0.000000
                              6.710330     0.000000
                              2.582300     0.000000
                              1.572080     0.000000
                              0.939445     0.000000
                              0.541633     0.000000
                              0.300588     1.000000
                              0.159712     0.000000
                              0.072600     0.000000
   30.1 Ag    1  3d0        345.372000     0.000000
                            117.644000     0.000000
                             46.165300     0.000000
                             12.561400     0.000000
                              6.710330     0.000000
                              2.582300     0.000000
                              1.572080     0.000000
                              0.939445     0.000000
                              0.541633     0.000000
                              0.300588     0.000000
                              0.159712     1.000000
                              0.072600     0.000000
   31.1 Ag    1  3d2-       345.372000     0.000000
                            117.644000     0.000000
                             46.165300     0.000000
                             12.561400     0.000000
                              6.710330     0.000000
                              2.582300     0.000000
                              1.572080     0.000000
                              0.939445     0.000000
                              0.541633     0.000000
                              0.300588     0.000000
                              0.159712     1.000000
                              0.072600     0.000000
   32.1 Ag    1  3d1+       345.372000     0.000000
                            117.644000     0.000000
                             46.165300     0.000000
                             12.561400     0.000000
                              6.710330     0.000000
                              2.582300     0.000000
                              1.572080     0.000000
                              0.939445     0.000000
                              0.541633     0.000000
                              0.300588     0.000000
                              0.159712     1.000000
                              0.072600     0.000000
   33.1 Ag    1  3d2+       345.372000     0.000000
                            117.644000     0.000000
                             46.165300     0.000000
                             12.561400     0.000000
                              6.710330     0.000000
                              2.582300     0.000000
                              1.572080     0.000000
                              0.939445     0.000000
                              0.541633     0.000000
                              0.300588     0.000000
                              0.159712     1.000000
                              0.072600     0.000000
   34.1 Ag    1  3d1-       345.372000     0.000000
                            117.644000     0.000000
                             46.165300     0.000000
                             12.561400     0.000000
                              6.710330     0.000000
                              2.582300     0.000000
                              1.572080     0.000000
                              0.939445     0.000000
                              0.541633     0.000000
                              0.300588     0.000000
                              0.159712     1.000000
                              0.072600     0.000000
   35.1 Ag    1  3d0        345.372000     0.000000
                            117.644000     0.000000
                             46.165300     0.000000
                             12.561400     0.000000
                              6.710330     0.000000
                              2.582300     0.000000
                              1.572080     0.000000
                              0.939445     0.000000
                              0.541633     0.000000
                              0.300588     0.000000
                              0.159712     0.000000
                              0.072600     1.000000
   36.1 Ag    1  3d2-       345.372000     0.000000
                            117.644000     0.000000
                             46.165300     0.000000
                             12.561400     0.000000
                              6.710330     0.000000
                              2.582300     0.000000
                              1.572080     0.000000
                              0.939445     0.000000
                              0.541633     0.000000
                              0.300588     0.000000
                              0.159712     0.000000
                              0.072600     1.000000
   37.1 Ag    1  3d1+       345.372000     0.000000
                            117.644000     0.000000
                             46.165300     0.000000
                             12.561400     0.000000
                              6.710330     0.000000
                              2.582300     0.000000
                              1.572080     0.000000
                              0.939445     0.000000
                              0.541633     0.000000
                              0.300588     0.000000
                              0.159712     0.000000
                              0.072600     1.000000
   38.1 Ag    1  3d2+       345.372000     0.000000
                            117.644000     0.000000
                             46.165300     0.000000
                             12.561400     0.000000
                              6.710330     0.000000
                              2.582300     0.000000
                              1.572080     0.000000
                              0.939445     0.000000
                              0.541633     0.000000
                              0.300588     0.000000
                              0.159712     0.000000
                              0.072600     1.000000
   39.1 Ag    1  3d1-       345.372000     0.000000
                            117.644000     0.000000
                             46.165300     0.000000
                             12.561400     0.000000
                              6.710330     0.000000
                              2.582300     0.000000
                              1.572080     0.000000
                              0.939445     0.000000
                              0.541633     0.000000
                              0.300588     0.000000
                              0.159712     0.000000
                              0.072600     1.000000
   40.1 Ag    1  3d0          6.752400     1.000000
   41.1 Ag    1  3d2-         6.752400     1.000000
   42.1 Ag    1  3d1+         6.752400     1.000000
   43.1 Ag    1  3d2+         6.752400     1.000000
   44.1 Ag    1  3d1-         6.752400     1.000000
   45.1 Ag    1  3d0          3.783000     1.000000
   46.1 Ag    1  3d2-         3.783000     1.000000
   47.1 Ag    1  3d1+         3.783000     1.000000
   48.1 Ag    1  3d2+         3.783000     1.000000
   49.1 Ag    1  3d1-         3.783000     1.000000
   50.1 Ag    1  3d0          2.119400     1.000000
   51.1 Ag    1  3d2-         2.119400     1.000000
   52.1 Ag    1  3d1+         2.119400     1.000000
   53.1 Ag    1  3d2+         2.119400     1.000000
   54.1 Ag    1  3d1-         2.119400     1.000000
   55.1 Ag    1  3d0          1.187400     1.000000
   56.1 Ag    1  3d2-         1.187400     1.000000
   57.1 Ag    1  3d1+         1.187400     1.000000
   58.1 Ag    1  3d2+         1.187400     1.000000
   59.1 Ag    1  3d1-         1.187400     1.000000
   60.1 Ag    1  3d0          0.029400     1.000000
   61.1 Ag    1  3d2-         0.029400     1.000000
   62.1 Ag    1  3d1+         0.029400     1.000000
   63.1 Ag    1  3d2+         0.029400     1.000000
   64.1 Ag    1  3d1-         0.029400     1.000000
   65.1 Ag    1  3d0          0.009800     1.000000
   66.1 Ag    1  3d2-         0.009800     1.000000
   67.1 Ag    1  3d1+         0.009800     1.000000
   68.1 Ag    1  3d2+         0.009800     1.000000
   69.1 Ag    1  3d1-         0.009800     1.000000
   70.1 Ag    1  3d0          0.003267     1.000000
   71.1 Ag    1  3d2-         0.003267     1.000000
   72.1 Ag    1  3d1+         0.003267     1.000000
   73.1 Ag    1  3d2+         0.003267     1.000000
   74.1 Ag    1  3d1-         0.003267     1.000000
   75.1 Ag    1  5g0          0.536800     1.000000
   76.1 Ag    1  5g2-         0.536800     1.000000
   77.1 Ag    1  5g1+         0.536800     1.000000
   78.1 Ag    1  5g4+         0.536800     1.000000
   79.1 Ag    1  5g1-         0.536800     1.000000
   80.1 Ag    1  5g2+         0.536800     1.000000
   81.1 Ag    1  5g4-         0.536800     1.000000
   82.1 Ag    1  5g3+         0.536800     1.000000
   83.1 Ag    1  5g3-         0.536800     1.000000
   84.1 Ag    1  5g0          0.255000     1.000000
   85.1 Ag    1  5g2-         0.255000     1.000000
   86.1 Ag    1  5g1+         0.255000     1.000000
   87.1 Ag    1  5g4+         0.255000     1.000000
   88.1 Ag    1  5g1-         0.255000     1.000000
   89.1 Ag    1  5g2+         0.255000     1.000000
   90.1 Ag    1  5g4-         0.255000     1.000000
   91.1 Ag    1  5g3+         0.255000     1.000000
   92.1 Ag    1  5g3-         0.255000     1.000000
   93.1 Ag    1  5g0          4.077400     1.000000
   94.1 Ag    1  5g2-         4.077400     1.000000
   95.1 Ag    1  5g1+         4.077400     1.000000
   96.1 Ag    1  5g4+         4.077400     1.000000
   97.1 Ag    1  5g1-         4.077400     1.000000
   98.1 Ag    1  5g2+         4.077400     1.000000
   99.1 Ag    1  5g4-         4.077400     1.000000
  100.1 Ag    1  5g3+         4.077400     1.000000
  101.1 Ag    1  5g3-         4.077400     1.000000
  102.1 Ag    1  5g0          2.158500     1.000000
  103.1 Ag    1  5g2-         2.158500     1.000000
  104.1 Ag    1  5g1+         2.158500     1.000000
  105.1 Ag    1  5g4+         2.158500     1.000000
  106.1 Ag    1  5g1-         2.158500     1.000000
  107.1 Ag    1  5g2+         2.158500     1.000000
  108.1 Ag    1  5g4-         2.158500     1.000000
  109.1 Ag    1  5g3+         2.158500     1.000000
  110.1 Ag    1  5g3-         2.158500     1.000000
  111.1 Ag    1  5g0          1.142700     1.000000
  112.1 Ag    1  5g2-         1.142700     1.000000
  113.1 Ag    1  5g1+         1.142700     1.000000
  114.1 Ag    1  5g4+         1.142700     1.000000
  115.1 Ag    1  5g1-         1.142700     1.000000
  116.1 Ag    1  5g2+         1.142700     1.000000
  117.1 Ag    1  5g4-         1.142700     1.000000
  118.1 Ag    1  5g3+         1.142700     1.000000
  119.1 Ag    1  5g3-         1.142700     1.000000
  120.1 Ag    1  5g0          0.115600     1.000000
  121.1 Ag    1  5g2-         0.115600     1.000000
  122.1 Ag    1  5g1+         0.115600     1.000000
  123.1 Ag    1  5g4+         0.115600     1.000000
  124.1 Ag    1  5g1-         0.115600     1.000000
  125.1 Ag    1  5g2+         0.115600     1.000000
  126.1 Ag    1  5g4-         0.115600     1.000000
  127.1 Ag    1  5g3+         0.115600     1.000000
  128.1 Ag    1  5g3-         0.115600     1.000000
  129.1 Ag    1  7i6+         1.151500     1.000000
  130.1 Ag    1  7i2-         1.151500     1.000000
  131.1 Ag    1  7i5+         1.151500     1.000000
  132.1 Ag    1  7i4+         1.151500     1.000000
  133.1 Ag    1  7i5-         1.151500     1.000000
  134.1 Ag    1  7i2+         1.151500     1.000000
  135.1 Ag    1  7i6-         1.151500     1.000000
  136.1 Ag    1  7i3+         1.151500     1.000000
  137.1 Ag    1  7i4-         1.151500     1.000000
  138.1 Ag    1  7i0          1.151500     1.000000
  139.1 Ag    1  7i3-         1.151500     1.000000
  140.1 Ag    1  7i1-         1.151500     1.000000
  141.1 Ag    1  7i1+         1.151500     1.000000
    1.2 Au    1  2px        240.589000     0.000070
                             39.776800     0.001564
                             20.427900    -0.026493
                             12.740500     0.158841
                              7.551900    -0.327408
                              4.720030    -0.105749
                              2.371520     0.419243
                              1.298240     0.539719
                              0.681070     0.246492
                              0.317650     0.030981
                              0.151398     0.000337
                              0.070310     0.000671
                              0.031845    -0.000084
    2.2 Au    1  2py        240.589000     0.000070
                             39.776800     0.001564
                             20.427900    -0.026493
                             12.740500     0.158841
                              7.551900    -0.327408
                              4.720030    -0.105749
                              2.371520     0.419243
                              1.298240     0.539719
                              0.681070     0.246492
                              0.317650     0.030981
                              0.151398     0.000337
                              0.070310     0.000671
                              0.031845    -0.000084
    3.2 Au    1  2pz        240.589000     0.000070
                             39.776800     0.001564
                             20.427900    -0.026493
                             12.740500     0.158841
                              7.551900    -0.327408
                              4.720030    -0.105749
                              2.371520     0.419243
                              1.298240     0.539719
                              0.681070     0.246492
                              0.317650     0.030981
                              0.151398     0.000337
                              0.070310     0.000671
                              0.031845    -0.000084
    4.2 Au    1  2px        240.589000     0.000000
                             39.776800     0.000000
                             20.427900     0.000000
                             12.740500     1.000000
                              7.551900     0.000000
                              4.720030     0.000000
                              2.371520     0.000000
                              1.298240     0.000000
                              0.681070     0.000000
                              0.317650     0.000000
                              0.151398     0.000000
                              0.070310     0.000000
                              0.031845     0.000000
    5.2 Au    1  2py        240.589000     0.000000
                             39.776800     0.000000
                             20.427900     0.000000
                             12.740500     1.000000
                              7.551900     0.000000
                              4.720030     0.000000
                              2.371520     0.000000
                              1.298240     0.000000
                              0.681070     0.000000
                              0.317650     0.000000
                              0.151398     0.000000
                              0.070310     0.000000
                              0.031845     0.000000
    6.2 Au    1  2pz        240.589000     0.000000
                             39.776800     0.000000
                             20.427900     0.000000
                             12.740500     1.000000
                              7.551900     0.000000
                              4.720030     0.000000
                              2.371520     0.000000
                              1.298240     0.000000
                              0.681070     0.000000
                              0.317650     0.000000
                              0.151398     0.000000
                              0.070310     0.000000
                              0.031845     0.000000
    7.2 Au    1  2px        240.589000     0.000000
                             39.776800     0.000000
                             20.427900     0.000000
                             12.740500     0.000000
                              7.551900     0.000000
                              4.720030     0.000000
                              2.371520     0.000000
                              1.298240     0.000000
                              0.681070     1.000000
                              0.317650     0.000000
                              0.151398     0.000000
                              0.070310     0.000000
                              0.031845     0.000000
    8.2 Au    1  2py        240.589000     0.000000
                             39.776800     0.000000
                             20.427900     0.000000
                             12.740500     0.000000
                              7.551900     0.000000
                              4.720030     0.000000
                              2.371520     0.000000
                              1.298240     0.000000
                              0.681070     1.000000
                              0.317650     0.000000
                              0.151398     0.000000
                              0.070310     0.000000
                              0.031845     0.000000
    9.2 Au    1  2pz        240.589000     0.000000
                             39.776800     0.000000
                             20.427900     0.000000
                             12.740500     0.000000
                              7.551900     0.000000
                              4.720030     0.000000
                              2.371520     0.000000
                              1.298240     0.000000
                              0.681070     1.000000
                              0.317650     0.000000
                              0.151398     0.000000
                              0.070310     0.000000
                              0.031845     0.000000
   10.2 Au    1  2px        240.589000     0.000000
                             39.776800     0.000000
                             20.427900     0.000000
                             12.740500     0.000000
                              7.551900     0.000000
                              4.720030     0.000000
                              2.371520     0.000000
                              1.298240     0.000000
                              0.681070     0.000000
                              0.317650     1.000000
                              0.151398     0.000000
                              0.070310     0.000000
                              0.031845     0.000000
   11.2 Au    1  2py        240.589000     0.000000
                             39.776800     0.000000
                             20.427900     0.000000
                             12.740500     0.000000
                              7.551900     0.000000
                              4.720030     0.000000
                              2.371520     0.000000
                              1.298240     0.000000
                              0.681070     0.000000
                              0.317650     1.000000
                              0.151398     0.000000
                              0.070310     0.000000
                              0.031845     0.000000
   12.2 Au    1  2pz        240.589000     0.000000
                             39.776800     0.000000
                             20.427900     0.000000
                             12.740500     0.000000
                              7.551900     0.000000
                              4.720030     0.000000
                              2.371520     0.000000
                              1.298240     0.000000
                              0.681070     0.000000
                              0.317650     1.000000
                              0.151398     0.000000
                              0.070310     0.000000
                              0.031845     0.000000
   13.2 Au    1  2px        240.589000     0.000000
                             39.776800     0.000000
                             20.427900     0.000000
                             12.740500     0.000000
                              7.551900     0.000000
                              4.720030     0.000000
                              2.371520     0.000000
                              1.298240     0.000000
                              0.681070     0.000000
                              0.317650     0.000000
                              0.151398     1.000000
                              0.070310     0.000000
                              0.031845     0.000000
   14.2 Au    1  2py        240.589000     0.000000
                             39.776800     0.000000
                             20.427900     0.000000
                             12.740500     0.000000
                              7.551900     0.000000
                              4.720030     0.000000
                              2.371520     0.000000
                              1.298240     0.000000
                              0.681070     0.000000
                              0.317650     0.000000
                              0.151398     1.000000
                              0.070310     0.000000
                              0.031845     0.000000
   15.2 Au    1  2pz        240.589000     0.000000
                             39.776800     0.000000
                             20.427900     0.000000
                             12.740500     0.000000
                              7.551900     0.000000
                              4.720030     0.000000
                              2.371520     0.000000
                              1.298240     0.000000
                              0.681070     0.000000
                              0.317650     0.000000
                              0.151398     1.000000
                              0.070310     0.000000
                              0.031845     0.000000
   16.2 Au    1  2px        240.589000     0.000000
                             39.776800     0.000000
                             20.427900     0.000000
                             12.740500     0.000000
                              7.551900     0.000000
                              4.720030     0.000000
                              2.371520     0.000000
                              1.298240     0.000000
                              0.681070     0.000000
                              0.317650     0.000000
                              0.151398     0.000000
                              0.070310     1.000000
                              0.031845     0.000000
   17.2 Au    1  2py        240.589000     0.000000
                             39.776800     0.000000
                             20.427900     0.000000
                             12.740500     0.000000
                              7.551900     0.000000
                              4.720030     0.000000
                              2.371520     0.000000
                              1.298240     0.000000
                              0.681070     0.000000
                              0.317650     0.000000
                              0.151398     0.000000
                              0.070310     1.000000
                              0.031845     0.000000
   18.2 Au    1  2pz        240.589000     0.000000
                             39.776800     0.000000
                             20.427900     0.000000
                             12.740500     0.000000
                              7.551900     0.000000
                              4.720030     0.000000
                              2.371520     0.000000
                              1.298240     0.000000
                              0.681070     0.000000
                              0.317650     0.000000
                              0.151398     0.000000
                              0.070310     1.000000
                              0.031845     0.000000
   19.2 Au    1  2px        240.589000     0.000000
                             39.776800     0.000000
                             20.427900     0.000000
                             12.740500     0.000000
                              7.551900     0.000000
                              4.720030     0.000000
                              2.371520     0.000000
                              1.298240     0.000000
                              0.681070     0.000000
                              0.317650     0.000000
                              0.151398     0.000000
                              0.070310     0.000000
                              0.031845     1.000000
   20.2 Au    1  2py        240.589000     0.000000
                             39.776800     0.000000
                             20.427900     0.000000
                             12.740500     0.000000
                              7.551900     0.000000
                              4.720030     0.000000
                              2.371520     0.000000
                              1.298240     0.000000
                              0.681070     0.000000
                              0.317650     0.000000
                              0.151398     0.000000
                              0.070310     0.000000
                              0.031845     1.000000
   21.2 Au    1  2pz        240.589000     0.000000
                             39.776800     0.000000
                             20.427900     0.000000
                             12.740500     0.000000
                              7.551900     0.000000
                              4.720030     0.000000
                              2.371520     0.000000
                              1.298240     0.000000
                              0.681070     0.000000
                              0.317650     0.000000
                              0.151398     0.000000
                              0.070310     0.000000
                              0.031845     1.000000
   22.2 Au    1  2px          6.662600     1.000000
   23.2 Au    1  2py          6.662600     1.000000
   24.2 Au    1  2pz          6.662600     1.000000
   25.2 Au    1  2px          3.852100     1.000000
   26.2 Au    1  2py          3.852100     1.000000
   27.2 Au    1  2pz          3.852100     1.000000
   28.2 Au    1  2px          2.227200     1.000000
   29.2 Au    1  2py          2.227200     1.000000
   30.2 Au    1  2pz          2.227200     1.000000
   31.2 Au    1  2px          1.287700     1.000000
   32.2 Au    1  2py          1.287700     1.000000
   33.2 Au    1  2pz          1.287700     1.000000
   34.2 Au    1  2px          0.013000     1.000000
   35.2 Au    1  2py          0.013000     1.000000
   36.2 Au    1  2pz          0.013000     1.000000
   37.2 Au    1  2px          0.004333     1.000000
   38.2 Au    1  2py          0.004333     1.000000
   39.2 Au    1  2pz          0.004333     1.000000
   40.2 Au    1  2px          0.001444     1.000000
   41.2 Au    1  2py          0.001444     1.000000
   42.2 Au    1  2pz          0.001444     1.000000
   43.2 Au    1  4f1+         0.532900     1.000000
   44.2 Au    1  4f1-         0.532900     1.000000
   45.2 Au    1  4f0          0.532900     1.000000
   46.2 Au    1  4f3+         0.532900     1.000000
   47.2 Au    1  4f2-         0.532900     1.000000
   48.2 Au    1  4f3-         0.532900     1.000000
   49.2 Au    1  4f2+         0.532900     1.000000
   50.2 Au    1  4f1+         0.267700     1.000000
   51.2 Au    1  4f1-         0.267700     1.000000
   52.2 Au    1  4f0          0.267700     1.000000
   53.2 Au    1  4f3+         0.267700     1.000000
   54.2 Au    1  4f2-         0.267700     1.000000
   55.2 Au    1  4f3-         0.267700     1.000000
   56.2 Au    1  4f2+         0.267700     1.000000
   57.2 Au    1  4f1+         0.134500     1.000000
   58.2 Au    1  4f1-         0.134500     1.000000
   59.2 Au    1  4f0          0.134500     1.000000
   60.2 Au    1  4f3+         0.134500     1.000000
   61.2 Au    1  4f2-         0.134500     1.000000
   62.2 Au    1  4f3-         0.134500     1.000000
   63.2 Au    1  4f2+         0.134500     1.000000
   64.2 Au    1  4f1+         5.435300     1.000000
   65.2 Au    1  4f1-         5.435300     1.000000
   66.2 Au    1  4f0          5.435300     1.000000
   67.2 Au    1  4f3+         5.435300     1.000000
   68.2 Au    1  4f2-         5.435300     1.000000
   69.2 Au    1  4f3-         5.435300     1.000000
   70.2 Au    1  4f2+         5.435300     1.000000
   71.2 Au    1  4f1+         3.153900     1.000000
   72.2 Au    1  4f1-         3.153900     1.000000
   73.2 Au    1  4f0          3.153900     1.000000
   74.2 Au    1  4f3+         3.153900     1.000000
   75.2 Au    1  4f2-         3.153900     1.000000
   76.2 Au    1  4f3-         3.153900     1.000000
   77.2 Au    1  4f2+         3.153900     1.000000
   78.2 Au    1  4f1+         1.830000     1.000000
   79.2 Au    1  4f1-         1.830000     1.000000
   80.2 Au    1  4f0          1.830000     1.000000
   81.2 Au    1  4f3+         1.830000     1.000000
   82.2 Au    1  4f2-         1.830000     1.000000
   83.2 Au    1  4f3-         1.830000     1.000000
   84.2 Au    1  4f2+         1.830000     1.000000
   85.2 Au    1  4f1+         1.061900     1.000000
   86.2 Au    1  4f1-         1.061900     1.000000
   87.2 Au    1  4f0          1.061900     1.000000
   88.2 Au    1  4f3+         1.061900     1.000000
   89.2 Au    1  4f2-         1.061900     1.000000
   90.2 Au    1  4f3-         1.061900     1.000000
   91.2 Au    1  4f2+         1.061900     1.000000
   92.2 Au    1  4f1+         0.058500     1.000000
   93.2 Au    1  4f1-         0.058500     1.000000
   94.2 Au    1  4f0          0.058500     1.000000
   95.2 Au    1  4f3+         0.058500     1.000000
   96.2 Au    1  4f2-         0.058500     1.000000
   97.2 Au    1  4f3-         0.058500     1.000000
   98.2 Au    1  4f2+         0.058500     1.000000
   99.2 Au    1  4f1+         0.019500     1.000000
  100.2 Au    1  4f1-         0.019500     1.000000
  101.2 Au    1  4f0          0.019500     1.000000
  102.2 Au    1  4f3+         0.019500     1.000000
  103.2 Au    1  4f2-         0.019500     1.000000
  104.2 Au    1  4f3-         0.019500     1.000000
  105.2 Au    1  4f2+         0.019500     1.000000
  106.2 Au    1  4f1+         0.006500     1.000000
  107.2 Au    1  4f1-         0.006500     1.000000
  108.2 Au    1  4f0          0.006500     1.000000
  109.2 Au    1  4f3+         0.006500     1.000000
  110.2 Au    1  4f2-         0.006500     1.000000
  111.2 Au    1  4f3-         0.006500     1.000000
  112.2 Au    1  4f2+         0.006500     1.000000
  113.2 Au    1  6h1+         0.483100     1.000000
  114.2 Au    1  6h1-         0.483100     1.000000
  115.2 Au    1  6h2+         0.483100     1.000000
  116.2 Au    1  6h3+         0.483100     1.000000
  117.2 Au    1  6h4-         0.483100     1.000000
  118.2 Au    1  6h3-         0.483100     1.000000
  119.2 Au    1  6h4+         0.483100     1.000000
  120.2 Au    1  6h5-         0.483100     1.000000
  121.2 Au    1  6h0          0.483100     1.000000
  122.2 Au    1  6h5+         0.483100     1.000000
  123.2 Au    1  6h2-         0.483100     1.000000
  124.2 Au    1  6h1+         3.565800     1.000000
  125.2 Au    1  6h1-         3.565800     1.000000
  126.2 Au    1  6h2+         3.565800     1.000000
  127.2 Au    1  6h3+         3.565800     1.000000
  128.2 Au    1  6h4-         3.565800     1.000000
  129.2 Au    1  6h3-         3.565800     1.000000
  130.2 Au    1  6h4+         3.565800     1.000000
  131.2 Au    1  6h5-         3.565800     1.000000
  132.2 Au    1  6h0          3.565800     1.000000
  133.2 Au    1  6h5+         3.565800     1.000000
  134.2 Au    1  6h2-         3.565800     1.000000
  135.2 Au    1  6h1+         1.216900     1.000000
  136.2 Au    1  6h1-         1.216900     1.000000
  137.2 Au    1  6h2+         1.216900     1.000000
  138.2 Au    1  6h3+         1.216900     1.000000
  139.2 Au    1  6h4-         1.216900     1.000000
  140.2 Au    1  6h3-         1.216900     1.000000
  141.2 Au    1  6h4+         1.216900     1.000000
  142.2 Au    1  6h5-         1.216900     1.000000
  143.2 Au    1  6h0          1.216900     1.000000
  144.2 Au    1  6h5+         1.216900     1.000000
  145.2 Au    1  6h2-         1.216900     1.000000
  146.2 Au    1  6h1+         0.259300     1.000000
  147.2 Au    1  6h1-         0.259300     1.000000
  148.2 Au    1  6h2+         0.259300     1.000000
  149.2 Au    1  6h3+         0.259300     1.000000
  150.2 Au    1  6h4-         0.259300     1.000000
  151.2 Au    1  6h3-         0.259300     1.000000
  152.2 Au    1  6h4+         0.259300     1.000000
  153.2 Au    1  6h5-         0.259300     1.000000
  154.2 Au    1  6h0          0.259300     1.000000
  155.2 Au    1  6h5+         0.259300     1.000000
  156.2 Au    1  6h2-         0.259300     1.000000

 NUCLEAR CHARGE:                   22
 NUMBER OF PRIMITIVE AOS:         499
 NUMBER OF SYMMETRY AOS:          359
 NUMBER OF CONTRACTIONS:          297   (  141Ag  +  156Au  )
 NUMBER OF INNER CORE ORBITALS:     0   (    0Ag  +    0Au  )
 NUMBER OF OUTER CORE ORBITALS:     9   (    6Ag  +    3Au  )
 NUMBER OF VALENCE ORBITALS:        4   (    1Ag  +    3Au  )


 LX: Ag           LY: Ag           LZ: Ag 


 NUCLEAR REPULSION ENERGY    0.00000000

 EXTRA SYMMETRY OF AOS IN SYMMETRY 1:   1 1 1 1 1 1 1 1 1 1   1 1 1 1 2 3 4 5 6 2   3 4 5 6 2 3 4 5 6 2   3 4 5 6 2 3 4 5 6 2
                                        3 4 5 6 2 3 4 5 6 2   3 4 5 6 2 3 4 5 6 2   3 4 5 6 2 3 4 5 6 2   3 4 5 6 7 8 9101112
                                       131415 7 8 910111213  1415 7 8 91011121314  15 7 8 9101112131415   7 8 9101112131415 7
                                        8 91011121314151617  18192021222324252627  28
 EXTRA SYMMETRY OF AOS IN SYMMETRY 2:   1 2 3 1 2 3 1 2 3 1   2 3 1 2 3 1 2 3 1 2   3 1 2 3 1 2 3 1 2 3   1 2 3 1 2 3 1 2 3 1
                                        2 3 4 5 6 7 8 910 4   5 6 7 8 910 4 5 6 7   8 910 4 5 6 7 8 910   4 5 6 7 8 910 4 5 6
                                        7 8 910 4 5 6 7 8 9  10 4 5 6 7 8 910 4 5   6 7 8 910 4 5 6 7 8   9101112131415161718
                                       19202111121314151617  18192021111213141516  17181920211112131415  161718192021


 Eigenvalues of metric

         1 0.180E-04 0.213E-04 0.213E-04 0.213E-04 0.213E-04 0.213E-04 0.413E-04 0.263E-03
         2 0.228E-05 0.228E-05 0.228E-05 0.341E-03 0.341E-03 0.341E-03 0.254E-02 0.254E-02


 Contracted 2-electron integrals neglected if value below      1.0D-12
 AO integral compression algorithm  1   Integral accuracy      1.0D-12

     840.696 MB (compressed) written to integral file ( 13.0%)

     Node minimum: 82.838 MB, node maximum: 119.538 MB


 NUMBER OF SORTED TWO-ELECTRON INTEGRALS:   61585218.     BUFFER LENGTH:  32768
 NUMBER OF SEGMENTS:   4  SEGMENT LENGTH:   15995124      RECORD LENGTH: 524288

 Memory used in sort:      16.55 MW

 SORT1 READ   809475313. AND WROTE    10655025. INTEGRALS IN     32 RECORDS. CPU TIME:     2.98 SEC, REAL TIME:     3.09 SEC
 SORT2 READ    85291593. AND WROTE   492887565. INTEGRALS IN   3232 RECORDS. CPU TIME:     1.06 SEC, REAL TIME:     1.17 SEC

 Node minimum:    61582437.  Node maximum:    61623600. integrals

 OPERATOR DM      FOR CENTER  0  COORDINATES:    0.000000    0.000000    0.000000


 **********************************************************************************************************************************
 DATASETS  * FILE   NREC   LENGTH (MB)   RECORD NAMES
              1      19       30.93       500      610      700      900      950      970     1000      129      960     1100   
                                          VAR    BASINP    GEOM    SYMINP    ZMAT    AOBASIS   BASIS     P2S    ABASIS      S 
                                         1400     1410     1420     1200     1210     1080     1700     1600     1650   
                                           T        V       ECP      H0       H01     AOSYM    OPER      SMH    MOLCAS    

 PROGRAMS   *        TOTAL       INT
 CPU TIMES  *        14.76     14.59
 REAL TIME  *        16.86 SEC
 DISK USED  *        31.35 MB (local),        1.91 GB (total)
 GA USED    *         0.00 MB       (max)       0.00 MB       (current)
 **********************************************************************************************************************************


 Program * Restricted Hartree-Fock


   Atom=PB basis=cc-pVTZ-PP        lmin=0  lmax=2

 Orbital guess generated from atomic densities.

 Initial alpha occupancy:   7   6
 Initial beta  occupancy:   7   3

 NELEC=   23   SYM=2   MS2= 3   THRE=1.0D-08   THRD=3.2D-06   THRG=3.2D-06  HFMA2=F  DIIS_START=2   DIIS_MAX=10   DIIS_INCORE=F

 Level shifts:    0.00 (CLOSED)    0.00 (OPEN)    0.30 (GAP_MIN)

 ITER           ETOT              DE          GRAD        DDIFF     DIIS  NEXP   TIME(IT)  TIME(TOT)  DIAG
   1     -191.86191646    -191.86191646     0.00D+00     0.42D-01     0     0       0.32      0.59    start
   2     -191.86409016      -0.00217370     0.69D-03     0.96D-03     1     0       0.33      0.92    diag2
   3     -191.86432223      -0.00023206     0.38D-03     0.23D-03     2     0       0.33      1.25    diag2
   4     -191.86438398      -0.00006175     0.93D-04     0.16D-03     3     0       0.32      1.57    diag2
   5     -191.86439259      -0.00000861     0.25D-04     0.47D-04     4     0       0.31      1.88    diag2
   6     -191.86439555      -0.00000295     0.86D-05     0.30D-04     5     0       0.34      2.22    diag2
   7     -191.86439704      -0.00000150     0.46D-05     0.29D-04     6     0       0.32      2.54    diag2
   8     -191.86439739      -0.00000034     0.21D-05     0.11D-04     7     0       0.33      2.87    fixocc
   9     -191.86439742      -0.00000004     0.72D-06     0.45D-05     8     0       0.32      3.19    diag2
  10     -191.86439743      -0.00000001     0.30D-06     0.38D-05     9     0       0.32      3.51    diag2/orth
  11     -191.86439743      -0.00000000     0.12D-06     0.87D-06     9     0       0.33      3.84    diag2
  12     -191.86439743      -0.00000000     0.51D-07     0.99D-07     0     0       0.32      4.16    diag

 Final alpha occupancy:   7   6
 Final beta  occupancy:   7   3

 !RHF STATE 1.2 Energy               -191.864397433002
  RHF One-electron energy            -340.681661613210
  RHF Two-electron energy             148.817264180208
  RHF Kinetic energy                   62.712669220468
  RHF Nuclear energy                    0.000000000000
  RHF Virial quotient                  -3.059420047303

 !RHF STATE 1.2 Dipole moment           0.00000000     0.00000000     0.00000000
 Dipole moment /Debye                   0.00000000     0.00000000     0.00000000

 ELECTRON ORBITALS
 =================

  Orbital  Occupation    Energy    Cen Mu Typ  Coefficients
    1.1     2.00000    -5.94946     1  1  s    1.00000
    2.1     2.00000    -0.84962     1  1  d2+  0.90935    1  1  d1-  0.39364
    3.1     2.00000    -0.84962     1  1  d1+  0.93177    1  1  d1-  0.31874
    4.1     2.00000    -0.84962     1  1  d2- -0.39113    1  1  d1+ -0.35440    1  1  d2+ -0.39477    1  1  d1-  0.74592
    5.1     2.00000    -0.84962     1  1  d2-  0.90313    1  1  d1-  0.42135
    6.1     2.00000    -0.84962     1  1  d0   0.99287
    7.1     2.00000    -0.35280     1  1  s   -0.38140    1  5  s    0.52215    1  6  s    0.42720    1 11  s   -0.25480
    1.2     2.00000    -3.63192     1  1  px   0.62490    1  1  py   0.66358    1  1  pz   0.41192
    2.2     2.00000    -3.63192     1  1  px  -0.52793    1  1  pz   0.84907
    3.2     2.00000    -3.63192     1  1  px  -0.57560    1  1  py   0.74785    1  1  pz  -0.33155
    4.2     1.00000    -0.05164     1  5  pz   0.25133    1  6  pz   0.26499
    5.2     1.00000    -0.05164     1  6  px  -0.25580    1  6  pz   0.26029
    6.2     1.00000    -0.05164     1  5  py   0.31135    1  6  py   0.32827


 HOMO      6.2    -0.051635 =      -1.4051eV
 LUMO      7.2     0.034733 =       0.9451eV
 LUMO-HOMO         0.086368 =       2.3502eV

 Orbitals saved in record  2100.2


 **********************************************************************************************************************************
 DATASETS  * FILE   NREC   LENGTH (MB)   RECORD NAMES
              1      19       30.93       500      610      700      900      950      970     1000      129      960     1100   
                                          VAR    BASINP    GEOM    SYMINP    ZMAT    AOBASIS   BASIS     P2S    ABASIS      S 
                                         1400     1410     1420     1200     1210     1080     1700     1600     1650   
                                           T        V       ECP      H0       H01     AOSYM    OPER      SMH    MOLCAS    

              2       4        1.79       700     1000      520     2100   
                                         GEOM     BASIS   MCVARS     RHF  

 PROGRAMS   *        TOTAL   RHF-SCF       INT
 CPU TIMES  *        18.93      4.16     14.59
 REAL TIME  *        21.22 SEC
 DISK USED  *        38.96 MB (local),        1.97 GB (total)
 GA USED    *         0.00 MB       (max)       0.00 MB       (current)
 **********************************************************************************************************************************
 SETTING NTRIP          =        12.00000000                                  
 SETTING NSING          =        15.00000000                                  

 PROGRAM * MULTI (Direct Multiconfiguration SCF)       Authors: P.J. Knowles, H.-J. Werner (1984)
                                                                D.A. Kreplin, P.J. Knowles, H.-J. Werner (2019)

 Number of closed-shell orbitals:   9 (    6    3)
 Number of active  orbitals:        7 (    1    6)
 Number of external orbitals:     281 (  134  147)

 State symmetry 1

 Number of active electrons:   4    Spin symmetry=Triplet   Space symmetry=1
 Number of states:            12
 Number of CSFs:             120   (135 determinants, 245 intermediate states)

 State symmetry 2

 Number of active electrons:   4    Spin symmetry=Singlet   Space symmetry=1
 Number of states:            15
 Number of CSFs:             126   (261 determinants, 441 intermediate states)

 Molecular orbitals read from record     2100.2  Type=RHF/CANONICAL  
 *** IN SYMMETRY 1 ORBITAL  2 SYMMETRY CONTAMINATION OF 0.386D+00 HAS BEEN REMOVED
 *** IN SYMMETRY 1 ORBITAL  3 SYMMETRY CONTAMINATION OF 0.395D+00 HAS BEEN REMOVED
 *** IN SYMMETRY 1 ORBITAL  4 SYMMETRY CONTAMINATION OF 0.623D+00 HAS BEEN REMOVED
 *** IN SYMMETRY 1 ORBITAL  5 SYMMETRY CONTAMINATION OF 0.369D+00 HAS BEEN REMOVED
 *** IN SYMMETRY 1 ORBITAL  6 SYMMETRY CONTAMINATION OF 0.174D+00 HAS BEEN REMOVED

 EXTRA SYMMETRY OF MOS IN SYMMETRY 1:   1 5 4 6 3 2 1 1 2 6   4 5 3 1 2 4 6 5 3 1   2 4 6 3 5 1 2 4 6 5   31514 8121310 711 9
                                        1 6 4 2 5 31310 714  15 812 911 2 6 4 5 3   1 71310 81211 91514   2 6 4 5 3 1 71310 8
                                       121415 9112520181721  2426231928272216 6 4   5 3 2 712 810131514  11 9 1 5 6 4 3 2 712
                                       15 8141310 911 1 5 6   3 4 2 1 5 3 6 4 2 1   1
 *** IN SYMMETRY 2 ORBITAL  1 SYMMETRY CONTAMINATION OF 0.610D+00 HAS BEEN REMOVED
 *** IN SYMMETRY 2 ORBITAL  2 SYMMETRY CONTAMINATION OF 0.397D+00 HAS BEEN REMOVED
 *** IN SYMMETRY 2 ORBITAL  3 SYMMETRY CONTAMINATION OF 0.652D+00 HAS BEEN REMOVED
 *** IN SYMMETRY 2 ORBITAL  4 SYMMETRY CONTAMINATION OF 0.585D+00 HAS BEEN REMOVED
 *** IN SYMMETRY 2 ORBITAL  5 SYMMETRY CONTAMINATION OF 0.578D+00 HAS BEEN REMOVED
 *** IN SYMMETRY 2 ORBITAL  6 SYMMETRY CONTAMINATION OF 0.413D+00 HAS BEEN REMOVED
 *** IN SYMMETRY 2 ORBITAL  8 SYMMETRY CONTAMINATION OF 0.810D-03 HAS BEEN REMOVED
 *** IN SYMMETRY 2 ORBITAL  9 SYMMETRY CONTAMINATION OF 0.810D-03 HAS BEEN REMOVED
 EXTRA SYMMETRY OF MOS IN SYMMETRY 2:   2 3 1 3 1 2 1 2 3 1   2 3 9 7 4 5 6 810 1   2 3 9 7 4 5 610 8 1   2 3 6 5 4 9 7 810 3
                                        2 1 6 5 4 9 7 810 6   7 9 5 4 810 3 1 216  14191517211312111820   6 810 7 9 5 4161421
                                       1315171820121119 3 2   1 810 6 4 5 7 91416  211315171820191211 8  10 6 4 5 7 9 3 2 1 8
                                       10 7 9 5 4 615172113  18201614191211 1 2 3   5 4 6 810 7 9 1 2 3   1 2 3 1 2 3

 Wavefunction dump at record             2140.2

 Convergence thresholds  0.10E-04 (gradient)  0.10E-05 (energy)

 Weight factors for state symmetry  1:    0.03704   0.03704   0.03704   0.03704   0.03704   0.03704   0.03704   0.03704
                                          0.03704   0.03704   0.03704   0.03704
 Weight factors for state symmetry  2:    0.03704   0.03704   0.03704   0.03704   0.03704   0.03704   0.03704   0.03704
                                          0.03704   0.03704   0.03704   0.03704   0.03704   0.03704   0.03704
 
 Number of orbital rotations:  2285  ( 24 closed/active, 1245 closed/virtual, 0 active/active, 1016 active/virtual )
 Total number of variables:    7820
 
 Second-order MCSCF: L-BFGS accelerated
 
 ITER  MIC  NCI  NEG     ENERGY(VAR)    ENERGY(PROJ) ENERGY CHANGE       GRAD(0)  GRAD(ORB)   GRAD(CI)      STEP      TIME
   1   17   30    6   -191.65149332    -191.71311605   -0.06162273    0.17411056 0.00001459 0.00000000  0.17E+01      3.23
   2    8   14    0   -191.71333906    -191.71361845   -0.00027939    0.01354029 0.00000045 0.00000000  0.12E+00      5.92
   3    6   12    0   -191.71361872    -191.71361873   -0.00000000    0.00007633 0.00000001 0.00000000  0.18E-03      8.34
   4    4    8    0   -191.71361873    -191.71361873    0.00000000    0.00000003 0.00000001 0.00000000  0.34E-06     10.47

 CONVERGENCE REACHED!  Final gradient:    0.00000001 ( 0.55E-08)
                       Final energy:   -191.71361873
 
 Results for state 1.1 Triplet
 =============================
 !MCSCF STATE 1.1 Triplet Energy              -191.833901621647
 Nuclear energy                                  0.00000000
 Kinetic energy                                 62.92459682
 One electron energy                          -336.53396256
 Two electron energy                           144.70006093
 Virial ratio                                    4.04863140
 
 !MCSCF STATE 1.1 Triplet Dipole moment          0.00000000     0.00000000     0.00000000
 Dipole moment /Debye                            0.00000000     0.00000000     0.00000000
 
 Results for state 2.1 Triplet
 =============================
 !MCSCF STATE 2.1 Triplet Energy              -191.833901621016
 Nuclear energy                                  0.00000000
 Kinetic energy                                 62.92459684
 One electron energy                          -336.53396263
 Two electron energy                           144.70006101
 Virial ratio                                    4.04863140
 
 !MCSCF STATE 2.1 Triplet Dipole moment          0.00000000     0.00000000     0.00000000
 Dipole moment /Debye                            0.00000000     0.00000000     0.00000000
 
 Results for state 3.1 Triplet
 =============================
 !MCSCF STATE 3.1 Triplet Energy              -191.833901620999
 Nuclear energy                                  0.00000000
 Kinetic energy                                 62.92459683
 One electron energy                          -336.53396260
 Two electron energy                           144.70006098
 Virial ratio                                    4.04863140
 
 !MCSCF STATE 3.1 Triplet Dipole moment          0.00000000     0.00000000     0.00000000
 Dipole moment /Debye                            0.00000000     0.00000000     0.00000000
 
 Results for state 4.1 Triplet
 =============================
 !MCSCF STATE 4.1 Triplet Energy              -191.671243908937
 Nuclear energy                                  0.00000000
 Kinetic energy                                 62.40170706
 One electron energy                          -331.59871667
 Two electron energy                           139.92747276
 Virial ratio                                    4.07157052
 
 !MCSCF STATE 4.1 Triplet Dipole moment          0.00000000     0.00000000     0.00000000
 Dipole moment /Debye                            0.00000000     0.00000000     0.00000000
 
 Results for state 5.1 Triplet
 =============================
 !MCSCF STATE 5.1 Triplet Energy              -191.671243908834
 Nuclear energy                                  0.00000000
 Kinetic energy                                 62.40170706
 One electron energy                          -331.59871663
 Two electron energy                           139.92747272
 Virial ratio                                    4.07157052
 
 !MCSCF STATE 5.1 Triplet Dipole moment          0.00000000     0.00000000     0.00000000
 Dipole moment /Debye                            0.00000000     0.00000000     0.00000000
 
 Results for state 6.1 Triplet
 =============================
 !MCSCF STATE 6.1 Triplet Energy              -191.671243908793
 Nuclear energy                                  0.00000000
 Kinetic energy                                 62.40170706
 One electron energy                          -331.59871663
 Two electron energy                           139.92747272
 Virial ratio                                    4.07157052
 
 !MCSCF STATE 6.1 Triplet Dipole moment          0.00000000     0.00000000     0.00000000
 Dipole moment /Debye                            0.00000000     0.00000000     0.00000000
 
 Results for state 7.1 Triplet
 =============================
 !MCSCF STATE 7.1 Triplet Energy              -191.671243908451
 Nuclear energy                                  0.00000000
 Kinetic energy                                 62.40170705
 One electron energy                          -331.59871652
 Two electron energy                           139.92747261
 Virial ratio                                    4.07157052
 
 !MCSCF STATE 7.1 Triplet Dipole moment          0.00000000     0.00000000     0.00000000
 Dipole moment /Debye                            0.00000000     0.00000000     0.00000000
 
 Results for state 8.1 Triplet
 =============================
 !MCSCF STATE 8.1 Triplet Energy              -191.671243908450
 Nuclear energy                                  0.00000000
 Kinetic energy                                 62.40170705
 One electron energy                          -331.59871652
 Two electron energy                           139.92747261
 Virial ratio                                    4.07157052
 
 !MCSCF STATE 8.1 Triplet Dipole moment          0.00000000     0.00000000     0.00000000
 Dipole moment /Debye                            0.00000000     0.00000000     0.00000000
 
 Results for state 9.1 Triplet
 =============================
 !MCSCF STATE 9.1 Triplet Energy              -191.668413529669
 Nuclear energy                                  0.00000000
 Kinetic energy                                 62.45853620
 One electron energy                          -331.88861331
 Two electron energy                           140.22019978
 Virial ratio                                    4.06873048
 
 !MCSCF STATE 9.1 Triplet Dipole moment          0.00000000     0.00000000     0.00000000
 Dipole moment /Debye                            0.00000000     0.00000000     0.00000000
 
 Results for state 10.1 Triplet
 ==============================
 !MCSCF STATE 10.1 Triplet Energy             -191.668413529111
 Nuclear energy                                  0.00000000
 Kinetic energy                                 62.45853623
 One electron energy                          -331.88861347
 Two electron energy                           140.22019994
 Virial ratio                                    4.06873047
 
 !MCSCF STATE 10.1 Triplet Dipole moment         0.00000000     0.00000000     0.00000000
 Dipole moment /Debye                            0.00000000     0.00000000     0.00000000
 
 Results for state 11.1 Triplet
 ==============================
 !MCSCF STATE 11.1 Triplet Energy             -191.668413528929
 Nuclear energy                                  0.00000000
 Kinetic energy                                 62.45853622
 One electron energy                          -331.88861349
 Two electron energy                           140.22019996
 Virial ratio                                    4.06873047
 
 !MCSCF STATE 11.1 Triplet Dipole moment         0.00000000     0.00000000     0.00000000
 Dipole moment /Debye                            0.00000000     0.00000000     0.00000000
 
 Results for state 12.1 Triplet
 ==============================
 !MCSCF STATE 12.1 Triplet Energy             -191.666012297059
 Nuclear energy                                  0.00000000
 Kinetic energy                                 62.40158634
 One electron energy                          -331.59779532
 Two electron energy                           139.93178302
 Virial ratio                                    4.07149263
 
 !MCSCF STATE 12.1 Triplet Dipole moment         0.00000000     0.00000000     0.00000000
 Dipole moment /Debye                            0.00000000     0.00000000     0.00000000
 
 Results for state 1.1 Singlet
 =============================
 !MCSCF STATE 1.1 Singlet Energy              -191.798998956106
 Nuclear energy                                  0.00000000
 Kinetic energy                                 62.88998172
 One electron energy                          -336.33084631
 Two electron energy                           144.53184735
 Virial ratio                                    4.04975441
 
 !MCSCF STATE 1.1 Singlet Dipole moment          0.00000000     0.00000000     0.00000000
 Dipole moment /Debye                            0.00000000     0.00000000     0.00000000
 
 Results for state 2.1 Singlet
 =============================
 !MCSCF STATE 2.1 Singlet Energy              -191.798998956087
 Nuclear energy                                  0.00000000
 Kinetic energy                                 62.88998172
 One electron energy                          -336.33084631
 Two electron energy                           144.53184736
 Virial ratio                                    4.04975441
 
 !MCSCF STATE 2.1 Singlet Dipole moment          0.00000000     0.00000000     0.00000000
 Dipole moment /Debye                            0.00000000     0.00000000     0.00000000
 
 Results for state 3.1 Singlet
 =============================
 !MCSCF STATE 3.1 Singlet Energy              -191.798998955256
 Nuclear energy                                  0.00000000
 Kinetic energy                                 62.88998173
 One electron energy                          -336.33084636
 Two electron energy                           144.53184740
 Virial ratio                                    4.04975441
 
 !MCSCF STATE 3.1 Singlet Dipole moment          0.00000000     0.00000000     0.00000000
 Dipole moment /Debye                            0.00000000     0.00000000     0.00000000
 
 Results for state 4.1 Singlet
 =============================
 !MCSCF STATE 4.1 Singlet Energy              -191.798998954988
 Nuclear energy                                  0.00000000
 Kinetic energy                                 62.88998174
 One electron energy                          -336.33084642
 Two electron energy                           144.53184746
 Virial ratio                                    4.04975441
 
 !MCSCF STATE 4.1 Singlet Dipole moment          0.00000000     0.00000000     0.00000000
 Dipole moment /Debye                            0.00000000     0.00000000     0.00000000
 
 Results for state 5.1 Singlet
 =============================
 !MCSCF STATE 5.1 Singlet Energy              -191.798998954783
 Nuclear energy                                  0.00000000
 Kinetic energy                                 62.88998174
 One electron energy                          -336.33084642
 Two electron energy                           144.53184746
 Virial ratio                                    4.04975441
 
 !MCSCF STATE 5.1 Singlet Dipole moment          0.00000000     0.00000000     0.00000000
 Dipole moment /Debye                            0.00000000     0.00000000     0.00000000
 
 Results for state 6.1 Singlet
 =============================
 !MCSCF STATE 6.1 Singlet Energy              -191.764480583187
 Nuclear energy                                  0.00000000
 Kinetic energy                                 62.82776378
 One electron energy                          -335.92618705
 Two electron energy                           144.16170647
 Virial ratio                                    4.05222515
 
 !MCSCF STATE 6.1 Singlet Dipole moment          0.00000000     0.00000000     0.00000000
 Dipole moment /Debye                            0.00000000     0.00000000     0.00000000
 
 Results for state 7.1 Singlet
 =============================
 !MCSCF STATE 7.1 Singlet Energy              -191.674732999101
 Nuclear energy                                  0.00000000
 Kinetic energy                                 62.40178452
 One electron energy                          -331.59930828
 Two electron energy                           139.92457529
 Virial ratio                                    4.07162262
 
 !MCSCF STATE 7.1 Singlet Dipole moment          0.00000000     0.00000000     0.00000000
 Dipole moment /Debye                            0.00000000     0.00000000     0.00000000
 
 Results for state 8.1 Singlet
 =============================
 !MCSCF STATE 8.1 Singlet Energy              -191.674732999045
 Nuclear energy                                  0.00000000
 Kinetic energy                                 62.40178452
 One electron energy                          -331.59930828
 Two electron energy                           139.92457528
 Virial ratio                                    4.07162262
 
 !MCSCF STATE 8.1 Singlet Dipole moment          0.00000000     0.00000000     0.00000000
 Dipole moment /Debye                            0.00000000     0.00000000     0.00000000
 
 Results for state 9.1 Singlet
 =============================
 !MCSCF STATE 9.1 Singlet Energy              -191.674732998377
 Nuclear energy                                  0.00000000
 Kinetic energy                                 62.40178451
 One electron energy                          -331.59930817
 Two electron energy                           139.92457517
 Virial ratio                                    4.07162262
 
 !MCSCF STATE 9.1 Singlet Dipole moment          0.00000000     0.00000000     0.00000000
 Dipole moment /Debye                            0.00000000     0.00000000     0.00000000
 
 Results for state 10.1 Singlet
 ==============================
 !MCSCF STATE 10.1 Singlet Energy             -191.660914713606
 Nuclear energy                                  0.00000000
 Kinetic energy                                 62.49483660
 One electron energy                          -332.09870918
 Two electron energy                           140.43779447
 Virial ratio                                    4.06682800
 
 !MCSCF STATE 10.1 Singlet Dipole moment         0.00000000     0.00000000     0.00000000
 Dipole moment /Debye                            0.00000000     0.00000000     0.00000000
 
 Results for state 11.1 Singlet
 ==============================
 !MCSCF STATE 11.1 Singlet Energy             -191.660914713584
 Nuclear energy                                  0.00000000
 Kinetic energy                                 62.49483660
 One electron energy                          -332.09870918
 Two electron energy                           140.43779447
 Virial ratio                                    4.06682800
 
 !MCSCF STATE 11.1 Singlet Dipole moment         0.00000000     0.00000000     0.00000000
 Dipole moment /Debye                            0.00000000     0.00000000     0.00000000
 
 Results for state 12.1 Singlet
 ==============================
 !MCSCF STATE 12.1 Singlet Energy             -191.660914712021
 Nuclear energy                                  0.00000000
 Kinetic energy                                 62.49483663
 One electron energy                          -332.09870938
 Two electron energy                           140.43779466
 Virial ratio                                    4.06682800
 
 !MCSCF STATE 12.1 Singlet Dipole moment         0.00000000     0.00000000     0.00000000
 Dipole moment /Debye                            0.00000000     0.00000000     0.00000000
 
 Results for state 13.1 Singlet
 ==============================
 !MCSCF STATE 13.1 Singlet Energy             -191.660914711613
 Nuclear energy                                  0.00000000
 Kinetic energy                                 62.49483663
 One electron energy                          -332.09870939
 Two electron energy                           140.43779468
 Virial ratio                                    4.06682800
 
 !MCSCF STATE 13.1 Singlet Dipole moment         0.00000000     0.00000000     0.00000000
[...]
 10  1    10    1  |1 1>+         0.00%    3.35%    8.27%    0.00%    0.00%    0.00%    0.00%    0.00%
 11  1    11    1  |1 1>+         0.00%    0.00%    0.00%    0.00%    0.00%   16.42%    0.00%   19.56%
 12  1    12    1  |1 1>+         0.00%    0.00%    0.00%    0.00%    0.16%    0.00%    0.00%    0.00%
 13  1     1    1  |1 0>          0.00%    0.00%    0.00%    0.00%    0.06%    0.00%    0.01%    0.00%
 14  1     2    1  |1 0>          0.00%    0.00%    0.00%    0.00%    0.00%    0.06%    0.00%    0.01%
 15  1     3    1  |1 0>          0.00%    0.00%    0.01%    0.00%    0.00%    0.00%    0.00%    0.00%
 16  1     4    1  |1 0>          4.33%    0.00%    0.00%    6.11%    0.00%    0.00%    0.00%    0.00%
 17  1     5    1  |1 0>          0.00%    0.00%    0.00%    0.00%    5.21%    0.00%    7.21%    0.00%
 18  1     6    1  |1 0>          0.00%   28.16%    7.65%    0.00%    0.00%    0.00%    0.00%    0.00%
 19  1     7    1  |1 0>          0.00%    0.00%    0.00%    0.00%    0.00%    5.21%    0.00%    7.21%
 20  1     8    1  |1 0>         31.47%    0.00%    0.00%    0.84%    0.00%    0.00%    0.00%    0.00%
 21  1     9    1  |1 0>          0.00%    0.00%    0.00%    0.00%   16.42%    0.00%   19.56%    0.00%
 22  1    10    1  |1 0>          0.00%    0.00%    0.00%    0.00%    0.00%   16.42%    0.00%   19.56%
 23  1    11    1  |1 0>          0.00%    2.48%    9.14%    0.00%    0.00%    0.00%    0.00%    0.00%
 24  1    12    1  |1 0>          0.00%    0.00%    0.00%    0.16%    0.00%    0.00%    0.00%    0.00%
 25  1     1    1  |1 1>-         0.00%    0.02%    0.00%    0.00%    0.00%    0.00%    0.00%    0.00%
 26  1     2    1  |1 1>-         0.01%    0.00%    0.00%    0.06%    0.00%    0.00%    0.00%    0.00%
 27  1     3    1  |1 1>-         0.00%    0.00%    0.00%    0.00%    0.06%    0.00%    0.01%    0.00%
 28  1     4    1  |1 1>-         0.00%    0.00%    0.00%    0.00%    0.00%    4.12%    0.00%   11.75%
 29  1     5    1  |1 1>-         0.00%    0.07%   35.74%    0.00%    0.00%    0.00%    0.00%    0.00%
 30  1     6    1  |1 1>-         0.00%    0.00%    0.00%    0.00%    5.21%    0.00%    7.21%    0.00%
 31  1     7    1  |1 1>-         8.95%    0.00%    0.00%    5.21%    0.00%    0.00%    0.00%    0.00%
 32  1     8    1  |1 1>-         0.00%    0.00%    0.00%    0.00%    0.00%    2.83%    0.00%   17.12%
 33  1     9    1  |1 1>-         0.00%   11.61%    0.02%    0.00%    0.00%    0.00%    0.00%    0.00%
 34  1    10    1  |1 1>-         8.72%    0.00%    0.00%   16.42%    0.00%    0.00%    0.00%    0.00%
 35  1    11    1  |1 1>-         0.00%    0.00%    0.00%    0.00%   16.42%    0.00%   19.56%    0.00%
 36  1    12    1  |1 1>-         0.00%    0.00%    0.00%    0.00%    0.00%    0.16%    0.00%    0.00%
 37  1     1    1  |0 0>          0.00%    0.00%    0.00%    0.00%    0.00%    0.00%    0.21%    0.00%
 38  1     2    1  |0 0>          0.15%    0.00%    0.00%    0.00%    0.00%    0.00%    0.00%    0.00%
 39  1     3    1  |0 0>          0.00%    0.13%    0.02%    0.00%    0.00%    0.00%    0.00%    0.00%
 40  1     4    1  |0 0>          0.00%    0.00%    0.00%    0.00%    0.00%    0.00%    0.00%    0.21%
 41  1     5    1  |0 0>          0.00%    0.02%    0.13%    0.00%    0.00%    0.00%    0.00%    0.00%
 42  1     6    1  |0 0>          0.00%    0.00%    0.00%    0.00%    0.00%    0.00%    0.00%    0.00%
 43  1     7    1  |0 0>          0.00%    0.00%    0.00%    0.00%   49.52%    0.00%    0.00%    0.00%
 44  1     8    1  |0 0>          0.00%    0.00%    0.00%   49.52%    0.00%    0.00%    0.00%    0.00%
 45  1     9    1  |0 0>          0.00%    0.00%    0.00%    0.00%    0.00%   49.52%    0.00%    0.00%
 46  1    10    1  |0 0>         28.68%    0.00%    0.00%    0.00%    0.00%    0.00%    0.00%    0.00%
 47  1    11    1  |0 0>          0.00%    0.00%    0.00%    0.00%    0.00%    0.00%   17.34%    0.00%
 48  1    12    1  |0 0>          0.00%    0.00%    0.00%    0.00%    0.00%    0.00%    0.00%   17.34%
 49  1    13    1  |0 0>          0.00%   28.67%    0.01%    0.00%    0.00%    0.00%    0.00%    0.00%
 50  1    14    1  |0 0>          0.00%    0.01%   28.67%    0.00%    0.00%    0.00%    0.00%    0.00%
 51  1    15    1  |0 0>          0.00%    0.00%    0.00%    0.00%    0.00%    0.00%    0.00%    0.00%

   Total
 Nr Sym  State Sym Spin / Nr.     33       34       35       36       37       38       39       40

  1  1     1    1  |1 1>+         0.01%    0.00%    0.00%    0.00%    0.00%    0.00%    0.00%    0.00%
  2  1     2    1  |1 1>+         0.00%    0.01%    0.01%    0.00%    0.00%    0.00%    0.00%    0.00%
  3  1     3    1  |1 1>+         0.00%    0.00%    0.00%    0.00%    0.00%    0.00%    0.00%    0.00%
  4  1     4    1  |1 1>+         0.00%    0.00%    0.00%    0.00%    0.00%   33.95%    0.00%    0.00%
  5  1     5    1  |1 1>+         7.22%    0.00%    0.00%    7.08%    0.00%    0.00%   46.25%    0.00%
  6  1     6    1  |1 1>+         0.00%    0.00%    0.00%    0.00%    0.39%    0.00%    0.00%    0.00%
  7  1     7    1  |1 1>+         0.00%    9.91%   18.96%    0.00%    0.00%    0.00%    0.00%   33.33%
  8  1     8    1  |1 1>+         0.00%    0.00%    0.00%    0.00%    0.00%    1.49%    0.00%    0.00%
  9  1     9    1  |1 1>+        19.56%    0.00%    0.00%    0.00%    0.00%    0.00%    0.00%    0.00%
 10  1    10    1  |1 1>+         0.00%   17.13%    8.95%    0.00%    0.00%    0.00%    0.00%    0.00%
 11  1    11    1  |1 1>+         0.00%    0.00%    0.00%    0.00%    0.00%    0.00%    0.00%    0.00%
 12  1    12    1  |1 1>+         0.00%    0.00%    0.00%    0.00%    0.00%    0.00%    0.00%    0.00%
 13  1     1    1  |1 0>          0.00%    0.00%    0.00%    0.00%    0.00%    0.00%    0.00%    0.00%
 14  1     2    1  |1 0>          0.00%    0.00%    0.00%    0.00%    0.00%    0.00%    0.00%    0.00%
 15  1     3    1  |1 0>          0.00%    0.00%    0.02%    0.00%    0.00%    0.00%    0.00%    0.00%
 16  1     4    1  |1 0>          3.49%    0.00%    0.00%   56.76%    0.00%    0.00%    0.02%    0.00%
 17  1     5    1  |1 0>          0.00%    0.00%    0.00%    0.00%    0.00%   46.23%    0.00%    0.00%
 18  1     6    1  |1 0>          0.00%   28.56%    0.30%    0.00%    0.00%    0.00%    0.00%   33.33%
 19  1     7    1  |1 0>          0.00%    0.00%    0.00%    0.00%   47.45%    0.00%    0.00%    0.00%
 20  1     8    1  |1 0>         25.37%    0.00%    0.00%    1.12%    0.00%    0.00%   35.44%    0.00%
 21  1     9    1  |1 0>          0.00%    0.00%    0.00%    0.00%    0.00%    0.00%    0.00%    0.00%
 22  1    10    1  |1 0>          0.00%    0.00%    0.00%    0.00%    0.00%    0.00%    0.00%    0.00%
 23  1    11    1  |1 0>          0.00%    0.27%   25.82%    0.00%    0.00%    0.00%    0.00%    0.00%
 24  1    12    1  |1 0>          0.00%    0.00%    0.00%    0.00%    0.00%    0.00%    0.00%    0.00%
 25  1     1    1  |1 1>-         0.00%    0.02%    0.00%    0.00%    0.00%    0.00%    0.00%    0.00%
 26  1     2    1  |1 1>-         0.01%    0.00%    0.00%    0.00%    0.00%    0.00%    0.00%    0.00%
 27  1     3    1  |1 1>-         0.00%    0.00%    0.00%    0.00%    0.00%    0.00%    0.00%    0.00%
 28  1     4    1  |1 1>-         0.00%    0.00%    0.00%    0.00%   49.12%    0.00%    0.00%    0.00%
 29  1     5    1  |1 1>-         0.00%    4.83%   24.04%    0.00%    0.00%    0.00%    0.00%   33.33%
 30  1     6    1  |1 1>-         0.00%    0.00%    0.00%    0.00%    0.00%   18.34%    0.00%    0.00%
 31  1     7    1  |1 1>-         7.21%    0.00%    0.00%   35.05%    0.00%    0.00%   18.29%    0.00%
 32  1     8    1  |1 1>-         0.00%    0.00%    0.00%    0.00%    3.04%    0.00%    0.00%    0.00%
 33  1     9    1  |1 1>-         0.00%   21.73%    4.36%    0.00%    0.00%    0.00%    0.00%    0.00%
 34  1    10    1  |1 1>-        19.56%    0.00%    0.00%    0.00%    0.00%    0.00%    0.00%    0.00%
 35  1    11    1  |1 1>-         0.00%    0.00%    0.00%    0.00%    0.00%    0.00%    0.00%    0.00%
 36  1    12    1  |1 1>-         0.00%    0.00%    0.00%    0.00%    0.00%    0.00%    0.00%    0.00%
 37  1     1    1  |0 0>          0.00%    0.00%    0.00%    0.00%    0.00%    0.00%    0.00%    0.00%
 38  1     2    1  |0 0>          0.21%    0.00%    0.00%    0.00%    0.00%    0.00%    0.00%    0.00%
 39  1     3    1  |0 0>          0.00%    0.11%    0.10%    0.00%    0.00%    0.00%    0.00%    0.00%
 40  1     4    1  |0 0>          0.00%    0.00%    0.00%    0.00%    0.00%    0.00%    0.00%    0.00%
 41  1     5    1  |0 0>          0.00%    0.10%    0.11%    0.00%    0.00%    0.00%    0.00%    0.00%
 42  1     6    1  |0 0>          0.00%    0.00%    0.00%    0.00%    0.00%    0.00%    0.00%    0.00%
 43  1     7    1  |0 0>          0.00%    0.00%    0.00%    0.00%    0.00%    0.00%    0.00%    0.00%
 44  1     8    1  |0 0>          0.00%    0.00%    0.00%    0.00%    0.00%    0.00%    0.00%    0.00%
 45  1     9    1  |0 0>          0.00%    0.00%    0.00%    0.00%    0.00%    0.00%    0.00%    0.00%
 46  1    10    1  |0 0>         17.34%    0.00%    0.00%    0.00%    0.00%    0.00%    0.00%    0.00%
 47  1    11    1  |0 0>          0.00%    0.00%    0.00%    0.00%    0.00%    0.00%    0.00%    0.00%
 48  1    12    1  |0 0>          0.00%    0.00%    0.00%    0.00%    0.00%    0.00%    0.00%    0.00%
 49  1    13    1  |0 0>          0.00%   15.17%    2.16%    0.00%    0.00%    0.00%    0.00%    0.00%
 50  1    14    1  |0 0>          0.00%    2.16%   15.17%    0.00%    0.00%    0.00%    0.00%    0.00%
 51  1    15    1  |0 0>          0.00%    0.00%    0.00%    0.00%    0.00%    0.00%    0.00%    0.00%

   Total
 Nr Sym  State Sym Spin / Nr.     41       42       43       44       45       46       47       48

  1  1     1    1  |1 1>+         0.00%    0.00%    0.04%    0.00%    0.00%    0.00%    0.00%    0.07%
  2  1     2    1  |1 1>+         0.00%    0.00%    0.00%    0.00%    0.00%    0.00%    0.00%    0.00%
  3  1     3    1  |1 1>+         0.00%    0.00%    0.00%    0.00%    0.04%    0.00%    0.06%    0.00%
  4  1     4    1  |1 1>+         0.13%    0.00%    0.00%    0.00%    0.00%    1.68%    0.00%    0.00%
  5  1     5    1  |1 1>+         0.00%    0.00%    0.04%    0.00%    0.00%    0.00%    0.00%    0.43%
  6  1     6    1  |1 1>+         0.00%   52.94%    0.00%    0.00%    0.04%    0.00%    0.43%    0.00%
  7  1     7    1  |1 1>+         0.00%    0.00%    0.00%    0.00%    0.00%    0.00%    0.00%    0.00%
  8  1     8    1  |1 1>+        57.76%    0.00%    0.00%    0.05%    0.00%    0.05%    0.00%    0.00%
  9  1     9    1  |1 1>+         0.00%    0.00%    8.21%    0.00%    0.00%    0.00%    0.00%   21.68%
 10  1    10    1  |1 1>+         0.00%    0.00%    0.00%    0.00%    0.00%    0.00%    0.00%    0.00%
 11  1    11    1  |1 1>+         0.00%    0.00%    0.00%    0.00%    8.21%    0.00%   21.68%    0.00%
 12  1    12    1  |1 1>+         0.00%    0.00%    0.00%   70.51%    0.00%    0.00%    0.00%    0.00%
 13  1     1    1  |1 0>          0.00%    0.00%    0.00%    0.04%    0.00%    0.07%    0.00%    0.00%
 14  1     2    1  |1 0>          0.00%    0.00%    0.00%    0.00%    0.04%    0.00%    0.06%    0.00%
 15  1     3    1  |1 0>          0.00%    0.00%    0.00%    0.00%    0.00%    0.00%    0.00%    0.00%
 16  1     4    1  |1 0>          0.00%    0.00%    0.04%    0.00%    0.00%    0.00%    0.00%    0.21%
 17  1     5    1  |1 0>          7.11%    0.00%    0.00%    0.04%    0.00%    0.43%    0.00%    0.00%
 18  1     6    1  |1 0>          0.00%    0.00%    0.00%    0.00%    0.00%    0.00%    0.00%    0.00%
 19  1     7    1  |1 0>          0.00%    5.89%    0.00%    0.00%    0.04%    0.00%    0.43%    0.00%
 20  1     8    1  |1 0>          0.00%    0.00%    0.01%    0.00%    0.00%    0.00%    0.00%    1.52%
 21  1     9    1  |1 0>          0.00%    0.00%    0.00%    8.21%    0.00%   21.68%    0.00%    0.00%
 22  1    10    1  |1 0>          0.00%    0.00%    0.00%    0.00%    8.21%    0.00%   21.68%    0.00%
 23  1    11    1  |1 0>          0.00%    0.00%    0.00%    0.00%    0.00%    0.00%    0.00%    0.00%
 24  1    12    1  |1 0>          0.00%    0.00%   70.51%    0.00%    0.00%    0.00%    0.00%    0.00%
 25  1     1    1  |1 1>-         0.00%    0.00%    0.00%    0.00%    0.00%    0.00%    0.00%    0.00%
 26  1     2    1  |1 1>-         0.00%    0.00%    0.04%    0.00%    0.00%    0.00%    0.00%    0.06%
 27  1     3    1  |1 1>-         0.00%    0.00%    0.00%    0.04%    0.00%    0.06%    0.00%    0.00%
 28  1     4    1  |1 1>-         0.00%    0.02%    0.00%    0.00%    0.03%    0.00%    0.70%    0.00%
 29  1     5    1  |1 1>-         0.00%    0.00%    0.00%    0.00%    0.00%    0.00%    0.00%    0.00%
 30  1     6    1  |1 1>-        35.00%    0.00%    0.00%    0.04%    0.00%    0.43%    0.00%    0.00%
 31  1     7    1  |1 1>-         0.00%    0.00%    0.04%    0.00%    0.00%    0.00%    0.00%    0.43%
 32  1     8    1  |1 1>-         0.00%   41.15%    0.00%    0.00%    0.02%    0.00%    1.03%    0.00%
 33  1     9    1  |1 1>-         0.00%    0.00%    0.00%    0.00%    0.00%    0.00%    0.00%    0.00%
 34  1    10    1  |1 1>-         0.00%    0.00%    8.21%    0.00%    0.00%    0.00%    0.00%   21.68%
 35  1    11    1  |1 1>-         0.00%    0.00%    0.00%    8.21%    0.00%   21.68%    0.00%    0.00%
 36  1    12    1  |1 1>-         0.00%    0.00%    0.00%    0.00%   70.51%    0.00%    0.00%    0.00%
 37  1     1    1  |0 0>          0.00%    0.00%    0.00%    0.00%    0.00%    0.01%    0.00%    0.00%
 38  1     2    1  |0 0>          0.00%    0.00%    0.00%    0.00%    0.00%    0.00%    0.00%    0.01%
 39  1     3    1  |0 0>          0.00%    0.00%    0.00%    0.00%    0.00%    0.00%    0.00%    0.00%
 40  1     4    1  |0 0>          0.00%    0.00%    0.00%    0.00%    0.00%    0.00%    0.01%    0.00%
 41  1     5    1  |0 0>          0.00%    0.00%    0.00%    0.00%    0.00%    0.00%    0.00%    0.00%
 42  1     6    1  |0 0>          0.00%    0.00%    0.00%    0.00%    0.00%    0.00%    0.00%    0.00%
 43  1     7    1  |0 0>          0.00%    0.00%    0.00%   12.87%    0.00%    0.00%    0.00%    0.00%
 44  1     8    1  |0 0>          0.00%    0.00%   12.87%    0.00%    0.00%    0.00%    0.00%    0.00%
 45  1     9    1  |0 0>          0.00%    0.00%    0.00%    0.00%   12.87%    0.00%    0.00%    0.00%
 46  1    10    1  |0 0>          0.00%    0.00%    0.00%    0.00%    0.00%    0.00%    0.00%   53.91%
 47  1    11    1  |0 0>          0.00%    0.00%    0.00%    0.00%    0.00%   53.90%    0.00%    0.00%
 48  1    12    1  |0 0>          0.00%    0.00%    0.00%    0.00%    0.00%    0.00%   53.90%    0.00%
 49  1    13    1  |0 0>          0.00%    0.00%    0.00%    0.00%    0.00%    0.00%    0.00%    0.00%
 50  1    14    1  |0 0>          0.00%    0.00%    0.00%    0.00%    0.00%    0.00%    0.00%    0.00%
 51  1    15    1  |0 0>          0.00%    0.00%    0.00%    0.00%    0.00%    0.00%    0.00%    0.00%

   Total
 Nr Sym  State Sym Spin / Nr.     49       50       51

  1  1     1    1  |1 1>+         0.00%    0.00%    0.00%
  2  1     2    1  |1 1>+         0.04%    0.04%    0.05%
  3  1     3    1  |1 1>+         0.00%    0.00%    0.00%
  4  1     4    1  |1 1>+         0.00%    0.00%    0.00%
  5  1     5    1  |1 1>+         0.00%    0.00%    0.00%
  6  1     6    1  |1 1>+         0.00%    0.00%    0.00%
  7  1     7    1  |1 1>+         0.84%    0.89%    0.00%
  8  1     8    1  |1 1>+         0.00%    0.00%    0.00%
  9  1     9    1  |1 1>+         0.00%    0.00%    0.00%
 10  1    10    1  |1 1>+        14.81%   14.10%    8.19%
 11  1    11    1  |1 1>+         0.00%    0.00%    0.00%
 12  1    12    1  |1 1>+         0.00%    0.00%    0.00%
 13  1     1    1  |1 0>          0.00%    0.00%    0.00%
 14  1     2    1  |1 0>          0.00%    0.00%    0.00%
 15  1     3    1  |1 0>          0.01%    0.08%    0.05%
 16  1     4    1  |1 0>          0.00%    0.00%    0.00%
 17  1     5    1  |1 0>          0.00%    0.00%    0.00%
 18  1     6    1  |1 0>          1.63%    0.11%    0.00%
 19  1     7    1  |1 0>          0.00%    0.00%    0.00%
 20  1     8    1  |1 0>          0.00%    0.00%    0.00%
 21  1     9    1  |1 0>          0.00%    0.00%    0.00%
 22  1    10    1  |1 0>          0.00%    0.00%    0.00%
 23  1    11    1  |1 0>          1.76%   27.14%    8.19%
 24  1    12    1  |1 0>          0.00%    0.00%    0.00%
 25  1     1    1  |1 1>-         0.08%    0.01%    0.05%
 26  1     2    1  |1 1>-         0.00%    0.00%    0.00%
 27  1     3    1  |1 1>-         0.00%    0.00%    0.00%
 28  1     4    1  |1 1>-         0.00%    0.00%    0.00%
 29  1     5    1  |1 1>-         0.13%    1.60%    0.00%
 30  1     6    1  |1 1>-         0.00%    0.00%    0.00%
 31  1     7    1  |1 1>-         0.00%    0.00%    0.00%
 32  1     8    1  |1 1>-         0.00%    0.00%    0.00%
 33  1     9    1  |1 1>-        26.78%    2.12%    8.19%
 34  1    10    1  |1 1>-         0.00%    0.00%    0.00%
 35  1    11    1  |1 1>-         0.00%    0.00%    0.00%
 36  1    12    1  |1 1>-         0.00%    0.00%    0.00%
 37  1     1    1  |0 0>          0.00%    0.00%    0.00%
 38  1     2    1  |0 0>          0.00%    0.00%    0.00%
 39  1     3    1  |0 0>          0.01%    0.00%    0.00%
 40  1     4    1  |0 0>          0.00%    0.00%    0.00%
 41  1     5    1  |0 0>          0.00%    0.01%    0.00%
 42  1     6    1  |0 0>          0.00%    0.00%    0.09%
 43  1     7    1  |0 0>          0.00%    0.00%    0.00%
 44  1     8    1  |0 0>          0.00%    0.00%    0.00%
 45  1     9    1  |0 0>          0.00%    0.00%    0.00%
 46  1    10    1  |0 0>          0.00%    0.00%    0.00%
 47  1    11    1  |0 0>          0.00%    0.00%    0.00%
 48  1    12    1  |0 0>          0.00%    0.00%    0.00%
 49  1    13    1  |0 0>         51.48%    2.43%    0.00%
 50  1    14    1  |0 0>          2.43%   51.48%    0.00%
 51  1    15    1  |0 0>          0.00%    0.00%   75.19%



 **********************************************************************************************************************************
 DATASETS  * FILE   NREC   LENGTH (MB)   RECORD NAMES
              1      21      101.87       500      610      700      900      950      970     1000      129      960     1100   
                                          VAR    BASINP    GEOM    SYMINP    ZMAT    AOBASIS   BASIS     P2S    ABASIS      S 
                                         1400     1410     1420     1200     1210     1080     1700     1600     1650     1380   
                                           T        V       ECP      H0       H01     AOSYM    OPER      SMH    MOLCAS    JKOP   
                                         1700(1)
                                         OPER   

              2       7    12185.03       700     1000      520     2100     2140     5201     5101   
                                         GEOM     BASIS   MCVARS     RHF     MCSCF    MRCI     MRCI   

 PROGRAMS   *        TOTAL        CI        CI        CI     MULTI   RHF-SCF       INT
 CPU TIMES  *    189240.75 139637.08  25020.30  24553.26     11.16      4.16     14.59
 REAL TIME  *    192651.47 SEC
 DISK USED  *        12.00 GB (local),       97.66 GB (total)
 SF USED    *        64.23 GB
 GA USED    *         0.00 MB       (max)       0.00 MB       (current)
 **********************************************************************************************************************************

 CI/USERDEF energy=   -192.480637856075

              CI              CI           MULTI         RHF-SCF
   -192.42780773   -192.43941625   -191.66091471   -191.86439743
 **********************************************************************************************************************************
 Molpro calculation terminated with 1 warning(s)
