
 Working directory              : /wrk/irikura/molpro.7CVgGmAkUr/
 Global scratch directory       : /wrk/irikura/molpro.7CVgGmAkUr/
 Wavefunction directory         : /home/irikura/wfu/
 Main file repository           : /wrk/irikura/molpro.7CVgGmAkUr/

 id        : nistki

 Nodes            nprocs
 pn112695.nist.gov   16
 GA implementation: MPI file
 GA implementation (serial work in mppx): MPI file

 Using customized tuning parameters: mindgm=1; mindgv=20; mindgc=4; mindgr=1; noblas=0; minvec=7
 default implementation of scratch files=sf  


 Variables initialized (1042), CPU time= 0.02 sec
 ***,Pb SO-CI
 memory,1500,M;
 
 gprint,orbitals,civector;
 
 symmetry,xyz
 geometry={Pb};
 
 basis=aug-cc-pwCVQZ-PP
 
                                                                                 ! spherical anion orbitals (4S)
 {rhf; wf,charge=-1,sym=2,spin=3}
 
 NTRIP=12
 NSING=15
 
                                                                                 ! add 7p to active space
 {multi
     closed,6,3
     occ,7,9
     wf,charge=0,sym=1,spin=2;state,NTRIP;
     wf,charge=0,sym=1,spin=0;state,NSING;
     expec2,lxx,lyy,lzz;
 }
 table, energy, ll
 title, Energies and &lt;L**2&gt; values
 
 core,0,0
 
 {ci;wf,sym=1,spin=2;state,NTRIP; save,5201.2}
 hlsdiag = energd4
 {ci;wf,sym=1,spin=0;state,NSING; save,5101.2}
 hlsdiag(NTRIP+1) = energd4
 
 table,hlsdiag
 
 {ci;hlsmat,ecp,5201.2,5101.2;print,vls=0,hls=0}                                 !compute and diagonalize SO matrix
 Commands initialized (847), CPU time= 0.02 sec, 718 directives.
 Default parameters read. Elapsed time= 0.20 sec

 Checking input...
 Passed
1


                                         ***  PROGRAM SYSTEM MOLPRO  ***
                                       Copyright, TTI GmbH Stuttgart, 2015
                                    Version 2024.1 linked Wed Jan 31 05:42:09 2024


 **********************************************************************************************************************************
 LABEL *   Pb SO-CI                                                                                                                                                      
  (32 PROC) 64 bit mpp version                                                           DATE: 17-May-24          TIME: 11:37:39  
 **********************************************************************************************************************************

 SHA1:             675817fde4514a4a933b69e420913a90cee4ef91
 **********************************************************************************************************************************

 Memory per process:      1500 MW
 Total memory per node:  24000 MW

 GA preallocation disabled
 GA check disabled

 Variable memory set to 1500.0 MW


 ZSYMEL=XYZ

 SETTING BASIS          =    AUG-CC-PWCVQZ-PP


 Recomputing integrals since basis changed


 Using spherical harmonics

 Library entry Pb   ECP ECP60MDF                 selected for group  1
 Library entry PB     S aug-cc-pwCVQZ-PP     selected for orbital group  1
 Library entry PB     P aug-cc-pwCVQZ-PP     selected for orbital group  1
 Library entry PB     D aug-cc-pwCVQZ-PP     selected for orbital group  1
 Library entry PB     F aug-cc-pwCVQZ-PP     selected for orbital group  1
 Library entry PB     G aug-cc-pwCVQZ-PP     selected for orbital group  1
 Library entry PB     H aug-cc-pwCVQZ-PP     selected for orbital group  1


 PROGRAM * SEWARD (Integral evaluation for generally contracted gaussian basis sets)     Author: Roland Lindh, 1990

 Geometry written to block  1 of record 700

 Orientation using atomic masses  
 Molecule type: Atom
 User-specified symmetry elements: XYZ
 Symmetry elements: XYZ
 Rotational constants:       0.0000000      0.0000000      0.0000000 GHz  (calculated with average atomic masses)

 Point group  Ci  



 ATOMIC COORDINATES

 NR  ATOM    CHARGE       X              Y              Z

   1  PB     22.00    0.000000000    0.000000000    0.000000000

 NUCLEAR CHARGE:                   22
 NUMBER OF PRIMITIVE AOS:         294
 NUMBER OF SYMMETRY AOS:          227
 NUMBER OF CONTRACTIONS:          169   (   86Ag  +   83Au  )
 NUMBER OF INNER CORE ORBITALS:     0   (    0Ag  +    0Au  )
 NUMBER OF OUTER CORE ORBITALS:     9   (    6Ag  +    3Au  )
 NUMBER OF VALENCE ORBITALS:        4   (    1Ag  +    3Au  )


 LX: Ag           LY: Ag           LZ: Ag 


 NUCLEAR REPULSION ENERGY    0.00000000

 EXTRA SYMMETRY OF AOS IN SYMMETRY 1:   1 1 1 1 1 1 1 1 1 1   2 3 4 5 6 2 3 4 5 6   2 3 4 5 6 2 3 4 5 6   2 3 4 5 6 2 3 4 5 6
                                        2 3 4 5 6 2 3 4 5 6   7 8 9101112131415 7   8 9101112131415 7 8   9101112131415 7 8 9
                                       101112131415
 EXTRA SYMMETRY OF AOS IN SYMMETRY 2:   1 2 3 1 2 3 1 2 3 1   2 3 1 2 3 1 2 3 1 2   3 1 2 3 1 2 3 1 2 3   4 5 6 7 8 910 4 5 6
                                        7 8 910 4 5 6 7 8 9  10 4 5 6 7 8 910 4 5   6 7 8 910 4 5 6 7 8   9101112131415161718
                                       192021


 Eigenvalues of metric

         1 0.360E-04 0.673E-03 0.673E-03 0.673E-03 0.673E-03 0.673E-03 0.782E-03 0.407E-02
         2 0.377E-03 0.377E-03 0.377E-03 0.206E-02 0.206E-02 0.206E-02 0.113E-01 0.113E-01


 Contracted 2-electron integrals neglected if value below      1.0D-12
 AO integral compression algorithm  1   Integral accuracy      1.0D-12

     116.130 MB (compressed) written to integral file ( 15.6%)

     Node minimum: 3.670 MB, node maximum: 11.796 MB


 NUMBER OF SORTED TWO-ELECTRON INTEGRALS:    3250015.     BUFFER LENGTH:  32768
 NUMBER OF SEGMENTS:   1  SEGMENT LENGTH:    3250015      RECORD LENGTH: 524288

 Memory used in sort:       3.81 MW

 SORT1 READ    92659037. AND WROTE      598548. INTEGRALS IN      2 RECORDS. CPU TIME:     0.48 SEC, REAL TIME:     0.49 SEC
 SORT2 READ     9613375. AND WROTE    52200630. INTEGRALS IN    320 RECORDS. CPU TIME:     0.09 SEC, REAL TIME:     0.11 SEC

 Node minimum:     3249565.  Node maximum:     3267114. integrals

 OPERATOR DM      FOR CENTER  0  COORDINATES:    0.000000    0.000000    0.000000


 **********************************************************************************************************************************
 DATASETS  * FILE   NREC   LENGTH (MB)   RECORD NAMES
              1      19       29.37       500      610      700      900      950      970     1000      129      960     1100   
                                          VAR    BASINP    GEOM    SYMINP    ZMAT    AOBASIS   BASIS     P2S    ABASIS      S 
                                         1400     1410     1420     1200     1210     1080     1700     1600     1650   
                                           T        V       ECP      H0       H01     AOSYM    OPER      SMH    MOLCAS    

 PROGRAMS   *        TOTAL       INT
 CPU TIMES  *         2.33      2.01
 REAL TIME  *         3.29 SEC
 DISK USED  *        29.74 MB (local),      675.00 MB (total)
 GA USED    *         0.00 MB       (max)       0.00 MB       (current)
 **********************************************************************************************************************************


 Program * Restricted Hartree-Fock

 Orbital guess generated from atomic densities.

 Initial alpha occupancy:   7   6
 Initial beta  occupancy:   7   3

 NELEC=   23   SYM=2   MS2= 3   THRE=1.0D-08   THRD=3.2D-06   THRG=3.2D-06  HFMA2=F  DIIS_START=2   DIIS_MAX=10   DIIS_INCORE=F

 Level shifts:    0.00 (CLOSED)    0.00 (OPEN)    0.30 (GAP_MIN)

 ITER           ETOT              DE          GRAD        DDIFF     DIIS  NEXP   TIME(IT)  TIME(TOT)  DIAG
   1     -191.86187307    -191.86187307     0.00D+00     0.75D-01     0     0       0.02      0.05    start
   2     -191.86404957      -0.00217650     0.93D-03     0.18D-02     1     0       0.02      0.07    diag2
   3     -191.86428527      -0.00023570     0.52D-03     0.46D-03     2     0       0.03      0.10    diag2
   4     -191.86434573      -0.00006045     0.13D-03     0.31D-03     3     0       0.02      0.12    diag2
   5     -191.86435229      -0.00000657     0.33D-04     0.94D-04     4     0       0.03      0.15    diag2
   6     -191.86435333      -0.00000104     0.78D-05     0.54D-04     5     0       0.03      0.18    diag2
   7     -191.86435358      -0.00000024     0.29D-05     0.34D-04     6     0       0.03      0.21    diag2
   8     -191.86435360      -0.00000003     0.96D-06     0.90D-05     7     0       0.02      0.23    fixocc
   9     -191.86435361      -0.00000000     0.31D-06     0.21D-05     8     0       0.02      0.25    diag2
  10     -191.86435361      -0.00000000     0.48D-07     0.27D-06     0     0       0.03      0.28    diag/orth

 Final alpha occupancy:   7   6
 Final beta  occupancy:   7   3

 !RHF STATE 1.2 Energy               -191.864353606955
  RHF One-electron energy            -340.681700420368
  RHF Two-electron energy             148.817346813414
  RHF Kinetic energy                   62.712694108544
  RHF Nuclear energy                    0.000000000000
  RHF Virial quotient                  -3.059418134307

 !RHF STATE 1.2 Dipole moment           0.00000000     0.00000000     0.00000000
 Dipole moment /Debye                   0.00000000     0.00000000     0.00000000

 ELECTRON ORBITALS
 =================

  Orbital  Occupation    Energy    Cen Mu Typ  Coefficients
    1.1     2.00000    -5.94945     1  1  s    0.99998
    2.1     2.00000    -0.84962     1  1  d2-  0.61149    1  1  d1+  0.62407    1  1  d2+  0.29573    1  1  d1-  0.38460
    3.1     2.00000    -0.84962     1  1  d2- -0.27693    1  1  d1+ -0.36696    1  1  d2+  0.76722    1  1  d1-  0.44583
    4.1     2.00000    -0.84962     1  1  d2-  0.73175    1  1  d1+ -0.61159    1  1  d1- -0.26976
    5.1     2.00000    -0.84962     1  1  d1+ -0.31716    1  1  d2+ -0.55334    1  1  d1-  0.76112
    6.1     2.00000    -0.84962     1  1  d0   0.99937
    7.1     2.00000    -0.35278     1  1  s   -0.35027    1  4  s    0.52985    1  5  s    0.53540    1  9  s   -0.30126
    1.2     2.00000    -3.63191     1  1  py   0.92192    1  1  pz  -0.37777
    2.2     2.00000    -3.63191     1  1  px   0.99441
    3.2     2.00000    -3.63191     1  1  py   0.38366    1  1  pz   0.92174
    4.2     1.00000    -0.05163     1  1  px  -0.25128    1  4  px   0.35707    1  5  px   0.40593    1  6  px   0.28820
    5.2     1.00000    -0.05163     1  4  py   0.28015    1  5  py   0.31848    1  5  pz   0.25170
    6.2     1.00000    -0.05163     1  4  pz   0.28015    1  5  py  -0.25170    1  5  pz   0.31848


 HOMO      6.2    -0.051626 =      -1.4048eV
 LUMO      7.2     0.126813 =       3.4508eV
 LUMO-HOMO         0.178439 =       4.8556eV

 Orbitals saved in record  2100.2


 **********************************************************************************************************************************
 DATASETS  * FILE   NREC   LENGTH (MB)   RECORD NAMES
              1      19       29.37       500      610      700      900      950      970     1000      129      960     1100   
                                          VAR    BASINP    GEOM    SYMINP    ZMAT    AOBASIS   BASIS     P2S    ABASIS      S 
                                         1400     1410     1420     1200     1210     1080     1700     1600     1650   
                                           T        V       ECP      H0       H01     AOSYM    OPER      SMH    MOLCAS    

              2       4        0.84       700     1000      520     2100   
                                         GEOM     BASIS   MCVARS     RHF  

 PROGRAMS   *        TOTAL   RHF-SCF       INT
 CPU TIMES  *         2.64      0.31      2.01
 REAL TIME  *         4.74 SEC
 DISK USED  *        32.19 MB (local),      714.20 MB (total)
 GA USED    *         0.00 MB       (max)       0.00 MB       (current)
 **********************************************************************************************************************************
 SETTING NTRIP          =        12.00000000                                  
 SETTING NSING          =        15.00000000                                  

 PROGRAM * MULTI (Direct Multiconfiguration SCF)       Authors: P.J. Knowles, H.-J. Werner (1984)
                                                                D.A. Kreplin, P.J. Knowles, H.-J. Werner (2019)

 Number of closed-shell orbitals:   9 (    6    3)
 Number of active  orbitals:        7 (    1    6)
 Number of external orbitals:     153 (   79   74)

 State symmetry 1

 Number of active electrons:   4    Spin symmetry=Triplet   Space symmetry=1
 Number of states:            12
 Number of CSFs:             120   (135 determinants, 245 intermediate states)

 State symmetry 2

 Number of active electrons:   4    Spin symmetry=Singlet   Space symmetry=1
 Number of states:            15
 Number of CSFs:             126   (261 determinants, 441 intermediate states)

 Molecular orbitals read from record     2100.2  Type=RHF/CANONICAL  
 *** IN SYMMETRY 1 ORBITAL  2 SYMMETRY CONTAMINATION OF 0.674D+00 HAS BEEN REMOVED
 *** IN SYMMETRY 1 ORBITAL  3 SYMMETRY CONTAMINATION OF 0.587D+00 HAS BEEN REMOVED
 *** IN SYMMETRY 1 ORBITAL  4 SYMMETRY CONTAMINATION OF 0.580D+00 HAS BEEN REMOVED
 *** IN SYMMETRY 1 ORBITAL  5 SYMMETRY CONTAMINATION OF 0.564D+00 HAS BEEN REMOVED
 *** IN SYMMETRY 1 ORBITAL  6 SYMMETRY CONTAMINATION OF 0.196D-02 HAS BEEN REMOVED

 EXTRA SYMMETRY OF MOS IN SYMMETRY 1:   1 4 5 3 6 2 1 1 4 6   5 3 2 1 5 4 6 3 2 4   6 5 3 2 115141310 9  1112 8 7 5 3 6 4 2 7
                                       12 81415 9111310 1 5   3 4 6 2 7 812 91114  151310 1 71514 91112   81310 4 3 6 5 2 4 3
                                        5 6 2 1 1 1
 *** IN SYMMETRY 2 ORBITAL  1 SYMMETRY CONTAMINATION OF 0.336D+00 HAS BEEN REMOVED
 *** IN SYMMETRY 2 ORBITAL  2 SYMMETRY CONTAMINATION OF 0.131D+00 HAS BEEN REMOVED
 *** IN SYMMETRY 2 ORBITAL  3 SYMMETRY CONTAMINATION OF 0.326D+00 HAS BEEN REMOVED
 *** IN SYMMETRY 2 ORBITAL  5 SYMMETRY CONTAMINATION OF 0.441D+00 HAS BEEN REMOVED
 *** IN SYMMETRY 2 ORBITAL  6 SYMMETRY CONTAMINATION OF 0.441D+00 HAS BEEN REMOVED
 *** IN SYMMETRY 2 ORBITAL  7 SYMMETRY CONTAMINATION OF 0.720D-03 HAS BEEN REMOVED
 *** IN SYMMETRY 2 ORBITAL  8 SYMMETRY CONTAMINATION OF 0.353D-03 HAS BEEN REMOVED
 *** IN SYMMETRY 2 ORBITAL  9 SYMMETRY CONTAMINATION OF 0.449D-03 HAS BEEN REMOVED
 EXTRA SYMMETRY OF MOS IN SYMMETRY 2:   2 1 3 1 2 3 1 2 3 1   2 3 9 710 8 5 4 6 1   2 3 9 710 8 5 4 6 8  10 7 9 4 5 6 2 1 3 9
                                        7 810 6 4 5 1 2 315  21171314161112192018   9 710 8 6 5 4 1 3 2   810 7 9 6 5 4 1 2 3
                                        1 2 3

 Wavefunction dump at record             2140.2

 Convergence thresholds  0.10E-04 (gradient)  0.10E-05 (energy)

 Weight factors for state symmetry  1:    0.03704   0.03704   0.03704   0.03704   0.03704   0.03704   0.03704   0.03704
                                          0.03704   0.03704   0.03704   0.03704
 Weight factors for state symmetry  2:    0.03704   0.03704   0.03704   0.03704   0.03704   0.03704   0.03704   0.03704
                                          0.03704   0.03704   0.03704   0.03704   0.03704   0.03704   0.03704
 
 Number of orbital rotations:  1243  ( 24 closed/active, 696 closed/virtual, 0 active/active, 523 active/virtual )
 Total number of variables:    6778
 
 Second-order MCSCF: L-BFGS accelerated
 
 ITER  MIC  NCI  NEG     ENERGY(VAR)    ENERGY(PROJ) ENERGY CHANGE       GRAD(0)  GRAD(ORB)   GRAD(CI)      STEP      TIME
   1   13   18    0   -191.67559737    -191.71211199   -0.03651462    0.16778215 0.00156875 0.00000000  0.74E+00      1.15
   2    6   10    0   -191.71093660    -191.71292326   -0.00198666    0.11246614 0.00001196 0.00000000  0.59E-01      2.19
   3    7   12    0   -191.71293017    -191.71293025   -0.00000008    0.00067914 0.00000000 0.00000000  0.44E-03      3.18
   4    2    4    0   -191.71293025    -191.71293025    0.00000000    0.00000004 0.00000000 0.00000000  0.60E-07      3.69

 CONVERGENCE REACHED!  Final gradient:    0.00000000 ( 0.46E-08)
                       Final energy:   -191.71293025
 
 Results for state 1.1 Triplet
 =============================
 !MCSCF STATE 1.1 Triplet Energy              -191.834131278241
 Nuclear energy                                  0.00000000
 Kinetic energy                                 62.91758846
 One electron energy                          -336.50385129
 Two electron energy                           144.66972001
 Virial ratio                                    4.04897463
 
 !MCSCF STATE 1.1 Triplet Dipole moment          0.00000000     0.00000000     0.00000000
 Dipole moment /Debye                            0.00000000     0.00000000     0.00000000
 
 Results for state 2.1 Triplet
 =============================
 !MCSCF STATE 2.1 Triplet Energy              -191.834131277914
 Nuclear energy                                  0.00000000
 Kinetic energy                                 62.91758847
 One electron energy                          -336.50385131
 Two electron energy                           144.66972003
 Virial ratio                                    4.04897463
 
 !MCSCF STATE 2.1 Triplet Dipole moment          0.00000000     0.00000000     0.00000000
 Dipole moment /Debye                            0.00000000     0.00000000     0.00000000
 
 Results for state 3.1 Triplet
 =============================
 !MCSCF STATE 3.1 Triplet Energy              -191.834131277862
 Nuclear energy                                  0.00000000
 Kinetic energy                                 62.91758847
 One electron energy                          -336.50385131
 Two electron energy                           144.66972003
 Virial ratio                                    4.04897463
 
 !MCSCF STATE 3.1 Triplet Dipole moment          0.00000000     0.00000000     0.00000000
 Dipole moment /Debye                            0.00000000     0.00000000     0.00000000
 
 Results for state 4.1 Triplet
 =============================
 !MCSCF STATE 4.1 Triplet Energy              -191.670554360170
 Nuclear energy                                  0.00000000
 Kinetic energy                                 62.41038028
 One electron energy                          -331.72305591
 Two electron energy                           140.05250155
 Virial ratio                                    4.07113261
 
 !MCSCF STATE 4.1 Triplet Dipole moment          0.00000000     0.00000000     0.00000000
 Dipole moment /Debye                            0.00000000     0.00000000     0.00000000
 
 Results for state 5.1 Triplet
 =============================
 !MCSCF STATE 5.1 Triplet Energy              -191.670554360154
 Nuclear energy                                  0.00000000
 Kinetic energy                                 62.41038028
 One electron energy                          -331.72305591
 Two electron energy                           140.05250155
 Virial ratio                                    4.07113261
 
 !MCSCF STATE 5.1 Triplet Dipole moment          0.00000000     0.00000000     0.00000000
 Dipole moment /Debye                            0.00000000     0.00000000     0.00000000
 
 Results for state 6.1 Triplet
 =============================
 !MCSCF STATE 6.1 Triplet Energy              -191.670554360107
 Nuclear energy                                  0.00000000
 Kinetic energy                                 62.41038028
 One electron energy                          -331.72305590
 Two electron energy                           140.05250154
 Virial ratio                                    4.07113261
 
 !MCSCF STATE 6.1 Triplet Dipole moment          0.00000000     0.00000000     0.00000000
 Dipole moment /Debye                            0.00000000     0.00000000     0.00000000
 
 Results for state 7.1 Triplet
 =============================
 !MCSCF STATE 7.1 Triplet Energy              -191.670554360032
 Nuclear energy                                  0.00000000
 Kinetic energy                                 62.41038028
 One electron energy                          -331.72305589
 Two electron energy                           140.05250153
 Virial ratio                                    4.07113261
 
 !MCSCF STATE 7.1 Triplet Dipole moment          0.00000000     0.00000000     0.00000000
 Dipole moment /Debye                            0.00000000     0.00000000     0.00000000
 
 Results for state 8.1 Triplet
 =============================
 !MCSCF STATE 8.1 Triplet Energy              -191.670554360027
 Nuclear energy                                  0.00000000
 Kinetic energy                                 62.41038028
 One electron energy                          -331.72305589
 Two electron energy                           140.05250153
 Virial ratio                                    4.07113261
 
 !MCSCF STATE 8.1 Triplet Dipole moment          0.00000000     0.00000000     0.00000000
 Dipole moment /Debye                            0.00000000     0.00000000     0.00000000
 
 Results for state 9.1 Triplet
 =============================
 !MCSCF STATE 9.1 Triplet Energy              -191.667254689828
 Nuclear energy                                  0.00000000
 Kinetic energy                                 62.47373341
 One electron energy                          -332.04522080
 Two electron energy                           140.37796611
 Virial ratio                                    4.06796543
 
 !MCSCF STATE 9.1 Triplet Dipole moment          0.00000000     0.00000000     0.00000000
 Dipole moment /Debye                            0.00000000     0.00000000     0.00000000
 
 Results for state 10.1 Triplet
 ==============================
 !MCSCF STATE 10.1 Triplet Energy             -191.667254689816
 Nuclear energy                                  0.00000000
 Kinetic energy                                 62.47373341
 One electron energy                          -332.04522078
 Two electron energy                           140.37796609
 Virial ratio                                    4.06796544
 
 !MCSCF STATE 10.1 Triplet Dipole moment         0.00000000     0.00000000     0.00000000
 Dipole moment /Debye                            0.00000000     0.00000000     0.00000000
 
 Results for state 11.1 Triplet
 ==============================
 !MCSCF STATE 11.1 Triplet Energy             -191.667254689783
 Nuclear energy                                  0.00000000
 Kinetic energy                                 62.47373341
 One electron energy                          -332.04522081
 Two electron energy                           140.37796612
 Virial ratio                                    4.06796543
 
 !MCSCF STATE 11.1 Triplet Dipole moment         0.00000000     0.00000000     0.00000000
 Dipole moment /Debye                            0.00000000     0.00000000     0.00000000
 
 Results for state 12.1 Triplet
 ==============================
 !MCSCF STATE 12.1 Triplet Energy             -191.664788218956
 Nuclear energy                                  0.00000000
 Kinetic energy                                 62.41024839
 One electron energy                          -331.72204246
 Two electron energy                           140.05725424
 Virial ratio                                    4.07104671
 
 !MCSCF STATE 12.1 Triplet Dipole moment         0.00000000     0.00000000     0.00000000
 Dipole moment /Debye                            0.00000000     0.00000000     0.00000000
 
 Results for state 1.1 Singlet
 =============================
 !MCSCF STATE 1.1 Singlet Energy              -191.799436652991
 Nuclear energy                                  0.00000000
 Kinetic energy                                 62.88001026
 One electron energy                          -336.28488553
 Two electron energy                           144.48544888
 Virial ratio                                    4.05024500
 
 !MCSCF STATE 1.1 Singlet Dipole moment          0.00000000     0.00000000     0.00000000
 Dipole moment /Debye                            0.00000000     0.00000000     0.00000000
 
 Results for state 2.1 Singlet
 =============================
 !MCSCF STATE 2.1 Singlet Energy              -191.799436652989
 Nuclear energy                                  0.00000000
 Kinetic energy                                 62.88001026
 One electron energy                          -336.28488553
 Two electron energy                           144.48544888
 Virial ratio                                    4.05024500
 
 !MCSCF STATE 2.1 Singlet Dipole moment          0.00000000     0.00000000     0.00000000
 Dipole moment /Debye                            0.00000000     0.00000000     0.00000000
 
 Results for state 3.1 Singlet
 =============================
 !MCSCF STATE 3.1 Singlet Energy              -191.799436652610
 Nuclear energy                                  0.00000000
 Kinetic energy                                 62.88001026
 One electron energy                          -336.28488554
 Two electron energy                           144.48544889
 Virial ratio                                    4.05024500
 
 !MCSCF STATE 3.1 Singlet Dipole moment          0.00000000     0.00000000     0.00000000
 Dipole moment /Debye                            0.00000000     0.00000000     0.00000000
 
 Results for state 4.1 Singlet
 =============================
 !MCSCF STATE 4.1 Singlet Energy              -191.799436652569
 Nuclear energy                                  0.00000000
 Kinetic energy                                 62.88001026
 One electron energy                          -336.28488554
 Two electron energy                           144.48544889
 Virial ratio                                    4.05024500
 
 !MCSCF STATE 4.1 Singlet Dipole moment          0.00000000     0.00000000     0.00000000
 Dipole moment /Debye                            0.00000000     0.00000000     0.00000000
 
 Results for state 5.1 Singlet
 =============================
 !MCSCF STATE 5.1 Singlet Energy              -191.799436652457
 Nuclear energy                                  0.00000000
 Kinetic energy                                 62.88001026
 One electron energy                          -336.28488555
 Two electron energy                           144.48544890
 Virial ratio                                    4.05024500
 
 !MCSCF STATE 5.1 Singlet Dipole moment          0.00000000     0.00000000     0.00000000
 Dipole moment /Debye                            0.00000000     0.00000000     0.00000000
 
 Results for state 6.1 Singlet
 =============================
 !MCSCF STATE 6.1 Singlet Energy              -191.765166009485
 Nuclear energy                                  0.00000000
 Kinetic energy                                 62.81583834
 One electron energy                          -335.87106894
 Two electron energy                           144.10590293
 Virial ratio                                    4.05281552
 
 !MCSCF STATE 6.1 Singlet Dipole moment          0.00000000     0.00000000     0.00000000
 Dipole moment /Debye                            0.00000000     0.00000000     0.00000000
 
 Results for state 7.1 Singlet
 =============================
 !MCSCF STATE 7.1 Singlet Energy              -191.674400097313
 Nuclear energy                                  0.00000000
 Kinetic energy                                 62.41046458
 One electron energy                          -331.72370427
 Two electron energy                           140.04930418
 Virial ratio                                    4.07119009
 
 !MCSCF STATE 7.1 Singlet Dipole moment          0.00000000     0.00000000     0.00000000
 Dipole moment /Debye                            0.00000000     0.00000000     0.00000000
 
 Results for state 8.1 Singlet
 =============================
 !MCSCF STATE 8.1 Singlet Energy              -191.674400097248
 Nuclear energy                                  0.00000000
 Kinetic energy                                 62.41046458
 One electron energy                          -331.72370426
 Two electron energy                           140.04930417
 Virial ratio                                    4.07119009
 
 !MCSCF STATE 8.1 Singlet Dipole moment          0.00000000     0.00000000     0.00000000
 Dipole moment /Debye                            0.00000000     0.00000000     0.00000000
 
 Results for state 9.1 Singlet
 =============================
 !MCSCF STATE 9.1 Singlet Energy              -191.674400097185
 Nuclear energy                                  0.00000000
 Kinetic energy                                 62.41046458
 One electron energy                          -331.72370425
 Two electron energy                           140.04930416
 Virial ratio                                    4.07119009
 
 !MCSCF STATE 9.1 Singlet Dipole moment          0.00000000     0.00000000     0.00000000
 Dipole moment /Debye                            0.00000000     0.00000000     0.00000000
 
 Results for state 10.1 Singlet
 ==============================
 !MCSCF STATE 10.1 Singlet Energy             -191.658926474388
 Nuclear energy                                  0.00000000
 Kinetic energy                                 62.51342598
 One electron energy                          -332.27301174
 Two electron energy                           140.61408526
 Virial ratio                                    4.06588422
 
 !MCSCF STATE 10.1 Singlet Dipole moment         0.00000000     0.00000000     0.00000000
 Dipole moment /Debye                            0.00000000     0.00000000     0.00000000
 
 Results for state 11.1 Singlet
 ==============================
 !MCSCF STATE 11.1 Singlet Energy             -191.658926474351
 Nuclear energy                                  0.00000000
 Kinetic energy                                 62.51342598
 One electron energy                          -332.27301174
 Two electron energy                           140.61408526
 Virial ratio                                    4.06588422
 
 !MCSCF STATE 11.1 Singlet Dipole moment         0.00000000     0.00000000     0.00000000
 Dipole moment /Debye                            0.00000000     0.00000000     0.00000000
 
 Results for state 12.1 Singlet
 ==============================
 !MCSCF STATE 12.1 Singlet Energy             -191.658926474341
 Nuclear energy                                  0.00000000
 Kinetic energy                                 62.51342598
 One electron energy                          -332.27301176
 Two electron energy                           140.61408528
 Virial ratio                                    4.06588422
 
 !MCSCF STATE 12.1 Singlet Dipole moment         0.00000000     0.00000000     0.00000000
 Dipole moment /Debye                            0.00000000     0.00000000     0.00000000
 
 Results for state 13.1 Singlet
 ==============================
 !MCSCF STATE 13.1 Singlet Energy             -191.658926474214
 Nuclear energy                                  0.00000000
 Kinetic energy                                 62.51342599
 One electron energy                          -332.27301177
 Two electron energy                           140.61408530
 Virial ratio                                    4.06588422
 
 !MCSCF STATE 13.1 Singlet Dipole moment         0.00000000     0.00000000     0.00000000
 Dipole moment /Debye                            0.00000000     0.00000000     0.00000000
 
 Results for state 14.1 Singlet
 ==============================
 !MCSCF STATE 14.1 Singlet Energy             -191.658926474211
 Nuclear energy                                  0.00000000
 Kinetic energy                                 62.51342599
 One electron energy                          -332.27301177
 Two electron energy                           140.61408530
 Virial ratio                                    4.06588422
 
 !MCSCF STATE 14.1 Singlet Dipole moment         0.00000000     0.00000000     0.00000000
 Dipole moment /Debye                            0.00000000     0.00000000     0.00000000
 
 Results for state 15.1 Singlet
 ==============================
 !MCSCF STATE 15.1 Singlet Energy             -191.647216838687
 Nuclear energy                                  0.00000000
 Kinetic energy                                 62.56702036
 One electron energy                          -332.59358499
 Two electron energy                           140.94636815
 Virial ratio                                    4.06307086
 
 !MCSCF STATE 15.1 Singlet Dipole moment         0.00000000     0.00000000     0.00000000
 Dipole moment /Debye                            0.00000000     0.00000000     0.00000000
 
 State-averaged charge density matrix saved on record 2140.2 (density set 1)
 
 No non-zero expectation values
 
 Expectation values for two-electron operators:
 
 ? Warning
 ? Transition properties are only calculated between states of the same symmetry
 ? The problem occurs in mu_properties_expec2

 !MCSCF expec      <1.1 Triplet|LXLX|1.1 Triplet>     0.000000000368
 !MCSCF expec      <2.1 Triplet|LXLX|2.1 Triplet>     0.999999999684
 !MCSCF expec      <3.1 Triplet|LXLX|3.1 Triplet>     1.000000000000
 !MCSCF expec      <4.1 Triplet|LXLX|4.1 Triplet>     0.156577363469
 !MCSCF expec      <5.1 Triplet|LXLX|5.1 Triplet>     1.000000000001
 !MCSCF expec      <6.1 Triplet|LXLX|6.1 Triplet>     1.000000001126
 !MCSCF expec      <7.1 Triplet|LXLX|7.1 Triplet>     3.999999997491
 !MCSCF expec      <8.1 Triplet|LXLX|8.1 Triplet>     3.843416126732
 !MCSCF expec      <9.1 Triplet|LXLX|9.1 Triplet>     0.999999979083
 !MCSCF expec    <10.1 Triplet|LXLX|10.1 Triplet>     0.000000012837
 !MCSCF expec    <11.1 Triplet|LXLX|11.1 Triplet>     1.000000000000
 !MCSCF expec    <12.1 Triplet|LXLX|12.1 Triplet>    -0.000000000000
 !MCSCF expec      <1.1 Singlet|LXLX|1.1 Singlet>     3.992012727580
 !MCSCF expec      <2.1 Singlet|LXLX|2.1 Singlet>     3.999999999969
 !MCSCF expec      <3.1 Singlet|LXLX|3.1 Singlet>     1.000000000002
 !MCSCF expec      <4.1 Singlet|LXLX|4.1 Singlet>     1.000000000000
 !MCSCF expec      <5.1 Singlet|LXLX|5.1 Singlet>     0.007986973968
 !MCSCF expec      <6.1 Singlet|LXLX|6.1 Singlet>    -0.000000000000
 !MCSCF expec      <7.1 Singlet|LXLX|7.1 Singlet>     1.000000000000
 !MCSCF expec      <8.1 Singlet|LXLX|8.1 Singlet>     0.999999999962
 !MCSCF expec      <9.1 Singlet|LXLX|9.1 Singlet>     0.000000000007
 !MCSCF expec    <10.1 Singlet|LXLX|10.1 Singlet>     3.120427359310
 !MCSCF expec    <11.1 Singlet|LXLX|11.1 Singlet>     3.999999989618
 !MCSCF expec    <12.1 Singlet|LXLX|12.1 Singlet>     1.000000007735
 !MCSCF expec    <13.1 Singlet|LXLX|13.1 Singlet>     1.000000000000
 !MCSCF expec    <14.1 Singlet|LXLX|14.1 Singlet>     0.879575725073
 !MCSCF expec    <15.1 Singlet|LXLX|15.1 Singlet>    -0.000000000000
 
 !MCSCF expec      <1.1 Triplet|LYLY|1.1 Triplet>     1.000000000000
 !MCSCF expec      <2.1 Triplet|LYLY|2.1 Triplet>     1.000000000000
 !MCSCF expec      <3.1 Triplet|LYLY|3.1 Triplet>    -0.000000000000
 !MCSCF expec      <4.1 Triplet|LYLY|4.1 Triplet>     3.593533266062
 !MCSCF expec      <5.1 Triplet|LYLY|5.1 Triplet>     3.999999999998
 !MCSCF expec      <6.1 Triplet|LYLY|6.1 Triplet>     1.000000000124
 !MCSCF expec      <7.1 Triplet|LYLY|7.1 Triplet>     0.999999995857
 !MCSCF expec      <8.1 Triplet|LYLY|8.1 Triplet>     0.406456600303
 !MCSCF expec      <9.1 Triplet|LYLY|9.1 Triplet>     1.000000000000
 !MCSCF expec    <10.1 Triplet|LYLY|10.1 Triplet>     1.000000000000
 !MCSCF expec    <11.1 Triplet|LYLY|11.1 Triplet>    -0.000000000000
 !MCSCF expec    <12.1 Triplet|LYLY|12.1 Triplet>    -0.000000000000
 !MCSCF expec      <1.1 Singlet|LYLY|1.1 Singlet>     0.849352213069
 !MCSCF expec      <2.1 Singlet|LYLY|2.1 Singlet>     0.999999999074
 !MCSCF expec      <3.1 Singlet|LYLY|3.1 Singlet>     1.000000000001
 !MCSCF expec      <4.1 Singlet|LYLY|4.1 Singlet>     4.000000000000
 !MCSCF expec      <5.1 Singlet|LYLY|5.1 Singlet>     3.150645052973
 !MCSCF expec      <6.1 Singlet|LYLY|6.1 Singlet>    -0.000000000000
 !MCSCF expec      <7.1 Singlet|LYLY|7.1 Singlet>    -0.000000000000
 !MCSCF expec      <8.1 Singlet|LYLY|8.1 Singlet>     1.000000000000
 !MCSCF expec      <9.1 Singlet|LYLY|9.1 Singlet>     1.000000000000
 !MCSCF expec    <10.1 Singlet|LYLY|10.1 Singlet>     0.005045275389
 !MCSCF expec    <11.1 Singlet|LYLY|11.1 Singlet>     0.999999990543
 !MCSCF expec    <12.1 Singlet|LYLY|12.1 Singlet>     0.999999998652
 !MCSCF expec    <13.1 Singlet|LYLY|13.1 Singlet>     4.000000000000
 !MCSCF expec    <14.1 Singlet|LYLY|14.1 Singlet>     3.994955000438
 !MCSCF expec    <15.1 Singlet|LYLY|15.1 Singlet>    -0.000000000000
 
 !MCSCF expec      <1.1 Triplet|LZLZ|1.1 Triplet>     0.999999999632
 !MCSCF expec      <2.1 Triplet|LZLZ|2.1 Triplet>     0.000000000316
 !MCSCF expec      <3.1 Triplet|LZLZ|3.1 Triplet>     1.000000000000
 !MCSCF expec      <4.1 Triplet|LZLZ|4.1 Triplet>     2.249889370469
 !MCSCF expec      <5.1 Triplet|LZLZ|5.1 Triplet>     1.000000000000
 !MCSCF expec      <6.1 Triplet|LZLZ|6.1 Triplet>     3.999999998749
 !MCSCF expec      <7.1 Triplet|LZLZ|7.1 Triplet>     1.000000006652
 !MCSCF expec      <8.1 Triplet|LZLZ|8.1 Triplet>     1.750127272966
 !MCSCF expec      <9.1 Triplet|LZLZ|9.1 Triplet>     0.000000020917
 !MCSCF expec    <10.1 Triplet|LZLZ|10.1 Triplet>     0.999999987163
 !MCSCF expec    <11.1 Triplet|LZLZ|11.1 Triplet>     1.000000000000
 !MCSCF expec    <12.1 Triplet|LZLZ|12.1 Triplet>    -0.000000000000
 !MCSCF expec      <1.1 Singlet|LZLZ|1.1 Singlet>     1.158635059351
 !MCSCF expec      <2.1 Singlet|LZLZ|2.1 Singlet>     1.000000000957
 !MCSCF expec      <3.1 Singlet|LZLZ|3.1 Singlet>     3.999999999997
 !MCSCF expec      <4.1 Singlet|LZLZ|4.1 Singlet>     1.000000000000
 !MCSCF expec      <5.1 Singlet|LZLZ|5.1 Singlet>     2.841367973059
 !MCSCF expec      <6.1 Singlet|LZLZ|6.1 Singlet>    -0.000000000000
 !MCSCF expec      <7.1 Singlet|LZLZ|7.1 Singlet>     1.000000000000
 !MCSCF expec      <8.1 Singlet|LZLZ|8.1 Singlet>     0.000000000038
 !MCSCF expec      <9.1 Singlet|LZLZ|9.1 Singlet>     0.999999999993
 !MCSCF expec    <10.1 Singlet|LZLZ|10.1 Singlet>     2.874527365300
 !MCSCF expec    <11.1 Singlet|LZLZ|11.1 Singlet>     1.000000019839
 !MCSCF expec    <12.1 Singlet|LZLZ|12.1 Singlet>     3.999999993614
 !MCSCF expec    <13.1 Singlet|LZLZ|13.1 Singlet>     1.000000000000
 !MCSCF expec    <14.1 Singlet|LZLZ|14.1 Singlet>     1.125469274489
 !MCSCF expec    <15.1 Singlet|LZLZ|15.1 Singlet>    -0.000000000000
 
 !MCSCF expec      <1.1 Triplet|L**2|1.1 Triplet>     2.000000000000
 !MCSCF expec      <2.1 Triplet|L**2|2.1 Triplet>     2.000000000000
 !MCSCF expec      <3.1 Triplet|L**2|3.1 Triplet>     2.000000000000
 !MCSCF expec      <4.1 Triplet|L**2|4.1 Triplet>     6.000000000000
 !MCSCF expec      <5.1 Triplet|L**2|5.1 Triplet>     6.000000000000
 !MCSCF expec      <6.1 Triplet|L**2|6.1 Triplet>     6.000000000000
 !MCSCF expec      <7.1 Triplet|L**2|7.1 Triplet>     6.000000000000
 !MCSCF expec      <8.1 Triplet|L**2|8.1 Triplet>     6.000000000000
 !MCSCF expec      <9.1 Triplet|L**2|9.1 Triplet>     2.000000000000
 !MCSCF expec    <10.1 Triplet|L**2|10.1 Triplet>     2.000000000000
 !MCSCF expec    <11.1 Triplet|L**2|11.1 Triplet>     2.000000000000
 !MCSCF expec    <12.1 Triplet|L**2|12.1 Triplet>    -0.000000000000
 !MCSCF expec      <1.1 Singlet|L**2|1.1 Singlet>     6.000000000000
 !MCSCF expec      <2.1 Singlet|L**2|2.1 Singlet>     6.000000000000
 !MCSCF expec      <3.1 Singlet|L**2|3.1 Singlet>     6.000000000000
 !MCSCF expec      <4.1 Singlet|L**2|4.1 Singlet>     6.000000000000
 !MCSCF expec      <5.1 Singlet|L**2|5.1 Singlet>     6.000000000000
 !MCSCF expec      <6.1 Singlet|L**2|6.1 Singlet>    -0.000000000000
 !MCSCF expec      <7.1 Singlet|L**2|7.1 Singlet>     2.000000000000
 !MCSCF expec      <8.1 Singlet|L**2|8.1 Singlet>     2.000000000000
 !MCSCF expec      <9.1 Singlet|L**2|9.1 Singlet>     2.000000000000
 !MCSCF expec    <10.1 Singlet|L**2|10.1 Singlet>     6.000000000000
 !MCSCF expec    <11.1 Singlet|L**2|11.1 Singlet>     6.000000000000
 !MCSCF expec    <12.1 Singlet|L**2|12.1 Singlet>     6.000000000000
 !MCSCF expec    <13.1 Singlet|L**2|13.1 Singlet>     6.000000000000
 !MCSCF expec    <14.1 Singlet|L**2|14.1 Singlet>     6.000000000000
 !MCSCF expec    <15.1 Singlet|L**2|15.1 Singlet>    -0.000000000000
 
 EXTRA SYMMETRY OF MOS IN SYMMETRY 1:   1 2 4 6 3 5 1 1 2 4   6 3 5 1 2 4 6 3 5 2   4 6 5 3 1 9 711 812  14151310 2 4 6 5 3 9
                                        711 81214151310 1 2   4 6 5 3 9 711 81215  141310 1 9 711 81214  151310 2 4 6 3 5 4 2
                                        6 3 5 1 1 1
 EXTRA SYMMETRY OF MOS IN SYMMETRY 2:   3 1 2 2 1 3 2 1 3 3   1 2 4 6 5 810 9 7 3   1 2 4 6 5 810 9 7 4   6 5 810 7 9 3 1 2 4
                                        6 510 8 9 7 3 1 211  19122113141615172018   4 6 5 810 9 7 3 1 2   4 6 5 810 9 7 3 1 2
                                        3 1 2
 
  NATURAL ORBITALS (STATE AVERAGED)
  =================================

  Orbital  Occupation    Energy    Cen Mu Typ  Coefficients
    1.1     2.00000    -6.28479     1  1  s    0.99849
    2.1     2.00000    -1.18519     1  1  d0   1.00148
    3.1     2.00000    -1.18519     1  1  d1+  1.00148
    4.1     2.00000    -1.18519     1  1  d1-  1.00148
    5.1     2.00000    -1.18519     1  1  d2-  1.00148
    6.1     2.00000    -1.18519     1  1  d2+  1.00148
    7.1     1.97226    -0.65232     1  1  s   -0.37236    1  4  s    0.60455    1  5  s    0.60805    1  9  s   -0.31607
    1.2     2.00000    -3.96750     1  1  pz   0.99980
    2.2     2.00000    -3.96750     1  1  px   0.99980
    3.2     2.00000    -3.96750     1  1  py   0.99980
    4.2     0.45355    -0.11259     1  1  py  -0.31421    1  4  py   0.50968    1  5  py   0.46944
    5.2     0.45355    -0.11259     1  1  px  -0.31421    1  4  px   0.50968    1  5  px   0.46944
    6.2     0.45355    -0.11259     1  1  pz  -0.31421    1  4  pz   0.50968    1  5  pz   0.46944
    7.2     0.22237     0.01811     1 10  py   1.15412
    8.2     0.22237     0.01811     1 10  px   1.15412
    9.2     0.22237     0.01811     1 10  pz   1.15412
 
 Natural orbital dump (state averaged) at molpro section 2140.2 (Orbital set 2)
 
 Transform the CI vectors
 
 CI Coefficients of symmetry 1 (Triplet)
 =======================================

 State:              1               2               3               4               5               6               7
 2 aa0000      -0.00001891      0.98565868     -0.00000009      0.00000000     -0.00000000      0.00000000      0.00000000
 2 0aa000       0.00000003      0.00000009      0.98565867      0.00000000     -0.00000005      0.00000000     -0.00000000
 2 a0a000       0.98565867      0.00001891     -0.00000003      0.00000000      0.00000000      0.00000000     -0.00000005
 2 0a00a0       0.00000000     -0.00000000      0.00000000      0.79437207      0.00000083     -0.00002827      0.00001620
 2 a00a00       0.00000000     -0.00000000      0.00000000     -0.25833151     -0.00000014      0.00000266     -0.00005557
 2 0a0a00       0.00000187     -0.09740373      0.00000001      0.00002627      0.00000020      0.70181965      0.00001174
 2 0a000a       0.00000000      0.00000001      0.09740381     -0.00000076      0.70181965     -0.00000020      0.00000049
 2 00aa00      -0.09740373     -0.00000187      0.00000000     -0.00000436     -0.00000049     -0.00001174      0.70181964
 2 a0000a       0.09740380      0.00000187     -0.00000000     -0.00000436     -0.00000049     -0.00001174      0.70181963
 2 00a0a0      -0.00000000     -0.00000001     -0.09740373     -0.00000076      0.70181963     -0.00000020      0.00000049
 2 a000a0      -0.00000187      0.09740373     -0.00000001      0.00002627      0.00000020      0.70181962      0.00001174
 2 00a00a       0.00000000     -0.00000000      0.00000000     -0.53604054     -0.00000069      0.00002561      0.00003937
 0 aa2000       0.00000178     -0.09255849      0.00000001     -0.00000000      0.00000000     -0.00000000     -0.00000000
 0 a2a000      -0.09255849     -0.00000178      0.00000000     -0.00000000     -0.00000000     -0.00000000      0.00000000
 0 2aa000      -0.00000000     -0.00000001     -0.09255849     -0.00000000      0.00000000     -0.00000000      0.00000000
 0 2a00a0      -0.00000000      0.00000000     -0.00000000     -0.06830386     -0.00000007      0.00000243     -0.00000137
 0 0a20a0      -0.00000000      0.00000000     -0.00000000     -0.06816836     -0.00000007      0.00000242     -0.00000141
 0 a20a00      -0.00000000      0.00000000     -0.00000000      0.02186596      0.00000001     -0.00000022      0.00000478
 0 a02a00      -0.00000000      0.00000000     -0.00000000      0.02251510      0.00000001     -0.00000024      0.00000477
 0 0a2a00      -0.00000015      0.00759094     -0.00000000     -0.00000226     -0.00000002     -0.06045713     -0.00000101
 0 2a000a      -0.00000000     -0.00000000     -0.00759095      0.00000007     -0.06045713      0.00000002     -0.00000004
 0 02aa00       0.00759094      0.00000015     -0.00000000      0.00000038      0.00000004      0.00000101     -0.06045712
 0 a2000a      -0.00759095     -0.00000015      0.00000000      0.00000038      0.00000004      0.00000101     -0.06045712
 0 a020a0       0.00000015     -0.00759094      0.00000000     -0.00000226     -0.00000002     -0.06045712     -0.00000101
 0 20a0a0       0.00000000      0.00000000      0.00759094      0.00000007     -0.06045712      0.00000002     -0.00000004
 0 0a200a      -0.00000000     -0.00000000     -0.01729452      0.00000006     -0.06011469      0.00000002     -0.00000004
 0 2a0a00      -0.00000033      0.01729452     -0.00000000     -0.00000225     -0.00000002     -0.06011469     -0.00000101
 0 20aa00       0.01729452      0.00000033     -0.00000000      0.00000037      0.00000004      0.00000101     -0.06011469
 0 02a0a0       0.00000000      0.00000000      0.01729452      0.00000006     -0.06011469      0.00000002     -0.00000004
 0 a0200a      -0.01729452     -0.00000033      0.00000000      0.00000037      0.00000004      0.00000101     -0.06011469
 0 a200a0       0.00000033     -0.01729452      0.00000000     -0.00000225     -0.00000002     -0.06011469     -0.00000101
 0 02a00a      -0.00000000      0.00000000     -0.00000000      0.04578876      0.00000006     -0.00000219     -0.00000340
 0 20a00a      -0.00000000     -0.00000000      0.00000000      0.04630240      0.00000006     -0.00000221     -0.00000336
 
 Energy:     -191.83413128   -191.83413128   -191.83413128   -191.67055436   -191.67055436   -191.67055436   -191.67055436

 State:              8               9              10              11              12
 2 aa0000       0.00000000     -0.13884489      0.00002008      0.00000002      0.00000000
 2 0aa000       0.00000000     -0.00000002      0.00000008     -0.13884494      0.00000000
 2 a0a000      -0.00000000     -0.00002008     -0.13884494     -0.00000008      0.00000000
 2 0a00a0      -0.16033539     -0.00000000      0.00000000      0.00000000      0.57296527
 2 a00a00       0.76811407     -0.00000000      0.00000000      0.00000000      0.57296529
 2 0a0a00       0.00000641     -0.69504689      0.00010052      0.00000012     -0.00000000
 2 0a000a      -0.00000012      0.00000012     -0.00000040      0.69504690     -0.00000000
 2 00aa00       0.00004931     -0.00010052     -0.69504690     -0.00000040      0.00000000
 2 a0000a       0.00004931      0.00010052      0.69504690      0.00000040     -0.00000000
 2 00a0a0      -0.00000012     -0.00000012      0.00000040     -0.69504692     -0.00000000
 2 a000a0       0.00000641      0.69504692     -0.00010052     -0.00000012      0.00000000
 2 00a00a      -0.60777869      0.00000000      0.00000000     -0.00000000      0.57296529
 0 aa2000      -0.00000000      0.01545623     -0.00000224     -0.00000000     -0.00000000
 0 a2a000       0.00000000      0.00000224      0.01545623      0.00000001     -0.00000000
 0 2aa000      -0.00000000      0.00000000     -0.00000001      0.01545623      0.00000000
 0 2a00a0       0.01343705      0.00000000     -0.00000000     -0.00000000     -0.04961192
 0 0a20a0       0.01410839      0.00000000     -0.00000000     -0.00000000     -0.04961192
 0 a20a00      -0.06608972      0.00000000     -0.00000000     -0.00000000     -0.04961192
 0 a02a00      -0.06587140      0.00000000     -0.00000000     -0.00000000     -0.04961192
 0 0a2a00      -0.00000055      0.06000803     -0.00000868     -0.00000001      0.00000000
 0 2a000a       0.00000001     -0.00000001      0.00000003     -0.06000803      0.00000000
 0 02aa00      -0.00000425      0.00000868      0.06000803      0.00000003     -0.00000000
 0 a2000a      -0.00000425     -0.00000868     -0.06000803     -0.00000003      0.00000000
 0 a020a0      -0.00000055     -0.06000803      0.00000868      0.00000001     -0.00000000
 0 20a0a0       0.00000001      0.00000001     -0.00000003      0.06000803      0.00000000
 0 0a200a       0.00000001     -0.00000001      0.00000003     -0.05752946      0.00000000
 0 2a0a00      -0.00000055      0.05752946     -0.00000832     -0.00000001      0.00000000
 0 20aa00      -0.00000422      0.00000832      0.05752946      0.00000003     -0.00000000
 0 02a0a0       0.00000001      0.00000001     -0.00000003      0.05752947      0.00000000
 0 a0200a      -0.00000422     -0.00000832     -0.05752947     -0.00000003      0.00000000
 0 a200a0      -0.00000055     -0.05752947      0.00000832      0.00000001     -0.00000000
 0 02a00a       0.05243435     -0.00000000     -0.00000000      0.00000000     -0.04961192
 0 20a00a       0.05198134     -0.00000000     -0.00000000      0.00000000     -0.04961192
 
 Energy:     -191.67055436   -191.66725469   -191.66725469   -191.66725469   -191.66478822
 
 
 CI Coefficients of symmetry 1 (Singlet)
 =======================================

 State:              1               2               3               4               5               6               7
 2 020000      -0.03555756     -0.00000093     -0.00000001      0.00000000      0.79492956      0.54469143     -0.00000000
 2 200000       0.70620798      0.00004921     -0.00000005     -0.00000002     -0.36667104      0.54469142     -0.00000000
 2 ab0000       0.00000006     -0.00000075      0.68911757      0.00000044      0.00000001      0.00000000      0.00000000
 2 ba0000      -0.00000006      0.00000075     -0.68911757     -0.00000044     -0.00000001     -0.00000000     -0.00000000
 2 0ba000      -0.00000002     -0.00000010      0.00000044     -0.68911756     -0.00000000      0.00000000      0.00000004
 2 0ab000       0.00000002      0.00000010     -0.00000044      0.68911756      0.00000000     -0.00000000     -0.00000004
 2 b0a000       0.00004873     -0.68911756     -0.00000075      0.00000010      0.00000138      0.00000000     -0.00000000
 2 a0b000      -0.00004873      0.68911756      0.00000075     -0.00000010     -0.00000138     -0.00000000      0.00000000
 2 002000      -0.67065040     -0.00004828      0.00000006      0.00000002     -0.42825853      0.54469141     -0.00000000
 2 a00b00       0.10308564      0.00000718     -0.00000001     -0.00000000     -0.05352321      0.11533102      0.00000000
 2 b00a00      -0.10308564     -0.00000718      0.00000001      0.00000000      0.05352321     -0.11533102     -0.00000000
 2 0a0b00       0.00000001     -0.00000011      0.10059094      0.00000006      0.00000000     -0.00000000      0.00000000
 2 0b0a00      -0.00000001      0.00000011     -0.10059094     -0.00000006     -0.00000000      0.00000000     -0.00000000
 2 00ab00      -0.00000711      0.10059094      0.00000011     -0.00000001     -0.00000020     -0.00000000      0.00000000
 2 00ba00       0.00000711     -0.10059094     -0.00000011      0.00000001      0.00000020      0.00000000     -0.00000000
 2 0a000b       0.00000000      0.00000001     -0.00000006      0.10059099     -0.00000000      0.00000000      0.49629913
 2 0b000a      -0.00000000     -0.00000001      0.00000006     -0.10059099      0.00000000     -0.00000000     -0.49629913
 2 00b0a0      -0.00000000     -0.00000001      0.00000006     -0.10059094      0.00000000     -0.00000000      0.49629913
 2 00a0b0       0.00000000      0.00000001     -0.00000006      0.10059094     -0.00000000      0.00000000     -0.49629913
 2 a0000b      -0.00000711      0.10059099      0.00000011     -0.00000001     -0.00000020      0.00000000      0.00000000
 2 b0000a       0.00000711     -0.10059099     -0.00000011      0.00000001      0.00000020     -0.00000000     -0.00000000
 2 a000b0       0.00000001     -0.00000011      0.10059094      0.00000006      0.00000000      0.00000000     -0.00000000
 2 b000a0      -0.00000001      0.00000011     -0.10059094     -0.00000006     -0.00000000     -0.00000000      0.00000000
 2 0a00b0      -0.00519036     -0.00000014     -0.00000000      0.00000000      0.11603639      0.11533102      0.00000000
 2 0b00a0       0.00519036      0.00000014      0.00000000     -0.00000000     -0.11603639     -0.11533102     -0.00000000
 2 00b00a       0.09789533      0.00000705     -0.00000001     -0.00000000      0.06251321     -0.11533106     -0.00000000
 2 00a00b      -0.09789533     -0.00000705      0.00000001      0.00000000     -0.06251321      0.11533106      0.00000000
 0 220000      -0.06288242     -0.00000453      0.00000001      0.00000000     -0.04015494     -0.09955671      0.00000000
 0 022000       0.06621641      0.00000461     -0.00000000     -0.00000000     -0.03438030     -0.09955671      0.00000000
 0 202000      -0.00333400     -0.00000009     -0.00000000      0.00000000      0.07453524     -0.09955670      0.00000000
 0 ab2000      -0.00000001      0.00000007     -0.06461396     -0.00000004     -0.00000000     -0.00000000     -0.00000000
 0 ba2000       0.00000001     -0.00000007      0.06461396      0.00000004      0.00000000      0.00000000      0.00000000
 0 b2a000      -0.00000457      0.06461396      0.00000007     -0.00000001     -0.00000013      0.00000000      0.00000000
 0 a2b000       0.00000457     -0.06461396     -0.00000007      0.00000001      0.00000013     -0.00000000     -0.00000000
 0 2ab000      -0.00000000     -0.00000001      0.00000004     -0.06461396     -0.00000000      0.00000000      0.00000000
 0 2ba000       0.00000000      0.00000001     -0.00000004      0.06461396      0.00000000     -0.00000000     -0.00000000
 
 Energy:     -191.79943665   -191.79943665   -191.79943665   -191.79943665   -191.79943665   -191.76516601   -191.67440010

 State:              8               9              10              11              12              13              14
 2 020000       0.00000000     -0.00000000      0.07752895     -0.00000698      0.00000025      0.00000017     -0.14602765
 2 200000      -0.00000000     -0.00000000     -0.16522813      0.00001841     -0.00000154     -0.00000001      0.00587178
 2 ab0000       0.00000000      0.00000000      0.00000135      0.00000575     -0.14318209     -0.00000005      0.00000047
 2 ba0000      -0.00000000     -0.00000000     -0.00000135     -0.00000575      0.14318209      0.00000005     -0.00000047
 2 0ba000       0.00000000     -0.00000000     -0.00000001     -0.00000003     -0.00000005      0.14318212      0.00000017
 2 0ab000      -0.00000000      0.00000000      0.00000001      0.00000003      0.00000005     -0.14318212     -0.00000017
 2 b0a000      -0.00000000      0.00000004      0.00001601      0.14318212      0.00000575      0.00000003      0.00000166
 2 a0b000       0.00000000     -0.00000004     -0.00001601     -0.14318212     -0.00000575     -0.00000003     -0.00000166
 2 002000      -0.00000000     -0.00000000      0.08769922     -0.00001143      0.00000129     -0.00000016      0.14015594
 2 a00b00      -0.00000000      0.00000000      0.56078430     -0.00006248      0.00000522      0.00000004     -0.01992883
 2 b00a00       0.00000000     -0.00000000     -0.56078430      0.00006248     -0.00000522     -0.00000004      0.01992883
 2 0a0b00      -0.49629913     -0.00000306     -0.00000458     -0.00001951      0.48596001      0.00000016     -0.00000159
 2 0b0a00       0.49629913      0.00000306      0.00000458      0.00001951     -0.48596001     -0.00000016      0.00000159
 2 00ab00       0.00000306     -0.49629913      0.00005435      0.48596001      0.00001951      0.00000011      0.00000563
 2 00ba00      -0.00000306      0.49629913     -0.00005435     -0.48596001     -0.00001951     -0.00000011     -0.00000563
 2 0a000b       0.00000000     -0.00000000     -0.00000002     -0.00000011     -0.00000016      0.48596001      0.00000057
 2 0b000a      -0.00000000      0.00000000      0.00000002      0.00000011      0.00000016     -0.48596001     -0.00000057
 2 00b0a0       0.00000000      0.00000000      0.00000002      0.00000011      0.00000016     -0.48596002     -0.00000057
 2 00a0b0      -0.00000000     -0.00000000     -0.00000002     -0.00000011     -0.00000016      0.48596002      0.00000057
 2 a0000b      -0.00000306      0.49629913      0.00005435      0.48596000      0.00001951      0.00000011      0.00000563
 2 b0000a       0.00000306     -0.49629913     -0.00005435     -0.48596000     -0.00001951     -0.00000011     -0.00000563
 2 a000b0       0.49629913      0.00000306     -0.00000458     -0.00001951      0.48596002      0.00000016     -0.00000159
 2 b000a0      -0.49629913     -0.00000306      0.00000458      0.00001951     -0.48596002     -0.00000016      0.00000159
 2 0a00b0      -0.00000000      0.00000000     -0.26313327      0.00002369     -0.00000086     -0.00000059      0.49561786
 2 0b00a0       0.00000000     -0.00000000      0.26313327     -0.00002369      0.00000086      0.00000059     -0.49561786
 2 00b00a      -0.00000000      0.00000000      0.29765101     -0.00003879      0.00000437     -0.00000055      0.47568902
 2 00a00b       0.00000000     -0.00000000     -0.29765101      0.00003879     -0.00000437      0.00000055     -0.47568902
 0 220000      -0.00000000      0.00000000      0.00925476     -0.00000121      0.00000014     -0.00000002      0.01479043
 0 022000      -0.00000000      0.00000000     -0.01743627      0.00000194     -0.00000016     -0.00000000      0.00061963
 0 202000       0.00000000      0.00000000      0.00818150     -0.00000074      0.00000003      0.00000002     -0.01541007
 0 ab2000      -0.00000000     -0.00000000     -0.00000014     -0.00000061      0.01510978      0.00000001     -0.00000005
 0 ba2000       0.00000000      0.00000000      0.00000014      0.00000061     -0.01510978     -0.00000001      0.00000005
 0 b2a000       0.00000000     -0.00000000     -0.00000169     -0.01510978     -0.00000061     -0.00000000     -0.00000017
 0 a2b000      -0.00000000      0.00000000      0.00000169      0.01510978      0.00000061      0.00000000      0.00000017
 0 2ab000       0.00000000     -0.00000000     -0.00000000     -0.00000000     -0.00000001      0.01510978      0.00000002
 0 2ba000      -0.00000000      0.00000000      0.00000000      0.00000000      0.00000001     -0.01510978     -0.00000002
 
 Energy:     -191.67440010   -191.67440010   -191.65892647   -191.65892647   -191.65892647   -191.65892647   -191.65892647

 State:             15
 2 020000      -0.15998575
 2 200000      -0.15998574
 2 ab0000       0.00000000
 2 ba0000      -0.00000000
 2 0ba000       0.00000000
 2 0ab000      -0.00000000
 2 b0a000       0.00000000
 2 a0b000      -0.00000000
 2 002000      -0.15998580
 2 a00b00       0.38827832
 2 b00a00      -0.38827832
 2 0a0b00      -0.00000000
 2 0b0a00       0.00000000
 2 00ab00       0.00000000
 2 00ba00      -0.00000000
 2 0a000b       0.00000000
 2 0b000a      -0.00000000
 2 00b0a0      -0.00000000
 2 00a0b0       0.00000000
 2 a0000b       0.00000000
 2 b0000a      -0.00000000
 2 a000b0       0.00000000
 2 b000a0      -0.00000000
 2 0a00b0       0.38827834
 2 0b00a0      -0.38827834
 2 00b00a      -0.38827833
 2 00a00b       0.38827833
 0 220000       0.03108877
 0 022000       0.03108877
 0 202000       0.03108877
 0 ab2000      -0.00000000
 0 ba2000       0.00000000
 0 b2a000      -0.00000000
 0 a2b000       0.00000000
 0 2ab000       0.00000000
 0 2ba000      -0.00000000
 
 Energy:     -191.64721684
 


 **********************************************************************************************************************************
 DATASETS  * FILE   NREC   LENGTH (MB)   RECORD NAMES
              1      21       52.36       500      610      700      900      950      970     1000      129      960     1100   
                                          VAR    BASINP    GEOM    SYMINP    ZMAT    AOBASIS   BASIS     P2S    ABASIS      S 
                                         1400     1410     1420     1200     1210     1080     1700     1600     1650     1380   
                                           T        V       ECP      H0       H01     AOSYM    OPER      SMH    MOLCAS    JKOP   
                                         1700(1)
                                         OPER   

              2       5        1.44       700     1000      520     2100     2140   
                                         GEOM     BASIS   MCVARS     RHF     MCSCF   

 PROGRAMS   *        TOTAL     MULTI   RHF-SCF       INT
 CPU TIMES  *         6.25      3.60      0.31      2.01
 REAL TIME  *         9.04 SEC
 DISK USED  *        53.90 MB (local),        1.04 GB (total)
 SF USED    *        60.64 MB
 GA USED    *         0.00 MB       (max)       0.00 MB       (current)
 **********************************************************************************************************************************

 Energies and &lt;L**2&gt; values

         ENERGY     LL
    -191.8341313   2.0
    -191.8341313   2.0
    -191.8341313   2.0
    -191.6705544   6.0
    -191.6705544   6.0
    -191.6705544   6.0
    -191.6705544   6.0
    -191.6705544   6.0
    -191.6672547   2.0
    -191.6672547   2.0
    -191.6672547   2.0
    -191.6647882  -0.0
    -191.7994367   6.0
    -191.7994367   6.0
    -191.7994367   6.0
    -191.7994367   6.0
    -191.7994367   6.0
    -191.7651660  -0.0
    -191.6744001   2.0
    -191.6744001   2.0
    -191.6744001   2.0
    -191.6589265   6.0
    -191.6589265   6.0
    -191.6589265   6.0
    -191.6589265   6.0
    -191.6589265   6.0
    -191.6472168  -0.0
                                                  


 PROGRAM * CI (Multireference internally contracted CI)     Authors: H.-J. Werner, P.J. Knowles, 1987


 Convergence thresholds:  THRVAR = 1.00D-08  THRDEN = 1.00D-06

 Number of optimized states: 12  Roots:   1   2   3   4   5   6   7   8   9  10  11  12
 Number of reference states: 12  Roots:   1   2   3   4   5   6   7   8   9  10  11  12

 Reference symmetry:                   1   Triplet 
 Number of electrons:                 22
 Maximum number of shells:             5
 Maximum number of spin couplings:    90

 Reference space:       90 conf      120 CSFs
 N elec internal:    18284 conf    76944 CSFs
 N-1 el internal:    12821 conf    88545 CSFs
 N-2 el internal:     4717 conf    46537 CSFs

 Number of electrons in valence space:                     22
 Maximum number of open shell orbitals in reference space:  4
 Maximum number of open shell orbitals in internal spaces: 10


 Number of closed-shell orbitals:   9 (   6   3 )
 Number of active  orbitals:        7 (   1   6 )
 Number of external orbitals:     153 (  79  74 )

 Molecular orbitals read from record     2140.2  Type=MCSCF/NATURAL (state averaged)

 Valence orbitals related to previous ones by unitary transformation. Operators transformed.


 Number of p-space configurations:  15

 Reference wavefunction optimized for reference space (refopt=1)

 State     Reference Energy 
     1      -191.83413128
     2      -191.83413128
     3      -191.83413128
     4      -191.67055436
     5      -191.67055436
     6      -191.67055436
     7      -191.67055436
     8      -191.67055436
     9      -191.66725469
    10      -191.66725469
    11      -191.66725469
    12      -191.66478822

 ?WARNING: SMALL EIGENVALUE OF PAIR OVERLAP MATRIX:  0.1015D-06

 ?WARNING: SMALL EIGENVALUE OF PAIR OVERLAP MATRIX:  0.2981D-06

 ?WARNING: SMALL EIGENVALUE OF PAIR OVERLAP MATRIX:  0.1015D-06

 ?WARNING: SMALL EIGENVALUE OF PAIR OVERLAP MATRIX:  0.2981D-06

 ?WARNING: SMALL EIGENVALUE OF PAIR OVERLAP MATRIX:  0.1015D-06

 ?WARNING: SMALL EIGENVALUE OF PAIR OVERLAP MATRIX:  0.2981D-06

 ?WARNING: SMALL EIGENVALUE OF PAIR OVERLAP MATRIX:  0.1015D-06

 ?WARNING: SMALL EIGENVALUE OF PAIR OVERLAP MATRIX:  0.2981D-06

 ?WARNING: SMALL EIGENVALUE OF PAIR OVERLAP MATRIX:  0.1015D-06

 ?WARNING: SMALL EIGENVALUE OF PAIR OVERLAP MATRIX:  0.2981D-06

 ?WARNING: SMALL EIGENVALUE OF PAIR OVERLAP MATRIX:  0.1015D-06

 ?WARNING: SMALL EIGENVALUE OF PAIR OVERLAP MATRIX:  0.2981D-06

 ?WARNING: SMALL EIGENVALUE OF PAIR OVERLAP MATRIX:  0.1015D-06

 ?WARNING: SMALL EIGENVALUE OF PAIR OVERLAP MATRIX:  0.2981D-06

 ?WARNING: SMALL EIGENVALUE OF PAIR OVERLAP MATRIX:  0.1015D-06

 ?WARNING: SMALL EIGENVALUE OF PAIR OVERLAP MATRIX:  0.2981D-06

 ?WARNING: SMALL EIGENVALUE OF PAIR OVERLAP MATRIX:  0.1015D-06

 ?WARNING: SMALL EIGENVALUE OF PAIR OVERLAP MATRIX:  0.2981D-06

 ?WARNING: SMALL EIGENVALUE OF PAIR OVERLAP MATRIX:  0.1015D-06

 ?WARNING: SMALL EIGENVALUE OF PAIR OVERLAP MATRIX:  0.2981D-06

 ?WARNING: SMALL EIGENVALUE OF PAIR OVERLAP MATRIX:  0.1015D-06

 ?WARNING: SMALL EIGENVALUE OF PAIR OVERLAP MATRIX:  0.2981D-06

 ?WARNING: SMALL EIGENVALUE OF PAIR OVERLAP MATRIX:  0.1015D-06

 ?WARNING: SMALL EIGENVALUE OF PAIR OVERLAP MATRIX:  0.2981D-06

 ?WARNING: SMALL EIGENVALUE OF PAIR OVERLAP MATRIX:  0.1015D-06

 ?WARNING: SMALL EIGENVALUE OF PAIR OVERLAP MATRIX:  0.2981D-06

 ?WARNING: SMALL EIGENVALUE OF PAIR OVERLAP MATRIX:  0.1015D-06

 ?WARNING: SMALL EIGENVALUE OF PAIR OVERLAP MATRIX:  0.2981D-06

 ?WARNING: SMALL EIGENVALUE OF PAIR OVERLAP MATRIX:  0.1015D-06

 ?WARNING: SMALL EIGENVALUE OF PAIR OVERLAP MATRIX:  0.2981D-06

 ?WARNING: SMALL EIGENVALUE OF PAIR OVERLAP MATRIX:  0.1015D-06

 ?WARNING: SMALL EIGENVALUE OF PAIR OVERLAP MATRIX:  0.2981D-06

 ?WARNING: SMALL EIGENVALUE OF PAIR OVERLAP MATRIX:  0.1015D-06

 ?WARNING: SMALL EIGENVALUE OF PAIR OVERLAP MATRIX:  0.2981D-06

 ?WARNING: SMALL EIGENVALUE OF PAIR OVERLAP MATRIX:  0.1015D-06

 ?WARNING: SMALL EIGENVALUE OF PAIR OVERLAP MATRIX:  0.2981D-06

 Number of blocks in overlap matrix:  1216   Smallest eigenvalue:  0.10D-06
 Number of N-2 electron functions:    2329
 Number of N-1 electron functions:   88545

 Number of internal configurations:                38406
 Number of singly external configurations:       6772860
 Number of doubly external configurations:      13635805
 Total number of contracted configurations:     20447071
 Total number of uncontracted configurations:  278531653

 Diagonal Coupling coefficients finished.               Storage:  25397627 words, CPU-Time:     66.55 seconds.
 Energy denominators for pairs finished in 1 passes.    Storage:   2110906 words, CPU-time:      2.53 seconds.

  ITER. STATE  ROOT     SQ.NORM     CORR.ENERGY   TOTAL ENERGY   ENERGY CHANGE       DEN1      VAR(S)    VAR(P)      TIME
    1     1     1     1.00000000     0.00000000  -191.83413128     0.00000000    -0.90754018  0.53D-01  0.12D+00    80.94
    1     2     2     1.00000000     0.00000000  -191.83413128     0.00000000    -0.90764592  0.53D-01  0.12D+00    80.94
    1     3     3     1.00000000     0.00000000  -191.83413128     0.00000000    -0.90741517  0.53D-01  0.12D+00    80.94
    1     4     4     1.00000000     0.00000000  -191.67055436    -0.00000000    -0.86430825  0.40D-01  0.10D+00    80.94
    1     5     5     1.00000000     0.00000000  -191.67055436     0.00000000    -0.86402714  0.40D-01  0.10D+00    80.94
    1     6     6     1.00000000     0.00000000  -191.67055436     0.00000000    -0.86405348  0.40D-01  0.10D+00    80.94
    1     7     7     1.00000000     0.00000000  -191.67055436     0.00000000    -0.86403544  0.40D-01  0.10D+00    80.94
    1     8     8     1.00000000     0.00000000  -191.67055436     0.00000000    -0.86434119  0.40D-01  0.10D+00    80.94
    1     9     9     1.00000000     0.00000000  -191.66725469     0.00000000    -0.86798372  0.41D-01  0.11D+00    80.94
    1    10    10     1.00000000     0.00000000  -191.66725469    -0.00000000    -0.86795948  0.41D-01  0.11D+00    80.94
    1    11    11     1.00000000     0.00000000  -191.66725469    -0.00000000    -0.86794443  0.41D-01  0.11D+00    80.94
    1    12    12     1.00000000     0.00000000  -191.66478822     0.00000000    -0.86468729  0.40D-01  0.10D+00    80.94
    2     1     1     1.10376039    -0.71150215  -192.54563343    -0.71150215    -0.02558022  0.44D-02  0.20D-02   797.53
    2     2     2     1.10385023    -0.71141676  -192.54554804    -0.71141676    -0.02567461  0.45D-02  0.20D-02   797.53
    2     3     3     1.10395247    -0.71131433  -192.54544561    -0.71131433    -0.02578625  0.45D-02  0.20D-02   797.53
    2     4     4     1.09408207    -0.70028377  -192.37083813    -0.70028377    -0.02024952  0.26D-02  0.15D-02   797.53
    2     5     5     1.09401927    -0.70026694  -192.37082130    -0.70026694    -0.02027687  0.27D-02  0.15D-02   797.53
    2     6     6     1.09403040    -0.70025452  -192.37080888    -0.70025452    -0.02029019  0.27D-02  0.15D-02   797.53
    2     7     7     1.09412471    -0.70024341  -192.37079777    -0.70024341    -0.02029365  0.27D-02  0.15D-02   797.53
    2     8     8     1.09404670    -0.70024109  -192.37079545    -0.70024109    -0.02030529  0.27D-02  0.15D-02   797.53
    2     9     9     1.09433944    -0.70076748  -192.36802217    -0.70076748    -0.02086668  0.29D-02  0.15D-02   797.53
    2    10    10     1.09435392    -0.70075224  -192.36800693    -0.70075224    -0.02088413  0.29D-02  0.15D-02   797.53
    2    11    11     1.09437090    -0.70073609  -192.36799078    -0.70073609    -0.02090313  0.30D-02  0.15D-02   797.53
    2    12    12     1.09416157    -0.70042424  -192.36521246    -0.70042424    -0.02044961  0.28D-02  0.15D-02   797.53
    3     1     1     1.09045940    -0.73538028  -192.56951156    -0.02387813    -0.00049004  0.83D-04  0.56D-04  1514.45
    3     2     2     1.09045954    -0.73537710  -192.56950838    -0.02396034    -0.00049319  0.83D-04  0.56D-04  1514.45
    3     3     3     1.09045628    -0.73537350  -192.56950478    -0.02405917    -0.00049659  0.84D-04  0.57D-04  1514.45
    3     4     4     1.08581778    -0.71918639  -192.38974075    -0.01890262    -0.00030469  0.34D-04  0.31D-04  1514.45
    3     5     5     1.08581752    -0.71918598  -192.38974035    -0.01891904    -0.00030504  0.34D-04  0.31D-04  1514.45
    3     6     6     1.08581741    -0.71918574  -192.38974010    -0.01893122    -0.00030535  0.34D-04  0.31D-04  1514.45
    3     7     7     1.08583442    -0.71918426  -192.38973862    -0.01894085    -0.00030700  0.34D-04  0.32D-04  1514.45
    3     8     8     1.08583337    -0.71918322  -192.38973758    -0.01894213    -0.00030811  0.34D-04  0.32D-04  1514.45
    3     9     9     1.08572969    -0.72020034  -192.38745503    -0.01943286    -0.00032084  0.37D-04  0.33D-04  1514.45
    3    10    10     1.08572901    -0.72019993  -192.38745462    -0.01944769    -0.00032159  0.37D-04  0.33D-04  1514.45
    3    11    11     1.08572924    -0.72019977  -192.38745446    -0.01946368    -0.00032129  0.37D-04  0.33D-04  1514.45
    3    12    12     1.08589176    -0.71950635  -192.38429457    -0.01908211    -0.00031234  0.33D-04  0.34D-04  1514.45
    4     1     1     1.09000022    -0.73588724  -192.57001852    -0.00050696    -0.00002263  0.40D-05  0.28D-05  2234.80
    4     2     2     1.08999975    -0.73588715  -192.57001843    -0.00051004    -0.00002271  0.40D-05  0.28D-05  2234.80
    4     3     3     1.08999894    -0.73588705  -192.57001833    -0.00051356    -0.00002279  0.40D-05  0.28D-05  2234.80
    4     4     4     1.08610641    -0.71950192  -192.39005628    -0.00031553    -0.00001250  0.23D-05  0.14D-05  2234.80
    4     5     5     1.08610641    -0.71950184  -192.39005620    -0.00031585    -0.00001249  0.23D-05  0.14D-05  2234.80
    4     6     6     1.08610639    -0.71950180  -192.39005616    -0.00031606    -0.00001249  0.23D-05  0.14D-05  2234.80
    4     7     7     1.08610233    -0.71950179  -192.39005615    -0.00031752    -0.00001276  0.24D-05  0.15D-05  2234.80
    4     8     8     1.08610214    -0.71950151  -192.39005587    -0.00031829    -0.00001275  0.24D-05  0.15D-05  2234.80
    4     9     9     1.08599506    -0.72053208  -192.38778677    -0.00033174    -0.00001342  0.26D-05  0.15D-05  2234.80
    4    10    10     1.08599438    -0.72053172  -192.38778641    -0.00033179    -0.00001342  0.26D-05  0.15D-05  2234.80
    4    11    11     1.08599423    -0.72053160  -192.38778629    -0.00033183    -0.00001342  0.26D-05  0.15D-05  2234.80
    4    12    12     1.08625022    -0.71982959  -192.38461781    -0.00032324    -0.00001349  0.23D-05  0.18D-05  2234.80
    5     1     1     1.09010243    -0.73591210  -192.57004338    -0.00002485    -0.00000089  0.71D-07  0.14D-06  2953.40
    5     2     2     1.09010223    -0.73591209  -192.57004337    -0.00002495    -0.00000089  0.71D-07  0.14D-06  2953.40
    5     3     3     1.09010185    -0.73591209  -192.57004337    -0.00002504    -0.00000089  0.71D-07  0.14D-06  2953.40
    5     4     4     1.08625424    -0.71951644  -192.39007080    -0.00001452    -0.00000056  0.35D-07  0.11D-06  2953.40
    5     5     5     1.08625431    -0.71951631  -192.39007067    -0.00001447    -0.00000055  0.35D-07  0.11D-06  2953.40
    5     6     6     1.08625432    -0.71951622  -192.39007058    -0.00001442    -0.00000056  0.35D-07  0.11D-06  2953.40
    5     7     7     1.08625429    -0.71951619  -192.39007055    -0.00001440    -0.00000055  0.35D-07  0.11D-06  2953.40
    5     8     8     1.08625413    -0.71951615  -192.39007051    -0.00001464    -0.00000056  0.35D-07  0.11D-06  2953.40
    5     9     9     1.08613848    -0.72054735  -192.38780204    -0.00001527    -0.00000061  0.48D-07  0.11D-06  2953.40
    5    10    10     1.08613809    -0.72054698  -192.38780167    -0.00001526    -0.00000061  0.48D-07  0.11D-06  2953.40
    5    11    11     1.08613797    -0.72054687  -192.38780156    -0.00001527    -0.00000061  0.48D-07  0.11D-06  2953.40
    5    12    12     1.08644334    -0.71984539  -192.38463360    -0.00001579    -0.00000071  0.37D-07  0.16D-06  2953.40
    6     1     1     1.09010827    -0.73591307  -192.57004435    -0.00000097    -0.00000005  0.46D-08  0.87D-08  3671.58
    6     2     2     1.09010835    -0.73591307  -192.57004435    -0.00000097    -0.00000005  0.46D-08  0.87D-08  3671.58
    6     3     3     1.09010833    -0.73591307  -192.57004434    -0.00000097    -0.00000005  0.46D-08  0.87D-08  3671.58
    6     4     4     1.08627307    -0.71951710  -192.39007146    -0.00000067    -0.00000004  0.34D-08  0.98D-08  3671.58
    6     5     5     1.08627350    -0.71951696  -192.39007132    -0.00000066    -0.00000004  0.35D-08  0.96D-08  3671.58
    6     6     6     1.08627338    -0.71951688  -192.39007124    -0.00000066    -0.00000004  0.35D-08  0.96D-08  3671.58
    6     7     7     1.08627333    -0.71951684  -192.39007120    -0.00000066    -0.00000004  0.35D-08  0.95D-08  3671.58
    6     8     8     1.08627275    -0.71951682  -192.39007118    -0.00000067    -0.00000004  0.34D-08  0.98D-08  3671.58
    6     9     9     1.08615484    -0.72054807  -192.38780276    -0.00000072    -0.00000005  0.48D-08  0.11D-07  3671.58
    6    10    10     1.08615432    -0.72054770  -192.38780239    -0.00000072    -0.00000005  0.47D-08  0.11D-07  3671.58
    6    11    11     1.08615421    -0.72054759  -192.38780228    -0.00000072    -0.00000005  0.47D-08  0.11D-07  3671.58
    6    12    12     1.08647004    -0.71984626  -192.38463448    -0.00000087    -0.00000006  0.56D-08  0.13D-07  3671.58
    7     1     1     1.09011550    -0.73591312  -192.57004440    -0.00000006    -0.00000000  0.28D-09  0.69D-09  4391.00
    7     2     2     1.09011546    -0.73591312  -192.57004440    -0.00000006    -0.00000000  0.27D-09  0.68D-09  4391.00
    7     3     3     1.09011547    -0.73591312  -192.57004440    -0.00000006    -0.00000000  0.27D-09  0.68D-09  4391.00
    7     4     4     1.08627776    -0.71951716  -192.39007152    -0.00000005    -0.00000000  0.38D-09  0.78D-09  4391.00
    7     5     5     1.08627754    -0.71951702  -192.39007138    -0.00000005    -0.00000000  0.37D-09  0.78D-09  4391.00
    7     6     6     1.08627743    -0.71951693  -192.39007129    -0.00000005    -0.00000000  0.37D-09  0.79D-09  4391.00
    7     7     7     1.08627738    -0.71951689  -192.39007125    -0.00000005    -0.00000000  0.36D-09  0.78D-09  4391.00
    7     8     8     1.08627745    -0.71951687  -192.39007123    -0.00000005    -0.00000000  0.37D-09  0.78D-09  4391.00
    7     9     9     1.08615876    -0.72054813  -192.38780282    -0.00000006    -0.00000001  0.53D-09  0.11D-08  4391.00
    7    10    10     1.08615824    -0.72054776  -192.38780245    -0.00000006    -0.00000001  0.52D-09  0.11D-08  4391.00
    7    11    11     1.08615813    -0.72054765  -192.38780234    -0.00000006    -0.00000001  0.52D-09  0.11D-08  4391.00
    7    12    12     1.08647492    -0.71984633  -192.38463455    -0.00000007    -0.00000001  0.54D-09  0.94D-09  4391.00


 =====================================
 Analysis of CPU times by interactions
 =====================================

       I      S      P

 I   0.7%
 S   0.5%  24.5%
 P   0.3%  37.3%  22.7%

 Initialization:   1.6%
 Other:           12.3%

 Total CPU:     4391.0 seconds
 =====================================



 Wavefunction saved on  5201.2

 Reference coefficients greater than 0.0500000
 =============================================
 2222222222/0/000           0.0000000   0.0000000   0.9488694  -0.0000000  -0.0000000   0.0000000   0.0000030  -0.0000000
                            0.0000009  -0.0000091  -0.0984128   0.0000000
 22222222220//000           0.0032165   0.9488639  -0.0000000   0.0000000   0.0000000   0.0000019   0.0000000  -0.0000000
                            0.0000000  -0.0984128   0.0000091   0.0000000
 2222222222//0000           0.9488639  -0.0032165  -0.0000000   0.0000000  -0.0000001  -0.0000000   0.0000000  -0.0000000
                            0.0984130   0.0000000   0.0000009  -0.0000000
 222222222200/00/          -0.0000000  -0.0000000   0.0000000  -0.0002544   0.0000000   0.0000000   0.0000047   0.7783891
                            0.0000000  -0.0000000   0.0000000   0.5503307
 22222222220/00/0          -0.0000000   0.0000000  -0.0000000   0.6742529   0.0000000  -0.0000090  -0.0000023  -0.3890008
                            0.0000000   0.0000000  -0.0000000   0.5502861
 222222222200//00          -0.0000000  -0.0000000  -0.0696112  -0.0000000  -0.0000000   0.0000000   0.6741423  -0.0000040
                            0.0000059  -0.0000623  -0.6706413  -0.0000000
 222222222200/0/0          -0.0002360  -0.0696108   0.0000000   0.0000090   0.0000000   0.6741352   0.0000000  -0.0000000
                            0.0000000  -0.6706484   0.0000623   0.0000000
 2222222222/000/0           0.0696110  -0.0002360  -0.0000000   0.0000000   0.6741218  -0.0000000  -0.0000000  -0.0000000
                           -0.6706614  -0.0000000  -0.0000059   0.0000000
 22222222220/0/00          -0.0696110   0.0002360   0.0000000   0.0000000   0.6741211  -0.0000000   0.0000000  -0.0000000
                            0.6706621   0.0000000   0.0000059  -0.0000000
 22222222220/000/           0.0002360   0.0696109  -0.0000000   0.0000090   0.0000000   0.6741079  -0.0000000   0.0000000
                           -0.0000000   0.6706758  -0.0000623  -0.0000000
[...]
 13  1     1    1  |1 0>          0.00%    0.00%    0.02%    0.00%    0.00%    0.00%    0.00%    0.00%
 14  1     2    1  |1 0>          0.00%    0.00%    0.00%    0.07%    0.00%    0.00%    0.02%    0.00%
 15  1     3    1  |1 0>          0.01%    0.00%    0.00%    0.00%    0.07%    0.00%    0.00%    0.00%
 16  1     4    1  |1 0>          0.00%    0.00%    0.00%    0.00%    0.00%    0.00%    0.00%   28.57%
 17  1     5    1  |1 0>          0.00%   32.21%    3.99%    0.00%    0.00%    0.00%    0.00%    0.00%
 18  1     6    1  |1 0>          0.00%    0.00%    0.00%    5.22%    0.00%    0.00%    7.14%    0.00%
 19  1     7    1  |1 0>          9.05%    0.00%    0.00%    0.00%    5.22%    0.00%    0.00%    0.00%
 20  1     8    1  |1 0>          0.00%    0.00%    0.00%    0.00%    0.00%    6.96%    0.00%    0.00%
 21  1     9    1  |1 0>          0.00%    1.28%   10.34%    0.00%    0.00%    0.00%    0.00%    0.00%
 22  1    10    1  |1 0>          0.00%    0.00%    0.00%   16.65%    0.00%    0.00%   19.57%    0.00%
 23  1    11    1  |1 0>          8.72%    0.00%    0.00%    0.00%   16.65%    0.00%    0.00%    0.00%
 24  1    12    1  |1 0>          0.00%    0.00%    0.00%    0.00%    0.00%    0.17%    0.00%    0.00%
 25  1     1    1  |1 1>-         0.01%    0.00%    0.00%    0.00%    0.07%    0.00%    0.00%    0.00%
 26  1     2    1  |1 1>-         0.00%    0.00%    0.00%    0.00%    0.00%    0.07%    0.00%    0.02%
 27  1     3    1  |1 1>-         0.00%    0.02%    0.00%    0.00%    0.00%    0.00%    0.00%    0.00%
 28  1     4    1  |1 1>-         0.00%    0.00%    0.00%    5.22%    0.00%    0.00%    7.13%    0.00%
 29  1     5    1  |1 1>-         9.05%    0.00%    0.00%    0.00%    5.22%    0.00%    0.00%    0.00%
 30  1     6    1  |1 1>-         0.00%    0.00%    0.00%    0.00%    0.00%    5.22%    0.00%    7.13%
 31  1     7    1  |1 1>-         0.00%    1.23%   34.97%    0.00%    0.00%    0.00%    0.00%    0.00%
 32  1     8    1  |1 1>-         0.00%    0.00%    0.00%    1.74%    0.00%    0.00%   21.42%    0.00%
 33  1     9    1  |1 1>-         8.71%    0.00%    0.00%    0.00%   16.66%    0.00%    0.00%    0.00%
 34  1    10    1  |1 1>-         0.00%    0.00%    0.00%    0.00%    0.00%   16.65%    0.00%   19.57%
 35  1    11    1  |1 1>-         0.00%   11.23%    0.40%    0.00%    0.00%    0.00%    0.00%    0.00%
 36  1    12    1  |1 1>-         0.00%    0.00%    0.00%    0.17%    0.00%    0.00%    0.00%    0.00%
 37  1     1    1  |0 0>          0.17%    0.00%    0.00%    0.00%    0.00%    0.00%    0.00%    0.00%
 38  1     2    1  |0 0>          0.00%    0.00%    0.00%    0.00%    0.00%    0.00%    0.23%    0.00%
 39  1     3    1  |0 0>          0.00%    0.00%    0.00%    0.00%    0.00%    0.00%    0.00%    0.23%
 40  1     4    1  |0 0>          0.00%    0.03%    0.14%    0.00%    0.00%    0.00%    0.00%    0.00%
 41  1     5    1  |0 0>          0.00%    0.14%    0.03%    0.00%    0.00%    0.00%    0.00%    0.00%
 42  1     6    1  |0 0>          0.00%    0.00%    0.00%    0.00%    0.00%    0.00%    0.00%    0.00%
 43  1     7    1  |0 0>          0.00%    0.00%    0.00%    0.00%   49.00%    0.00%    0.00%    0.00%
 44  1     8    1  |0 0>          0.00%    0.00%    0.00%   49.00%    0.00%    0.00%    0.00%    0.00%
 45  1     9    1  |0 0>          0.00%    0.00%    0.00%    0.00%    0.00%   49.00%    0.00%    0.00%
 46  1    10    1  |0 0>         28.07%    0.00%    0.00%    0.00%    0.00%    0.00%    0.00%    0.00%
 47  1    11    1  |0 0>          0.00%    0.00%    0.00%    0.00%    0.00%    0.00%   17.76%    0.00%
 48  1    12    1  |0 0>          0.00%    0.00%    0.00%    0.00%    0.00%    0.00%    0.00%   17.77%
 49  1    13    1  |0 0>          0.00%    6.75%   21.32%    0.00%    0.00%    0.00%    0.00%    0.00%
 50  1    14    1  |0 0>          0.00%   21.32%    6.75%    0.00%    0.00%    0.00%    0.00%    0.00%
 51  1    15    1  |0 0>          0.00%    0.00%    0.00%    0.00%    0.00%    0.00%    0.00%    0.00%

   Total
 Nr Sym  State Sym Spin / Nr.     33       34       35       36       37       38       39       40

  1  1     1    1  |1 1>+         0.00%    0.00%    0.00%    0.00%    0.00%    0.00%    0.00%    0.00%
  2  1     2    1  |1 1>+         0.00%    0.01%    0.02%    0.00%    0.00%    0.00%    0.00%    0.00%
  3  1     3    1  |1 1>+         0.00%    0.00%    0.00%    0.00%    0.00%    0.00%    0.00%    0.00%
  4  1     4    1  |1 1>+         7.15%    0.00%    0.00%    0.00%   51.64%    0.00%    0.00%    0.00%
  5  1     5    1  |1 1>+         0.00%    0.00%    0.00%   47.33%    0.00%    0.00%    0.00%    6.01%
  6  1     6    1  |1 1>+         0.00%   20.36%    8.19%    0.00%    0.00%    0.00%   33.34%    0.00%
  7  1     7    1  |1 1>+         0.00%    0.00%    0.00%    0.00%    0.00%   27.18%    0.00%    0.00%
  8  1     8    1  |1 1>+        21.41%    0.00%    0.00%    0.00%    0.22%    0.00%    0.00%    0.00%
  9  1     9    1  |1 1>+         0.00%    0.00%    0.00%    0.00%    0.00%    0.00%    0.00%    0.00%
 10  1    10    1  |1 1>+         0.00%    7.49%   18.61%    0.00%    0.00%    0.00%    0.00%    0.00%
 11  1    11    1  |1 1>+         0.00%    0.00%    0.00%    0.00%    0.00%    0.00%    0.00%    0.00%
 12  1    12    1  |1 1>+         0.00%    0.00%    0.00%    0.00%    0.00%    0.00%    0.00%    0.00%
 13  1     1    1  |1 0>          0.00%    0.02%    0.00%    0.00%    0.00%    0.00%    0.00%    0.00%
 14  1     2    1  |1 0>          0.00%    0.00%    0.00%    0.00%    0.00%    0.00%    0.00%    0.00%
 15  1     3    1  |1 0>          0.02%    0.00%    0.00%    0.00%    0.00%    0.00%    0.00%    0.00%
 16  1     4    1  |1 0>          0.00%    0.00%    0.00%    0.00%    0.00%   32.88%    0.00%    0.00%
 17  1     5    1  |1 0>          0.00%    0.05%   28.51%    0.00%    0.00%    0.00%   33.33%    0.00%
 18  1     6    1  |1 0>          0.00%    0.00%    0.00%    0.43%    0.00%    0.00%    0.00%   52.91%
 19  1     7    1  |1 0>          7.14%    0.00%    0.00%    0.00%    0.29%    0.00%    0.00%    0.00%
 20  1     8    1  |1 0>          0.00%    0.00%    0.00%    0.00%    0.00%    0.81%    0.00%    0.00%
 21  1     9    1  |1 0>          0.00%   26.05%    0.05%    0.00%    0.00%    0.00%    0.00%    0.00%
 22  1    10    1  |1 0>          0.00%    0.00%    0.00%    0.00%    0.00%    0.00%    0.00%    0.00%
 23  1    11    1  |1 0>         19.57%    0.00%    0.00%    0.00%    0.00%    0.00%    0.00%    0.00%
 24  1    12    1  |1 0>          0.00%    0.00%    0.00%    0.00%    0.00%    0.00%    0.00%    0.00%
 25  1     1    1  |1 1>-         0.02%    0.00%    0.00%    0.00%    0.00%    0.00%    0.00%    0.00%
 26  1     2    1  |1 1>-         0.00%    0.00%    0.00%    0.00%    0.00%    0.00%    0.00%    0.00%
 27  1     3    1  |1 1>-         0.00%    0.00%    0.02%    0.00%    0.00%    0.00%    0.00%    0.00%
 28  1     4    1  |1 1>-         0.00%    0.00%    0.00%   51.93%    0.00%    0.00%    0.00%    1.41%
 29  1     5    1  |1 1>-         7.14%    0.00%    0.00%    0.00%   47.85%    0.00%    0.00%    0.00%
 30  1     6    1  |1 1>-         0.00%    0.00%    0.00%    0.00%    0.00%   39.13%    0.00%    0.00%
 31  1     7    1  |1 1>-         0.00%   22.42%    6.13%    0.00%    0.00%    0.00%   33.34%    0.00%
 32  1     8    1  |1 1>-         0.00%    0.00%    0.00%    0.32%    0.00%    0.00%    0.00%   39.68%
 33  1     9    1  |1 1>-        19.57%    0.00%    0.00%    0.00%    0.00%    0.00%    0.00%    0.00%
 34  1    10    1  |1 1>-         0.00%    0.00%    0.00%    0.00%    0.00%    0.00%    0.00%    0.00%
 35  1    11    1  |1 1>-         0.00%    5.60%   20.49%    0.00%    0.00%    0.00%    0.00%    0.00%
 36  1    12    1  |1 1>-         0.00%    0.00%    0.00%    0.00%    0.00%    0.00%    0.00%    0.00%
 37  1     1    1  |0 0>          0.23%    0.00%    0.00%    0.00%    0.00%    0.00%    0.00%    0.00%
 38  1     2    1  |0 0>          0.00%    0.00%    0.00%    0.00%    0.00%    0.00%    0.00%    0.00%
 39  1     3    1  |0 0>          0.00%    0.00%    0.00%    0.00%    0.00%    0.00%    0.00%    0.00%
 40  1     4    1  |0 0>          0.00%    0.23%    0.00%    0.00%    0.00%    0.00%    0.00%    0.00%
 41  1     5    1  |0 0>          0.00%    0.00%    0.23%    0.00%    0.00%    0.00%    0.00%    0.00%
 42  1     6    1  |0 0>          0.00%    0.00%    0.00%    0.00%    0.00%    0.00%    0.00%    0.00%
 43  1     7    1  |0 0>          0.00%    0.00%    0.00%    0.00%    0.00%    0.00%    0.00%    0.00%
 44  1     8    1  |0 0>          0.00%    0.00%    0.00%    0.00%    0.00%    0.00%    0.00%    0.00%
 45  1     9    1  |0 0>          0.00%    0.00%    0.00%    0.00%    0.00%    0.00%    0.00%    0.00%
 46  1    10    1  |0 0>         17.76%    0.00%    0.00%    0.00%    0.00%    0.00%    0.00%    0.00%
 47  1    11    1  |0 0>          0.00%    0.00%    0.00%    0.00%    0.00%    0.00%    0.00%    0.00%
 48  1    12    1  |0 0>          0.00%    0.00%    0.00%    0.00%    0.00%    0.00%    0.00%    0.00%
 49  1    13    1  |0 0>          0.00%   16.94%    0.82%    0.00%    0.00%    0.00%    0.00%    0.00%
 50  1    14    1  |0 0>          0.00%    0.82%   16.94%    0.00%    0.00%    0.00%    0.00%    0.00%
 51  1    15    1  |0 0>          0.00%    0.00%    0.00%    0.00%    0.00%    0.00%    0.00%    0.00%

   Total
 Nr Sym  State Sym Spin / Nr.     41       42       43       44       45       46       47       48

  1  1     1    1  |1 1>+         0.00%    0.00%    0.04%    0.00%    0.00%    0.07%    0.00%    0.00%
  2  1     2    1  |1 1>+         0.00%    0.00%    0.00%    0.00%    0.00%    0.00%    0.00%    0.00%
  3  1     3    1  |1 1>+         0.00%    0.00%    0.00%    0.00%    0.04%    0.00%    0.07%    0.00%
  4  1     4    1  |1 1>+         1.68%    0.00%    0.00%    0.04%    0.00%    0.00%    0.00%    0.40%
  5  1     5    1  |1 1>+         0.00%    0.00%    0.04%    0.00%    0.00%    0.40%    0.00%    0.00%
  6  1     6    1  |1 1>+         0.00%    0.00%    0.00%    0.00%    0.00%    0.00%    0.00%    0.00%
  7  1     7    1  |1 1>+         0.00%   26.15%    0.00%    0.00%    0.04%    0.00%    0.40%    0.00%
  8  1     8    1  |1 1>+        39.79%    0.00%    0.00%    0.01%    0.00%    0.00%    0.00%    1.21%
  9  1     9    1  |1 1>+         0.00%    0.00%    8.03%    0.00%    0.00%   21.67%    0.00%    0.00%
 10  1    10    1  |1 1>+         0.00%    0.00%    0.00%    0.00%    0.00%    0.00%    0.00%    0.00%
 11  1    11    1  |1 1>+         0.00%    0.00%    0.00%    0.00%    8.03%    0.00%   21.67%    0.00%
 12  1    12    1  |1 1>+         0.00%    0.00%    0.00%   70.82%    0.00%    0.00%    0.00%    0.00%
 13  1     1    1  |1 0>          0.00%    0.00%    0.00%    0.00%    0.00%    0.00%    0.00%    0.00%
 14  1     2    1  |1 0>          0.00%    0.00%    0.04%    0.00%    0.00%    0.07%    0.00%    0.00%
 15  1     3    1  |1 0>          0.00%    0.00%    0.00%    0.04%    0.00%    0.00%    0.00%    0.07%
 16  1     4    1  |1 0>          0.00%    0.45%    0.00%    0.00%    0.00%    0.00%    1.61%    0.00%
 17  1     5    1  |1 0>          0.00%    0.00%    0.00%    0.00%    0.00%    0.00%    0.00%    0.00%
 18  1     6    1  |1 0>          0.00%    0.00%    0.04%    0.00%    0.00%    0.40%    0.00%    0.00%
 19  1     7    1  |1 0>         53.04%    0.00%    0.00%    0.04%    0.00%    0.00%    0.00%    0.40%
 20  1     8    1  |1 0>          0.00%   59.19%    0.00%    0.00%    0.05%    0.00%    0.00%    0.00%
 21  1     9    1  |1 0>          0.00%    0.00%    0.00%    0.00%    0.00%    0.00%    0.00%    0.00%
 22  1    10    1  |1 0>          0.00%    0.00%    8.03%    0.00%    0.00%   21.67%    0.00%    0.00%
 23  1    11    1  |1 0>          0.00%    0.00%    0.00%    8.03%    0.00%    0.00%    0.00%   21.67%
 24  1    12    1  |1 0>          0.00%    0.00%    0.00%    0.00%   70.82%    0.00%    0.00%    0.00%
 25  1     1    1  |1 1>-         0.00%    0.00%    0.00%    0.04%    0.00%    0.00%    0.00%    0.07%
 26  1     2    1  |1 1>-         0.00%    0.00%    0.00%    0.00%    0.04%    0.00%    0.07%    0.00%
 27  1     3    1  |1 1>-         0.00%    0.00%    0.00%    0.00%    0.00%    0.00%    0.00%    0.00%
 28  1     4    1  |1 1>-         0.00%    0.00%    0.04%    0.00%    0.00%    0.40%    0.00%    0.00%
 29  1     5    1  |1 1>-         5.49%    0.00%    0.00%    0.04%    0.00%    0.00%    0.00%    0.40%
 30  1     6    1  |1 1>-         0.00%   14.21%    0.00%    0.00%    0.04%    0.00%    0.40%    0.00%
 31  1     7    1  |1 1>-         0.00%    0.00%    0.00%    0.00%    0.00%    0.00%    0.00%    0.00%
 32  1     8    1  |1 1>-         0.00%    0.00%    0.01%    0.00%    0.00%    1.21%    0.00%    0.00%
 33  1     9    1  |1 1>-         0.00%    0.00%    0.00%    8.03%    0.00%    0.00%    0.00%   21.67%
 34  1    10    1  |1 1>-         0.00%    0.00%    0.00%    0.00%    8.03%    0.00%   21.67%    0.00%
 35  1    11    1  |1 1>-         0.00%    0.00%    0.00%    0.00%    0.00%    0.00%    0.00%    0.00%
 36  1    12    1  |1 1>-         0.00%    0.00%   70.82%    0.00%    0.00%    0.00%    0.00%    0.00%
 37  1     1    1  |0 0>          0.00%    0.00%    0.00%    0.00%    0.00%    0.00%    0.00%    0.01%
 38  1     2    1  |0 0>          0.00%    0.00%    0.00%    0.00%    0.00%    0.01%    0.00%    0.00%
 39  1     3    1  |0 0>          0.00%    0.00%    0.00%    0.00%    0.00%    0.00%    0.01%    0.00%
 40  1     4    1  |0 0>          0.00%    0.00%    0.00%    0.00%    0.00%    0.00%    0.00%    0.00%
 41  1     5    1  |0 0>          0.00%    0.00%    0.00%    0.00%    0.00%    0.00%    0.00%    0.00%
 42  1     6    1  |0 0>          0.00%    0.00%    0.00%    0.00%    0.00%    0.00%    0.00%    0.00%
 43  1     7    1  |0 0>          0.00%    0.00%    0.00%   12.89%    0.00%    0.00%    0.00%    0.00%
 44  1     8    1  |0 0>          0.00%    0.00%   12.89%    0.00%    0.00%    0.00%    0.00%    0.00%
 45  1     9    1  |0 0>          0.00%    0.00%    0.00%    0.00%   12.89%    0.00%    0.00%    0.00%
 46  1    10    1  |0 0>          0.00%    0.00%    0.00%    0.00%    0.00%    0.00%    0.00%   54.09%
 47  1    11    1  |0 0>          0.00%    0.00%    0.00%    0.00%    0.00%   54.08%    0.00%    0.00%
 48  1    12    1  |0 0>          0.00%    0.00%    0.00%    0.00%    0.00%    0.00%   54.08%    0.00%
 49  1    13    1  |0 0>          0.00%    0.00%    0.00%    0.00%    0.00%    0.00%    0.00%    0.00%
 50  1    14    1  |0 0>          0.00%    0.00%    0.00%    0.00%    0.00%    0.00%    0.00%    0.00%
 51  1    15    1  |0 0>          0.00%    0.00%    0.00%    0.00%    0.00%    0.00%    0.00%    0.00%

   Total
 Nr Sym  State Sym Spin / Nr.     49       50       51

  1  1     1    1  |1 1>+         0.00%    0.00%    0.00%
  2  1     2    1  |1 1>+         0.02%    0.07%    0.06%
  3  1     3    1  |1 1>+         0.00%    0.00%    0.00%
  4  1     4    1  |1 1>+         0.00%    0.00%    0.00%
  5  1     5    1  |1 1>+         0.00%    0.00%    0.00%
  6  1     6    1  |1 1>+         1.21%    0.41%    0.00%
  7  1     7    1  |1 1>+         0.00%    0.00%    0.00%
  8  1     8    1  |1 1>+         0.00%    0.00%    0.00%
  9  1     9    1  |1 1>+         0.00%    0.00%    0.00%
 10  1    10    1  |1 1>+         7.28%   21.61%    7.94%
 11  1    11    1  |1 1>+         0.00%    0.00%    0.00%
 12  1    12    1  |1 1>+         0.00%    0.00%    0.00%
 13  1     1    1  |1 0>          0.10%    0.00%    0.06%
 14  1     2    1  |1 0>          0.00%    0.00%    0.00%
 15  1     3    1  |1 0>          0.00%    0.00%    0.00%
 16  1     4    1  |1 0>          0.00%    0.00%    0.00%
 17  1     5    1  |1 0>          0.00%    1.61%    0.00%
 18  1     6    1  |1 0>          0.00%    0.00%    0.00%
 19  1     7    1  |1 0>          0.00%    0.00%    0.00%
 20  1     8    1  |1 0>          0.00%    0.00%    0.00%
 21  1     9    1  |1 0>         28.89%    0.00%    7.94%
 22  1    10    1  |1 0>          0.00%    0.00%    0.00%
 23  1    11    1  |1 0>          0.00%    0.00%    0.00%
 24  1    12    1  |1 0>          0.00%    0.00%    0.00%
 25  1     1    1  |1 1>-         0.00%    0.00%    0.00%
 26  1     2    1  |1 1>-         0.00%    0.00%    0.00%
 27  1     3    1  |1 1>-         0.02%    0.07%    0.06%
 28  1     4    1  |1 1>-         0.00%    0.00%    0.00%
 29  1     5    1  |1 1>-         0.00%    0.00%    0.00%
 30  1     6    1  |1 1>-         0.00%    0.00%    0.00%
 31  1     7    1  |1 1>-         1.21%    0.40%    0.00%
 32  1     8    1  |1 1>-         0.00%    0.00%    0.00%
 33  1     9    1  |1 1>-         0.00%    0.00%    0.00%
 34  1    10    1  |1 1>-         0.00%    0.00%    0.00%
 35  1    11    1  |1 1>-         7.16%   21.73%    7.94%
 36  1    12    1  |1 1>-         0.00%    0.00%    0.00%
 37  1     1    1  |0 0>          0.00%    0.00%    0.00%
 38  1     2    1  |0 0>          0.00%    0.00%    0.00%
 39  1     3    1  |0 0>          0.00%    0.00%    0.00%
 40  1     4    1  |0 0>          0.01%    0.00%    0.00%
 41  1     5    1  |0 0>          0.00%    0.01%    0.00%
 42  1     6    1  |0 0>          0.00%    0.00%    0.10%
 43  1     7    1  |0 0>          0.00%    0.00%    0.00%
 44  1     8    1  |0 0>          0.00%    0.00%    0.00%
 45  1     9    1  |0 0>          0.00%    0.00%    0.00%
 46  1    10    1  |0 0>          0.00%    0.00%    0.00%
 47  1    11    1  |0 0>          0.00%    0.00%    0.00%
 48  1    12    1  |0 0>          0.00%    0.00%    0.00%
 49  1    13    1  |0 0>         52.42%    1.67%    0.00%
 50  1    14    1  |0 0>          1.67%   52.42%    0.00%
 51  1    15    1  |0 0>          0.00%    0.00%   75.92%


 No matrix element <i|DMX|i> larger than 5E-7
 No matrix element <i|DMX|1> larger than 5E-7

 No matrix element <i|DMY|i> larger than 5E-7
 No matrix element <i|DMY|1> larger than 5E-7

 No matrix element <i|DMZ|i> larger than 5E-7
 No matrix element <i|DMZ|1> larger than 5E-7


 **********************************************************************************************************************************
 DATASETS  * FILE   NREC   LENGTH (MB)   RECORD NAMES
              1      21       52.36       500      610      700      900      950      970     1000      129      960     1100   
                                          VAR    BASINP    GEOM    SYMINP    ZMAT    AOBASIS   BASIS     P2S    ABASIS      S 
                                         1400     1410     1420     1200     1210     1080     1700     1600     1650     1380   
                                           T        V       ECP      H0       H01     AOSYM    OPER      SMH    MOLCAS    JKOP   
                                         1700(1)
                                         OPER   

              2       7     4156.63       700     1000      520     2100     2140     5201     5101   
                                         GEOM     BASIS   MCVARS     RHF     MCSCF    MRCI     MRCI   

 PROGRAMS   *        TOTAL        CI        CI        CI     MULTI   RHF-SCF       INT
 CPU TIMES  *    103272.03  92481.11   5175.69   5608.95      3.60      0.31      2.01
 REAL TIME  *    104792.05 SEC
 DISK USED  *         4.11 GB (local),       65.96 GB (total)
 SF USED    *        22.21 GB
 GA USED    *         0.00 MB       (max)       0.00 MB       (current)
 **********************************************************************************************************************************

 CI/aug-cc-pWCVQZ-PP energy=   -192.419736645155

              CI              CI           MULTI         RHF-SCF
   -192.37148636   -192.38463455   -191.65892647   -191.86435361
 **********************************************************************************************************************************
 Molpro calculation terminated with 1 warning(s)
