
 Working directory              : /wrk/irikura/molpro.bxg4eNNxu8/
 Global scratch directory       : /wrk/irikura/molpro.bxg4eNNxu8/
 Wavefunction directory         : /home/irikura/wfu/
 Main file repository           : /wrk/irikura/molpro.bxg4eNNxu8/

 id        : nistki

 Nodes            nprocs
 pn112695.nist.gov    8
 GA implementation: MPI file
 GA implementation (serial work in mppx): MPI file

 Using customized tuning parameters: mindgm=1; mindgv=20; mindgc=4; mindgr=1; noblas=0; minvec=7
 default implementation of scratch files=sf  


 Variables initialized (1040), CPU time= 0.01 sec
 ***,Pb SO-CI
 memory,3000,M;
 
 gprint,orbitals,civector;
 gprint,basis
 
 symmetry,xyz
 geometry={Pb};
 
 basis={
 ecp,pb,ECP60MDF;
 spdfgh,pb,aug-cc-pwCVQZ-PP;C; spdf,1,even,nprim=1,ratio=3.0;
 }
 
                                                                                 ! spherical anion orbitals (4S)
 {rhf; wf,charge=-1,sym=2,spin=3}
 
 NTRIP=12
 NSING=15
 
                                                                                 ! add 7p to active space
 {multi
     closed,6,3
     occ,7,9
     wf,charge=0,sym=1,spin=2;state,NTRIP; weight,3[25],9[1]
     wf,charge=0,sym=1,spin=0;state,NSING;
     expec2,lxx,lyy,lzz;
 }
 table, energy, ll
 title, Energies and &lt;L**2&gt; values
 
 core,0,0
 
 {ci;wf,sym=1,spin=2;state,NTRIP; save,5201.2}
 hlsdiag = energd4
 {ci;wf,sym=1,spin=0;state,NSING; save,5101.2}
 hlsdiag(NTRIP+1) = energd4
 
 table,hlsdiag
 
 {ci;hlsmat,ecp,5201.2,5101.2;print,vls=0,hls=0}                                 !compute and diagonalize SO matrix
 Commands initialized (846), CPU time= 0.01 sec, 717 directives.
 Default parameters read. Elapsed time= 0.11 sec

 Checking input...
 Passed
1


                                         ***  PROGRAM SYSTEM MOLPRO  ***
                                       Copyright, TTI GmbH Stuttgart, 2015
                                    Version 2023.2 linked Fri Sep 22 03:27:09 2023


 **********************************************************************************************************************************
 LABEL *   Pb SO-CI                                                                                                                                                      
  (32 PROC) 64 bit mpp version                                                           DATE: 16-Nov-24          TIME: 21:36:32  
 **********************************************************************************************************************************

 SHA1:             3c61bfe44d37c8635c785372c339f5cbdd4e4b59
 **********************************************************************************************************************************

 Memory per process:      3000 MW
 Total memory per node:  24000 MW

 GA preallocation disabled
 GA check disabled

 Variable memory set to 3000.0 MW



 ZSYMEL=XYZ

 SETTING BASIS          =    USERDEF


 Recomputing integrals since basis changed


 Using spherical harmonics

 Library entry Pb   ECP ECP60MDF                 selected for group  1
 Library entry PB     S AUG-CC-PWCVQZ-PP     selected for orbital group  1
 Even tempered Pb S diffuse               selected for group 1    nprim= 1    centre=  0.007    ratio= 3.000    dratio= 1.000
 Library entry PB     P AUG-CC-PWCVQZ-PP     selected for orbital group  1
 Even tempered Pb P diffuse               selected for group 1    nprim= 1    centre=  0.005    ratio= 3.000    dratio= 1.000
 Library entry PB     D AUG-CC-PWCVQZ-PP     selected for orbital group  1
 Even tempered Pb D diffuse               selected for group 1    nprim= 1    centre=  0.011    ratio= 3.000    dratio= 1.000
 Library entry PB     F AUG-CC-PWCVQZ-PP     selected for orbital group  1
 Even tempered Pb F diffuse               selected for group 1    nprim= 1    centre=  0.024    ratio= 3.000    dratio= 1.000
 Library entry PB     G AUG-CC-PWCVQZ-PP     selected for orbital group  1
 Library entry PB     H AUG-CC-PWCVQZ-PP     selected for orbital group  1


 PROGRAM * SEWARD (Integral evaluation for generally contracted gaussian basis sets)     Author: Roland Lindh, 1990

 Geometry written to block  1 of record 700

 Orientation using atomic masses  
 Molecule type: Atom
 User-specified symmetry elements: XYZ
 Symmetry elements: XYZ
 Rotational constants:       0.0000000      0.0000000      0.0000000 GHz  (calculated with average atomic masses)

 Point group  Ci  



 ATOMIC COORDINATES

 NR  ATOM    CHARGE       X              Y              Z

   1  PB     22.00    0.000000000    0.000000000    0.000000000


          PB  CORE POTENTIAL

          h POTENTIAL

 POWERS             2
 EXPONENTIALS   1.000000    
 COEFFICIENTS   0.000000    

          s - h POTENTIAL

 POWERS             2              2
 EXPONENTIALS   12.29630       8.632634    
 COEFFICIENTS   281.2855       62.52022    

          p - h POTENTIAL

 POWERS             2              2              2              2
 EXPONENTIALS   10.24179       8.924176       6.581342       6.255403    
 COEFFICIENTS   72.27690       144.5911       4.758693       9.940621    

          d - h POTENTIAL

 POWERS             2              2              2              2
 EXPONENTIALS   7.754336       7.720281       4.970264       4.563789    
 COEFFICIENTS   35.84851       53.72434       10.11526       14.83373    

          f - h POTENTIAL

 POWERS             2              2
 EXPONENTIALS   3.887512       3.811963    
 COEFFICIENTS   12.20989       16.19029    

          g - h POTENTIAL

 POWERS             2              2
 EXPONENTIALS   5.691577       5.715567    
 COEFFICIENTS  -9.096665      -11.53200    


          PB  SPIN-ORBIT POTENTIAL

          p POTENTIAL

 POWERS             2              2              2              2
 EXPONENTIALS   10.24179       8.924176       6.581342       6.255403    
 COEFFICIENTS  -144.5538       144.5911      -9.517385       9.940621    

          d POTENTIAL

 POWERS             2              2              2              2
 EXPONENTIALS   7.754336       7.720281       4.970264       4.563789    
 COEFFICIENTS  -35.84851       35.81623      -10.11526       9.889154    

          f POTENTIAL

 POWERS             2              2
 EXPONENTIALS   3.887512       3.811963    
 COEFFICIENTS  -8.139928       8.095145    

          g POTENTIAL

 POWERS             2              2
 EXPONENTIALS   5.691577       5.715567    
 COEFFICIENTS   4.548332      -4.612798    


 BASIS DATA

   Nr Sym  Nuc  Type         Exponents   Contraction coefficients

    1.1 Ag    1  1s        9368.330000     0.000014    0.000000    0.000000    0.000000    0.000000    0.000000
    2.1 Ag                 1366.930000     0.000103    0.000000    0.000000    0.000000    0.000000    0.000000
    3.1 Ag                  299.682000     0.000379    0.000000    0.000000    0.000000    0.000000    0.000000
    4.1 Ag                   34.859700     0.023274    0.000000    0.000000    0.000000    0.000000    0.000000
    5.1 Ag                   21.788900    -0.203436    0.000000    0.000000    0.000000    0.000000    0.000000
    6.1 Ag                   13.620000     0.699214    1.000000    0.000000    0.000000    0.000000    0.000000
                              8.512950    -0.606841    0.000000    0.000000    0.000000    0.000000    0.000000
                              5.303320    -0.611392    0.000000    0.000000    0.000000    0.000000    0.000000
                              1.928160     0.765227    0.000000    0.000000    0.000000    0.000000    0.000000
                              1.036010     0.619808    0.000000    0.000000    0.000000    0.000000    0.000000
                              0.501270     0.095749    0.000000    1.000000    0.000000    0.000000    0.000000
                              0.262519    -0.003179    0.000000    0.000000    1.000000    0.000000    0.000000
                              0.122161     0.001427    0.000000    0.000000    0.000000    1.000000    0.000000
                              0.055088    -0.000241    0.000000    0.000000    0.000000    0.000000    1.000000
    7.1 Ag    1  1s           5.794700     1.000000
    8.1 Ag    1  1s           2.617500     1.000000
    9.1 Ag    1  1s           1.182400     1.000000
   10.1 Ag    1  1s           0.021600     1.000000
   11.1 Ag    1  1s           0.007200     1.000000
   12.1 Ag    1  3d0        174.502000     0.000043
                             51.637900     0.000330
                             12.813500     0.010755
                              6.665400    -0.075094
                              2.589270     0.180678
                              1.561410     0.305696
                              0.931233     0.314749
                              0.548547     0.231609
                              0.318298     0.115015
                              0.180251     0.037382
                              0.083200     0.004038
   13.1 Ag    1  3d2-       174.502000     0.000043
                             51.637900     0.000330
                             12.813500     0.010755
                              6.665400    -0.075094
                              2.589270     0.180678
                              1.561410     0.305696
                              0.931233     0.314749
                              0.548547     0.231609
                              0.318298     0.115015
                              0.180251     0.037382
                              0.083200     0.004038
   14.1 Ag    1  3d1+       174.502000     0.000043
                             51.637900     0.000330
                             12.813500     0.010755
                              6.665400    -0.075094
                              2.589270     0.180678
                              1.561410     0.305696
                              0.931233     0.314749
                              0.548547     0.231609
                              0.318298     0.115015
                              0.180251     0.037382
                              0.083200     0.004038
   15.1 Ag    1  3d2+       174.502000     0.000043
                             51.637900     0.000330
                             12.813500     0.010755
                              6.665400    -0.075094
                              2.589270     0.180678
                              1.561410     0.305696
                              0.931233     0.314749
                              0.548547     0.231609
                              0.318298     0.115015
                              0.180251     0.037382
                              0.083200     0.004038
   16.1 Ag    1  3d1-       174.502000     0.000043
                             51.637900     0.000330
                             12.813500     0.010755
                              6.665400    -0.075094
                              2.589270     0.180678
                              1.561410     0.305696
                              0.931233     0.314749
                              0.548547     0.231609
                              0.318298     0.115015
                              0.180251     0.037382
                              0.083200     0.004038
   17.1 Ag    1  3d0        174.502000     0.000000
                             51.637900     0.000000
                             12.813500     0.000000
                              6.665400     0.000000
                              2.589270     0.000000
                              1.561410     0.000000
                              0.931233     0.000000
                              0.548547     0.000000
                              0.318298     1.000000
                              0.180251     0.000000
                              0.083200     0.000000
   18.1 Ag    1  3d2-       174.502000     0.000000
                             51.637900     0.000000
                             12.813500     0.000000
                              6.665400     0.000000
                              2.589270     0.000000
                              1.561410     0.000000
                              0.931233     0.000000
                              0.548547     0.000000
                              0.318298     1.000000
                              0.180251     0.000000
                              0.083200     0.000000
   19.1 Ag    1  3d1+       174.502000     0.000000
                             51.637900     0.000000
                             12.813500     0.000000
                              6.665400     0.000000
                              2.589270     0.000000
                              1.561410     0.000000
                              0.931233     0.000000
                              0.548547     0.000000
                              0.318298     1.000000
                              0.180251     0.000000
                              0.083200     0.000000
   20.1 Ag    1  3d2+       174.502000     0.000000
                             51.637900     0.000000
                             12.813500     0.000000
                              6.665400     0.000000
                              2.589270     0.000000
                              1.561410     0.000000
                              0.931233     0.000000
                              0.548547     0.000000
                              0.318298     1.000000
                              0.180251     0.000000
                              0.083200     0.000000
   21.1 Ag    1  3d1-       174.502000     0.000000
                             51.637900     0.000000
                             12.813500     0.000000
                              6.665400     0.000000
                              2.589270     0.000000
                              1.561410     0.000000
                              0.931233     0.000000
                              0.548547     0.000000
                              0.318298     1.000000
                              0.180251     0.000000
                              0.083200     0.000000
   22.1 Ag    1  3d0        174.502000     0.000000
                             51.637900     0.000000
                             12.813500     0.000000
                              6.665400     0.000000
                              2.589270     0.000000
                              1.561410     0.000000
                              0.931233     0.000000
                              0.548547     0.000000
                              0.318298     0.000000
                              0.180251     1.000000
                              0.083200     0.000000
   23.1 Ag    1  3d2-       174.502000     0.000000
                             51.637900     0.000000
                             12.813500     0.000000
                              6.665400     0.000000
                              2.589270     0.000000
                              1.561410     0.000000
                              0.931233     0.000000
                              0.548547     0.000000
                              0.318298     0.000000
                              0.180251     1.000000
                              0.083200     0.000000
   24.1 Ag    1  3d1+       174.502000     0.000000
                             51.637900     0.000000
                             12.813500     0.000000
                              6.665400     0.000000
                              2.589270     0.000000
                              1.561410     0.000000
                              0.931233     0.000000
                              0.548547     0.000000
                              0.318298     0.000000
                              0.180251     1.000000
                              0.083200     0.000000
   25.1 Ag    1  3d2+       174.502000     0.000000
                             51.637900     0.000000
                             12.813500     0.000000
                              6.665400     0.000000
                              2.589270     0.000000
                              1.561410     0.000000
                              0.931233     0.000000
                              0.548547     0.000000
                              0.318298     0.000000
                              0.180251     1.000000
                              0.083200     0.000000
   26.1 Ag    1  3d1-       174.502000     0.000000
                             51.637900     0.000000
                             12.813500     0.000000
                              6.665400     0.000000
                              2.589270     0.000000
                              1.561410     0.000000
                              0.931233     0.000000
                              0.548547     0.000000
                              0.318298     0.000000
                              0.180251     1.000000
                              0.083200     0.000000
   27.1 Ag    1  3d0        174.502000     0.000000
                             51.637900     0.000000
                             12.813500     0.000000
                              6.665400     0.000000
                              2.589270     0.000000
                              1.561410     0.000000
                              0.931233     0.000000
                              0.548547     0.000000
                              0.318298     0.000000
                              0.180251     0.000000
                              0.083200     1.000000
   28.1 Ag    1  3d2-       174.502000     0.000000
                             51.637900     0.000000
                             12.813500     0.000000
                              6.665400     0.000000
                              2.589270     0.000000
                              1.561410     0.000000
                              0.931233     0.000000
                              0.548547     0.000000
                              0.318298     0.000000
                              0.180251     0.000000
                              0.083200     1.000000
   29.1 Ag    1  3d1+       174.502000     0.000000
                             51.637900     0.000000
                             12.813500     0.000000
                              6.665400     0.000000
                              2.589270     0.000000
                              1.561410     0.000000
                              0.931233     0.000000
                              0.548547     0.000000
                              0.318298     0.000000
                              0.180251     0.000000
                              0.083200     1.000000
   30.1 Ag    1  3d2+       174.502000     0.000000
                             51.637900     0.000000
                             12.813500     0.000000
                              6.665400     0.000000
                              2.589270     0.000000
                              1.561410     0.000000
                              0.931233     0.000000
                              0.548547     0.000000
                              0.318298     0.000000
                              0.180251     0.000000
                              0.083200     1.000000
   31.1 Ag    1  3d1-       174.502000     0.000000
                             51.637900     0.000000
                             12.813500     0.000000
                              6.665400     0.000000
                              2.589270     0.000000
                              1.561410     0.000000
                              0.931233     0.000000
                              0.548547     0.000000
                              0.318298     0.000000
                              0.180251     0.000000
                              0.083200     1.000000
   32.1 Ag    1  3d0          3.176200     1.000000
   33.1 Ag    1  3d2-         3.176200     1.000000
   34.1 Ag    1  3d1+         3.176200     1.000000
   35.1 Ag    1  3d2+         3.176200     1.000000
   36.1 Ag    1  3d1-         3.176200     1.000000
   37.1 Ag    1  3d0          1.525200     1.000000
   38.1 Ag    1  3d2-         1.525200     1.000000
   39.1 Ag    1  3d1+         1.525200     1.000000
   40.1 Ag    1  3d2+         1.525200     1.000000
   41.1 Ag    1  3d1-         1.525200     1.000000
   42.1 Ag    1  3d0          0.732400     1.000000
   43.1 Ag    1  3d2-         0.732400     1.000000
   44.1 Ag    1  3d1+         0.732400     1.000000
   45.1 Ag    1  3d2+         0.732400     1.000000
   46.1 Ag    1  3d1-         0.732400     1.000000
   47.1 Ag    1  3d0          0.033900     1.000000
   48.1 Ag    1  3d2-         0.033900     1.000000
   49.1 Ag    1  3d1+         0.033900     1.000000
   50.1 Ag    1  3d2+         0.033900     1.000000
   51.1 Ag    1  3d1-         0.033900     1.000000
   52.1 Ag    1  3d0          0.011300     1.000000
   53.1 Ag    1  3d2-         0.011300     1.000000
   54.1 Ag    1  3d1+         0.011300     1.000000
   55.1 Ag    1  3d2+         0.011300     1.000000
   56.1 Ag    1  3d1-         0.011300     1.000000
   57.1 Ag    1  5g0          0.388100     1.000000
   58.1 Ag    1  5g2-         0.388100     1.000000
   59.1 Ag    1  5g1+         0.388100     1.000000
   60.1 Ag    1  5g4+         0.388100     1.000000
   61.1 Ag    1  5g1-         0.388100     1.000000
   62.1 Ag    1  5g2+         0.388100     1.000000
   63.1 Ag    1  5g4-         0.388100     1.000000
   64.1 Ag    1  5g3+         0.388100     1.000000
   65.1 Ag    1  5g3-         0.388100     1.000000
   66.1 Ag    1  5g0          3.200500     1.000000
   67.1 Ag    1  5g2-         3.200500     1.000000
   68.1 Ag    1  5g1+         3.200500     1.000000
   69.1 Ag    1  5g4+         3.200500     1.000000
   70.1 Ag    1  5g1-         3.200500     1.000000
   71.1 Ag    1  5g2+         3.200500     1.000000
   72.1 Ag    1  5g4-         3.200500     1.000000
   73.1 Ag    1  5g3+         3.200500     1.000000
   74.1 Ag    1  5g3-         3.200500     1.000000
   75.1 Ag    1  5g0          1.028400     1.000000
   76.1 Ag    1  5g2-         1.028400     1.000000
   77.1 Ag    1  5g1+         1.028400     1.000000
   78.1 Ag    1  5g4+         1.028400     1.000000
   79.1 Ag    1  5g1-         1.028400     1.000000
   80.1 Ag    1  5g2+         1.028400     1.000000
   81.1 Ag    1  5g4-         1.028400     1.000000
   82.1 Ag    1  5g3+         1.028400     1.000000
   83.1 Ag    1  5g3-         1.028400     1.000000
   84.1 Ag    1  5g0          0.174600     1.000000
   85.1 Ag    1  5g2-         0.174600     1.000000
   86.1 Ag    1  5g1+         0.174600     1.000000
   87.1 Ag    1  5g4+         0.174600     1.000000
   88.1 Ag    1  5g1-         0.174600     1.000000
   89.1 Ag    1  5g2+         0.174600     1.000000
   90.1 Ag    1  5g4-         0.174600     1.000000
   91.1 Ag    1  5g3+         0.174600     1.000000
   92.1 Ag    1  5g3-         0.174600     1.000000
    1.2 Au    1  2px         59.090100     0.000716
                             20.919700    -0.021082
                             13.077700     0.127061
                              6.899100    -0.372284
                              2.196270     0.435663
                              1.304860     0.435735
                              0.779572     0.260947
                              0.424477     0.066747
                              0.180733     0.004427
                              0.079737     0.000179
                              0.034649     0.000061
    2.2 Au    1  2py         59.090100     0.000716
                             20.919700    -0.021082
                             13.077700     0.127061
                              6.899100    -0.372284
                              2.196270     0.435663
                              1.304860     0.435735
                              0.779572     0.260947
                              0.424477     0.066747
                              0.180733     0.004427
                              0.079737     0.000179
                              0.034649     0.000061
    3.2 Au    1  2pz         59.090100     0.000716
                             20.919700    -0.021082
                             13.077700     0.127061
                              6.899100    -0.372284
                              2.196270     0.435663
                              1.304860     0.435735
                              0.779572     0.260947
                              0.424477     0.066747
                              0.180733     0.004427
                              0.079737     0.000179
                              0.034649     0.000061
    4.2 Au    1  2px         59.090100     0.000000
                             20.919700     0.000000
                             13.077700     0.000000
                              6.899100     1.000000
                              2.196270     0.000000
                              1.304860     0.000000
                              0.779572     0.000000
                              0.424477     0.000000
                              0.180733     0.000000
                              0.079737     0.000000
                              0.034649     0.000000
    5.2 Au    1  2py         59.090100     0.000000
                             20.919700     0.000000
                             13.077700     0.000000
                              6.899100     1.000000
                              2.196270     0.000000
                              1.304860     0.000000
                              0.779572     0.000000
                              0.424477     0.000000
                              0.180733     0.000000
                              0.079737     0.000000
                              0.034649     0.000000
    6.2 Au    1  2pz         59.090100     0.000000
                             20.919700     0.000000
                             13.077700     0.000000
                              6.899100     1.000000
                              2.196270     0.000000
                              1.304860     0.000000
                              0.779572     0.000000
                              0.424477     0.000000
                              0.180733     0.000000
                              0.079737     0.000000
                              0.034649     0.000000
    7.2 Au    1  2px         59.090100     0.000000
                             20.919700     0.000000
                             13.077700     0.000000
                              6.899100     0.000000
                              2.196270     0.000000
                              1.304860     0.000000
                              0.779572     0.000000
                              0.424477     1.000000
                              0.180733     0.000000
                              0.079737     0.000000
                              0.034649     0.000000
    8.2 Au    1  2py         59.090100     0.000000
                             20.919700     0.000000
                             13.077700     0.000000
                              6.899100     0.000000
                              2.196270     0.000000
                              1.304860     0.000000
                              0.779572     0.000000
                              0.424477     1.000000
                              0.180733     0.000000
                              0.079737     0.000000
                              0.034649     0.000000
    9.2 Au    1  2pz         59.090100     0.000000
                             20.919700     0.000000
                             13.077700     0.000000
                              6.899100     0.000000
                              2.196270     0.000000
                              1.304860     0.000000
                              0.779572     0.000000
                              0.424477     1.000000
                              0.180733     0.000000
                              0.079737     0.000000
                              0.034649     0.000000
   10.2 Au    1  2px         59.090100     0.000000
                             20.919700     0.000000
                             13.077700     0.000000
                              6.899100     0.000000
                              2.196270     0.000000
                              1.304860     0.000000
                              0.779572     0.000000
                              0.424477     0.000000
                              0.180733     1.000000
                              0.079737     0.000000
                              0.034649     0.000000
   11.2 Au    1  2py         59.090100     0.000000
                             20.919700     0.000000
                             13.077700     0.000000
                              6.899100     0.000000
                              2.196270     0.000000
                              1.304860     0.000000
                              0.779572     0.000000
                              0.424477     0.000000
                              0.180733     1.000000
                              0.079737     0.000000
                              0.034649     0.000000
   12.2 Au    1  2pz         59.090100     0.000000
                             20.919700     0.000000
                             13.077700     0.000000
                              6.899100     0.000000
                              2.196270     0.000000
                              1.304860     0.000000
                              0.779572     0.000000
                              0.424477     0.000000
                              0.180733     1.000000
                              0.079737     0.000000
                              0.034649     0.000000
   13.2 Au    1  2px         59.090100     0.000000
                             20.919700     0.000000
                             13.077700     0.000000
                              6.899100     0.000000
                              2.196270     0.000000
                              1.304860     0.000000
                              0.779572     0.000000
                              0.424477     0.000000
                              0.180733     0.000000
                              0.079737     1.000000
                              0.034649     0.000000
   14.2 Au    1  2py         59.090100     0.000000
                             20.919700     0.000000
                             13.077700     0.000000
                              6.899100     0.000000
                              2.196270     0.000000
                              1.304860     0.000000
                              0.779572     0.000000
                              0.424477     0.000000
                              0.180733     0.000000
                              0.079737     1.000000
                              0.034649     0.000000
   15.2 Au    1  2pz         59.090100     0.000000
                             20.919700     0.000000
                             13.077700     0.000000
                              6.899100     0.000000
                              2.196270     0.000000
                              1.304860     0.000000
                              0.779572     0.000000
                              0.424477     0.000000
                              0.180733     0.000000
                              0.079737     1.000000
                              0.034649     0.000000
   16.2 Au    1  2px         59.090100     0.000000
                             20.919700     0.000000
                             13.077700     0.000000
                              6.899100     0.000000
                              2.196270     0.000000
                              1.304860     0.000000
                              0.779572     0.000000
                              0.424477     0.000000
                              0.180733     0.000000
                              0.079737     0.000000
                              0.034649     1.000000
   17.2 Au    1  2py         59.090100     0.000000
                             20.919700     0.000000
                             13.077700     0.000000
                              6.899100     0.000000
                              2.196270     0.000000
                              1.304860     0.000000
                              0.779572     0.000000
                              0.424477     0.000000
                              0.180733     0.000000
                              0.079737     0.000000
                              0.034649     1.000000
   18.2 Au    1  2pz         59.090100     0.000000
                             20.919700     0.000000
                             13.077700     0.000000
                              6.899100     0.000000
                              2.196270     0.000000
                              1.304860     0.000000
                              0.779572     0.000000
                              0.424477     0.000000
                              0.180733     0.000000
                              0.079737     0.000000
                              0.034649     1.000000
   19.2 Au    1  2px          2.887000     1.000000
   20.2 Au    1  2py          2.887000     1.000000
   21.2 Au    1  2pz          2.887000     1.000000
   22.2 Au    1  2px          1.642600     1.000000
   23.2 Au    1  2py          1.642600     1.000000
   24.2 Au    1  2pz          1.642600     1.000000
   25.2 Au    1  2px          0.934600     1.000000
   26.2 Au    1  2py          0.934600     1.000000
   27.2 Au    1  2pz          0.934600     1.000000
   28.2 Au    1  2px          0.013700     1.000000
   29.2 Au    1  2py          0.013700     1.000000
   30.2 Au    1  2pz          0.013700     1.000000
   31.2 Au    1  2px          0.004567     1.000000
   32.2 Au    1  2py          0.004567     1.000000
   33.2 Au    1  2pz          0.004567     1.000000
   34.2 Au    1  4f1+         0.441300     1.000000
   35.2 Au    1  4f1-         0.441300     1.000000
   36.2 Au    1  4f0          0.441300     1.000000
   37.2 Au    1  4f3+         0.441300     1.000000
   38.2 Au    1  4f2-         0.441300     1.000000
   39.2 Au    1  4f3-         0.441300     1.000000
   40.2 Au    1  4f2+         0.441300     1.000000
   41.2 Au    1  4f1+         0.178200     1.000000
   42.2 Au    1  4f1-         0.178200     1.000000
   43.2 Au    1  4f0          0.178200     1.000000
   44.2 Au    1  4f3+         0.178200     1.000000
   45.2 Au    1  4f2-         0.178200     1.000000
   46.2 Au    1  4f3-         0.178200     1.000000
   47.2 Au    1  4f2+         0.178200     1.000000
   48.2 Au    1  4f1+         3.073500     1.000000
   49.2 Au    1  4f1-         3.073500     1.000000
   50.2 Au    1  4f0          3.073500     1.000000
   51.2 Au    1  4f3+         3.073500     1.000000
   52.2 Au    1  4f2-         3.073500     1.000000
   53.2 Au    1  4f3-         3.073500     1.000000
   54.2 Au    1  4f2+         3.073500     1.000000
   55.2 Au    1  4f1+         1.718100     1.000000
   56.2 Au    1  4f1-         1.718100     1.000000
   57.2 Au    1  4f0          1.718100     1.000000
   58.2 Au    1  4f3+         1.718100     1.000000
   59.2 Au    1  4f2-         1.718100     1.000000
   60.2 Au    1  4f3-         1.718100     1.000000
   61.2 Au    1  4f2+         1.718100     1.000000
   62.2 Au    1  4f1+         0.960500     1.000000
   63.2 Au    1  4f1-         0.960500     1.000000
   64.2 Au    1  4f0          0.960500     1.000000
   65.2 Au    1  4f3+         0.960500     1.000000
   66.2 Au    1  4f2-         0.960500     1.000000
   67.2 Au    1  4f3-         0.960500     1.000000
   68.2 Au    1  4f2+         0.960500     1.000000
   69.2 Au    1  4f1+         0.072300     1.000000
   70.2 Au    1  4f1-         0.072300     1.000000
   71.2 Au    1  4f0          0.072300     1.000000
   72.2 Au    1  4f3+         0.072300     1.000000
   73.2 Au    1  4f2-         0.072300     1.000000
   74.2 Au    1  4f3-         0.072300     1.000000
   75.2 Au    1  4f2+         0.072300     1.000000
   76.2 Au    1  4f1+         0.024100     1.000000
   77.2 Au    1  4f1-         0.024100     1.000000
   78.2 Au    1  4f0          0.024100     1.000000
   79.2 Au    1  4f3+         0.024100     1.000000
   80.2 Au    1  4f2-         0.024100     1.000000
   81.2 Au    1  4f3-         0.024100     1.000000
   82.2 Au    1  4f2+         0.024100     1.000000
   83.2 Au    1  6h1+         1.013800     1.000000
   84.2 Au    1  6h1-         1.013800     1.000000
   85.2 Au    1  6h2+         1.013800     1.000000
   86.2 Au    1  6h3+         1.013800     1.000000
   87.2 Au    1  6h4-         1.013800     1.000000
   88.2 Au    1  6h3-         1.013800     1.000000
   89.2 Au    1  6h4+         1.013800     1.000000
   90.2 Au    1  6h5-         1.013800     1.000000
   91.2 Au    1  6h0          1.013800     1.000000
   92.2 Au    1  6h5+         1.013800     1.000000
   93.2 Au    1  6h2-         1.013800     1.000000

 NUCLEAR CHARGE:                   22
 NUMBER OF PRIMITIVE AOS:         314
 NUMBER OF SYMMETRY AOS:          243
 NUMBER OF CONTRACTIONS:          185   (   92Ag  +   93Au  )
 NUMBER OF INNER CORE ORBITALS:     0   (    0Ag  +    0Au  )
 NUMBER OF OUTER CORE ORBITALS:     9   (    6Ag  +    3Au  )
 NUMBER OF VALENCE ORBITALS:        4   (    1Ag  +    3Au  )


 LX: Ag           LY: Ag           LZ: Ag 


 NUCLEAR REPULSION ENERGY    0.00000000

 EXTRA SYMMETRY OF AOS IN SYMMETRY 1:   1 1 1 1 1 1 1 1 1 1   1 2 3 4 5 6 2 3 4 5   6 2 3 4 5 6 2 3 4 5   6 2 3 4 5 6 2 3 4 5
                                        6 2 3 4 5 6 2 3 4 5   6 2 3 4 5 6 7 8 910  1112131415 7 8 91011  12131415 7 8 9101112
                                       131415 7 8 910111213  1415
 EXTRA SYMMETRY OF AOS IN SYMMETRY 2:   1 2 3 1 2 3 1 2 3 1   2 3 1 2 3 1 2 3 1 2   3 1 2 3 1 2 3 1 2 3   1 2 3 4 5 6 7 8 910
                                        4 5 6 7 8 910 4 5 6   7 8 910 4 5 6 7 8 9  10 4 5 6 7 8 910 4 5   6 7 8 910 4 5 6 7 8
                                        9101112131415161718  192021


 Eigenvalues of metric

         1 0.359E-04 0.671E-03 0.671E-03 0.671E-03 0.671E-03 0.671E-03 0.718E-03 0.360E-02
         2 0.376E-03 0.376E-03 0.376E-03 0.204E-02 0.204E-02 0.204E-02 0.102E-01 0.102E-01


 Contracted 2-electron integrals neglected if value below      1.0D-12
 AO integral compression algorithm  1   Integral accuracy      1.0D-12

     158.335 MB (compressed) written to integral file ( 14.8%)

     Node minimum: 15.204 MB, node maximum: 24.642 MB


 NUMBER OF SORTED TWO-ELECTRON INTEGRALS:    9344772.     BUFFER LENGTH:  32768
 NUMBER OF SEGMENTS:   1  SEGMENT LENGTH:    9344772      RECORD LENGTH: 524288

 Memory used in sort:       9.90 MW

 SORT1 READ   134353782. AND WROTE     1729512. INTEGRALS IN      5 RECORDS. CPU TIME:     0.56 SEC, REAL TIME:     0.57 SEC
 SORT2 READ    13879738. AND WROTE    74805201. INTEGRALS IN    752 RECORDS. CPU TIME:     0.20 SEC, REAL TIME:     0.23 SEC

 Node minimum:     9343692.  Node maximum:     9360852. integrals

 OPERATOR DM      FOR CENTER  0  COORDINATES:    0.000000    0.000000    0.000000


 **********************************************************************************************************************************
 DATASETS  * FILE   NREC   LENGTH (MB)   RECORD NAMES
              1      19       29.52       500      610      700      900      950      970     1000      129      960     1100   
                                          VAR    BASINP    GEOM    SYMINP    ZMAT    AOBASIS   BASIS     P2S    ABASIS      S 
                                         1400     1410     1420     1200     1210     1080     1700     1600     1650   
                                           T        V       ECP      H0       H01     AOSYM    OPER      SMH    MOLCAS    

 PROGRAMS   *        TOTAL       INT
 CPU TIMES  *         3.05      2.86
 REAL TIME  *         4.61 SEC
 DISK USED  *        29.89 MB (local),      521.29 MB (total)
 GA USED    *         0.00 MB       (max)       0.00 MB       (current)
 **********************************************************************************************************************************


 Program * Restricted Hartree-Fock


   Atom=PB basis=cc-pVTZ-PP        lmin=0  lmax=2

 Orbital guess generated from atomic densities.

 Initial alpha occupancy:   7   6
 Initial beta  occupancy:   7   3

 NELEC=   23   SYM=2   MS2= 3   THRE=1.0D-08   THRD=3.2D-06   THRG=3.2D-06  HFMA2=F  DIIS_START=2   DIIS_MAX=10   DIIS_INCORE=F

 Level shifts:    0.00 (CLOSED)    0.00 (OPEN)    0.30 (GAP_MIN)

 ITER           ETOT              DE          GRAD        DDIFF     DIIS  NEXP   TIME(IT)  TIME(TOT)  DIAG
   1     -191.86187297    -191.86187297     0.00D+00     0.68D-01     0     0       0.04      0.09    start
   2     -191.86404786      -0.00217489     0.88D-03     0.17D-02     1     0       0.05      0.14    diag2
   3     -191.86428102      -0.00023316     0.49D-03     0.41D-03     2     0       0.05      0.19    diag2
   4     -191.86434246      -0.00006144     0.12D-03     0.28D-03     3     0       0.06      0.25    diag2
   5     -191.86435047      -0.00000801     0.32D-04     0.81D-04     4     0       0.05      0.30    diag2
   6     -191.86435278      -0.00000231     0.98D-05     0.49D-04     5     0       0.05      0.35    diag2
   7     -191.86435380      -0.00000102     0.49D-05     0.37D-04     6     0       0.05      0.40    diag2
   8     -191.86435405      -0.00000024     0.22D-05     0.12D-04     7     0       0.05      0.45    fixocc
   9     -191.86435407      -0.00000003     0.73D-06     0.62D-05     8     0       0.05      0.50    diag2
  10     -191.86435407      -0.00000000     0.25D-06     0.32D-05     9     0       0.05      0.55    diag2/orth
  11     -191.86435408      -0.00000000     0.11D-06     0.12D-05     9     0       0.05      0.60    diag2
  12     -191.86435408      -0.00000000     0.32D-07     0.91D-07     0     0       0.05      0.65    diag

 Final alpha occupancy:   7   6
 Final beta  occupancy:   7   3

 !RHF STATE 1.2 Energy               -191.864354075064
  RHF One-electron energy            -340.681309628323
  RHF Two-electron energy             148.816955553259
  RHF Kinetic energy                   62.712676211777
  RHF Nuclear energy                    0.000000000000
  RHF Virial quotient                  -3.059419014860

 !RHF STATE 1.2 Dipole moment           0.00000000     0.00000000     0.00000000
 Dipole moment /Debye                   0.00000000     0.00000000     0.00000000

 ELECTRON ORBITALS
 =================

  Orbital  Occupation    Energy    Cen Mu Typ  Coefficients
    1.1     2.00000    -5.94947     1  1  s    0.99999
    2.1     2.00000    -0.84964     1  1  d2-  0.99548
    3.1     2.00000    -0.84964     1  1  d2+  0.68403    1  1  d1-  0.71254
    4.1     2.00000    -0.84964     1  1  d2+ -0.67172    1  1  d1-  0.69646
    5.1     2.00000    -0.84964     1  1  d1+  0.95944    1  1  d2+  0.26837
    6.1     2.00000    -0.84964     1  1  d0   0.99937
    7.1     2.00000    -0.35280     1  1  s   -0.35030    1  4  s    0.53050    1  5  s    0.53445    1  9  s   -0.30111
    1.2     2.00000    -3.63193     1  1  px   1.00030
    2.2     2.00000    -3.63193     1  1  py   0.83241    1  1  pz   0.55470
    3.2     2.00000    -3.63193     1  1  py  -0.55470    1  1  pz   0.83241
    4.2     1.00000    -0.05164     1  1  px  -0.25125    1  4  px   0.35743    1  5  px   0.40515    1  6  px   0.28962
    5.2     1.00000    -0.05164     1  4  py   0.29330    1  5  py   0.33245
    6.2     1.00000    -0.05164     1  4  pz   0.29330    1  5  pz   0.33245


 HOMO      6.2    -0.051635 =      -1.4051eV
 LUMO      7.2     0.066674 =       1.8143eV
 LUMO-HOMO         0.118309 =       3.2194eV

 Orbitals saved in record  2100.2


 **********************************************************************************************************************************
 DATASETS  * FILE   NREC   LENGTH (MB)   RECORD NAMES
              1      19       29.52       500      610      700      900      950      970     1000      129      960     1100   
                                          VAR    BASINP    GEOM    SYMINP    ZMAT    AOBASIS   BASIS     P2S    ABASIS      S 
                                         1400     1410     1420     1200     1210     1080     1700     1600     1650   
                                           T        V       ECP      H0       H01     AOSYM    OPER      SMH    MOLCAS    

              2       4        0.93       700     1000      520     2100   
                                         GEOM     BASIS   MCVARS     RHF  

 PROGRAMS   *        TOTAL   RHF-SCF       INT
 CPU TIMES  *         4.24      1.19      2.86
 REAL TIME  *         5.87 SEC
 DISK USED  *        32.93 MB (local),      545.59 MB (total)
 GA USED    *         0.00 MB       (max)       0.00 MB       (current)
 **********************************************************************************************************************************
 SETTING NTRIP          =        12.00000000                                  
 SETTING NSING          =        15.00000000                                  

 PROGRAM * MULTI (Direct Multiconfiguration SCF)       Authors: P.J. Knowles, H.-J. Werner (1984)
                                                                D.A. Kreplin, P.J. Knowles, H.-J. Werner (2019)

 Number of closed-shell orbitals:   9 (    6    3)
 Number of active  orbitals:        7 (    1    6)
 Number of external orbitals:     169 (   85   84)

 State symmetry 1

 Number of active electrons:   4    Spin symmetry=Triplet   Space symmetry=1
 Number of states:            12
 Number of CSFs:             120   (135 determinants, 245 intermediate states)

 State symmetry 2

 Number of active electrons:   4    Spin symmetry=Singlet   Space symmetry=1
 Number of states:            15
 Number of CSFs:             126   (261 determinants, 441 intermediate states)

 Molecular orbitals read from record     2100.2  Type=RHF/CANONICAL  
 *** IN SYMMETRY 1 ORBITAL  2 SYMMETRY CONTAMINATION OF 0.933D-01 HAS BEEN REMOVED
 *** IN SYMMETRY 1 ORBITAL  3 SYMMETRY CONTAMINATION OF 0.555D+00 HAS BEEN REMOVED
 *** IN SYMMETRY 1 ORBITAL  4 SYMMETRY CONTAMINATION OF 0.597D+00 HAS BEEN REMOVED
 *** IN SYMMETRY 1 ORBITAL  5 SYMMETRY CONTAMINATION OF 0.275D+00 HAS BEEN REMOVED
 *** IN SYMMETRY 1 ORBITAL  6 SYMMETRY CONTAMINATION OF 0.881D-03 HAS BEEN REMOVED

 EXTRA SYMMETRY OF MOS IN SYMMETRY 1:   1 3 6 5 4 2 1 1 6 4   3 5 2 1 6 4 2 5 3 1   6 4 5 3 2 5 3 4 6 2  1514131011 9 812 7 1
                                        3 5 4 6 2 712 81514   9111310 1 3 5 4 6 2   712 8 91115141310 1   71514 91112 81310 6
                                        4 3 5 2 4 6 3 5 2 1   1 1
 *** IN SYMMETRY 2 ORBITAL  2 SYMMETRY CONTAMINATION OF 0.400D+00 HAS BEEN REMOVED
 *** IN SYMMETRY 2 ORBITAL  3 SYMMETRY CONTAMINATION OF 0.400D+00 HAS BEEN REMOVED
 *** IN SYMMETRY 2 ORBITAL  5 SYMMETRY CONTAMINATION OF 0.411D+00 HAS BEEN REMOVED
 *** IN SYMMETRY 2 ORBITAL  6 SYMMETRY CONTAMINATION OF 0.411D+00 HAS BEEN REMOVED
 *** IN SYMMETRY 2 ORBITAL  7 SYMMETRY CONTAMINATION OF 0.215D+00 HAS BEEN REMOVED
 *** IN SYMMETRY 2 ORBITAL  8 SYMMETRY CONTAMINATION OF 0.215D+00 HAS BEEN REMOVED
 EXTRA SYMMETRY OF MOS IN SYMMETRY 2:   1 2 3 1 2 3 3 2 1 1   2 3 4 5 810 7 9 6 1   2 3 7 9 4 5 810 6 2   1 3 7 9 810 4 5 610
                                        8 7 9 4 5 6 2 1 3 7   9 810 6 5 4 1 2 315  21171314161112191820   9 710 8 6 4 5 3 1 2
                                       10 8 9 7 6 4 5 3 2 1   3 2 1

 Wavefunction dump at record             2140.2

 Convergence thresholds  0.10E-04 (gradient)  0.10E-05 (energy)

 Weight factors for state symmetry  1:    0.25253   0.25253   0.25253   0.01010   0.01010   0.01010   0.01010   0.01010
                                          0.01010   0.01010   0.01010   0.01010
 Weight factors for state symmetry  2:    0.01010   0.01010   0.01010   0.01010   0.01010   0.01010   0.01010   0.01010
                                          0.01010   0.01010   0.01010   0.01010   0.01010   0.01010   0.01010
 
 Number of orbital rotations:  1375  ( 24 closed/active, 762 closed/virtual, 0 active/active, 589 active/virtual )
 Total number of variables:    6910
 
 Second-order MCSCF: L-BFGS accelerated
 
 ITER  MIC  NCI  NEG     ENERGY(VAR)    ENERGY(PROJ) ENERGY CHANGE       GRAD(0)  GRAD(ORB)   GRAD(CI)      STEP      TIME
   1   14   24    3   -191.77449315    -191.80325580   -0.02876265    0.12964834 0.00051161 0.00000000  0.14E+01      1.42
   2    7   12    0   -191.80101789    -191.80342870   -0.00241082    0.10753765 0.00041725 0.00000000  0.50E+00      2.65
   3    7   12    0   -191.80344479    -191.80344546   -0.00000067    0.00071314 0.00000001 0.00000000  0.11E-01      3.67
   4    7   14    0   -191.80344546    -191.80344546   -0.00000000    0.00000034 0.00000001 0.00000000  0.18E-05      4.60

 CONVERGENCE REACHED!  Final gradient:    0.00000002 ( 0.21E-07)
                       Final energy:   -191.80344546
 
 Results for state 1.1 Triplet
 =============================
 !MCSCF STATE 1.1 Triplet Energy              -191.838097084163
 Nuclear energy                                  0.00000000
 Kinetic energy                                 62.72387960
 One electron energy                          -335.96453185
 Two electron energy                           144.12643476
 Virial ratio                                    4.05845395
 
 !MCSCF STATE 1.1 Triplet Dipole moment          0.00000000     0.00000000     0.00000000
 Dipole moment /Debye                            0.00000000     0.00000000     0.00000000
 
 Results for state 2.1 Triplet
 =============================
 !MCSCF STATE 2.1 Triplet Energy              -191.838097082924
 Nuclear energy                                  0.00000000
 Kinetic energy                                 62.72387964
 One electron energy                          -335.96453201
 Two electron energy                           144.12643492
 Virial ratio                                    4.05845394
 
 !MCSCF STATE 2.1 Triplet Dipole moment          0.00000000     0.00000000     0.00000000
 Dipole moment /Debye                            0.00000000     0.00000000     0.00000000
 
 Results for state 3.1 Triplet
 =============================
 !MCSCF STATE 3.1 Triplet Energy              -191.838097082170
 Nuclear energy                                  0.00000000
 Kinetic energy                                 62.72387968
 One electron energy                          -335.96453216
 Two electron energy                           144.12643508
 Virial ratio                                    4.05845394
 
 !MCSCF STATE 3.1 Triplet Dipole moment          0.00000000     0.00000000     0.00000000
 Dipole moment /Debye                            0.00000000     0.00000000     0.00000000
 
 Results for state 4.1 Triplet
 =============================
 !MCSCF STATE 4.1 Triplet Energy              -191.666487393938
 Nuclear energy                                  0.00000000
 Kinetic energy                                 62.28185732
 One electron energy                          -331.49097022
 Two electron energy                           139.82448282
 Virial ratio                                    4.07740481
 
 !MCSCF STATE 4.1 Triplet Dipole moment          0.00000000     0.00000000     0.00000000
 Dipole moment /Debye                            0.00000000     0.00000000     0.00000000
 
 Results for state 5.1 Triplet
 =============================
 !MCSCF STATE 5.1 Triplet Energy              -191.666487393751
 Nuclear energy                                  0.00000000
 Kinetic energy                                 62.28185731
 One electron energy                          -331.49097020
 Two electron energy                           139.82448280
 Virial ratio                                    4.07740481
 
 !MCSCF STATE 5.1 Triplet Dipole moment          0.00000000     0.00000000     0.00000000
 Dipole moment /Debye                            0.00000000     0.00000000     0.00000000
 
 Results for state 6.1 Triplet
 =============================
 !MCSCF STATE 6.1 Triplet Energy              -191.666487391644
 Nuclear energy                                  0.00000000
 Kinetic energy                                 62.28185733
 One electron energy                          -331.49097041
 Two electron energy                           139.82448301
 Virial ratio                                    4.07740481
 
 !MCSCF STATE 6.1 Triplet Dipole moment          0.00000000     0.00000000     0.00000000
 Dipole moment /Debye                            0.00000000     0.00000000     0.00000000
 
 Results for state 7.1 Triplet
 =============================
 !MCSCF STATE 7.1 Triplet Energy              -191.666487390151
 Nuclear energy                                  0.00000000
 Kinetic energy                                 62.28185732
 One electron energy                          -331.49097037
 Two electron energy                           139.82448298
 Virial ratio                                    4.07740481
 
 !MCSCF STATE 7.1 Triplet Dipole moment          0.00000000     0.00000000     0.00000000
 Dipole moment /Debye                            0.00000000     0.00000000     0.00000000
 
 Results for state 8.1 Triplet
 =============================
 !MCSCF STATE 8.1 Triplet Energy              -191.666487389760
 Nuclear energy                                  0.00000000
 Kinetic energy                                 62.28185732
 One electron energy                          -331.49097043
 Two electron energy                           139.82448305
 Virial ratio                                    4.07740481
 
 !MCSCF STATE 8.1 Triplet Dipole moment          0.00000000     0.00000000     0.00000000
 Dipole moment /Debye                            0.00000000     0.00000000     0.00000000
 
 Results for state 9.1 Triplet
 =============================
 !MCSCF STATE 9.1 Triplet Energy              -191.662218919438
 Nuclear energy                                  0.00000000
 Kinetic energy                                 62.35523012
 One electron energy                          -331.84154241
 Two electron energy                           140.17932349
 Virial ratio                                    4.07371520
 
 !MCSCF STATE 9.1 Triplet Dipole moment          0.00000000     0.00000000     0.00000000
 Dipole moment /Debye                            0.00000000     0.00000000     0.00000000
 
 Results for state 10.1 Triplet
 ==============================
 !MCSCF STATE 10.1 Triplet Energy             -191.662218915629
 Nuclear energy                                  0.00000000
 Kinetic energy                                 62.35523016
 One electron energy                          -331.84154269
 Two electron energy                           140.17932377
 Virial ratio                                    4.07371520
 
 !MCSCF STATE 10.1 Triplet Dipole moment         0.00000000     0.00000000     0.00000000
 Dipole moment /Debye                            0.00000000     0.00000000     0.00000000
 
 Results for state 11.1 Triplet
 ==============================
 !MCSCF STATE 11.1 Triplet Energy             -191.662218914453
 Nuclear energy                                  0.00000000
 Kinetic energy                                 62.35523014
 One electron energy                          -331.84154264
 Two electron energy                           140.17932372
 Virial ratio                                    4.07371520
 
 !MCSCF STATE 11.1 Triplet Dipole moment         0.00000000     0.00000000     0.00000000
 Dipole moment /Debye                            0.00000000     0.00000000     0.00000000
 
 Results for state 12.1 Triplet
 ==============================
 !MCSCF STATE 12.1 Triplet Energy             -191.659799674404
 Nuclear energy                                  0.00000000
 Kinetic energy                                 62.28171398
 One electron energy                          -331.48982097
 Two electron energy                           139.83002129
 Virial ratio                                    4.07730452
 
 !MCSCF STATE 12.1 Triplet Dipole moment         0.00000000     0.00000000     0.00000000
 Dipole moment /Debye                            0.00000000     0.00000000     0.00000000
 
 Results for state 1.1 Singlet
 =============================
 !MCSCF STATE 1.1 Singlet Energy              -191.804152468926
 Nuclear energy                                  0.00000000
 Kinetic energy                                 62.68609288
 One electron energy                          -335.75740309
 Two electron energy                           143.95325062
 Virial ratio                                    4.05975606
 
 !MCSCF STATE 1.1 Singlet Dipole moment          0.00000000     0.00000000     0.00000000
 Dipole moment /Debye                            0.00000000     0.00000000     0.00000000
 
 Results for state 2.1 Singlet
 =============================
 !MCSCF STATE 2.1 Singlet Energy              -191.804152468743
 Nuclear energy                                  0.00000000
 Kinetic energy                                 62.68609288
 One electron energy                          -335.75740312
 Two electron energy                           143.95325065
 Virial ratio                                    4.05975606
 
 !MCSCF STATE 2.1 Singlet Dipole moment          0.00000000     0.00000000     0.00000000
 Dipole moment /Debye                            0.00000000     0.00000000     0.00000000
 
 Results for state 3.1 Singlet
 =============================
 !MCSCF STATE 3.1 Singlet Energy              -191.804152467042
 Nuclear energy                                  0.00000000
 Kinetic energy                                 62.68609292
 One electron energy                          -335.75740326
 Two electron energy                           143.95325079
 Virial ratio                                    4.05975606
 
 !MCSCF STATE 3.1 Singlet Dipole moment          0.00000000     0.00000000     0.00000000
 Dipole moment /Debye                            0.00000000     0.00000000     0.00000000
 
 Results for state 4.1 Singlet
 =============================
 !MCSCF STATE 4.1 Singlet Energy              -191.804152465688
 Nuclear energy                                  0.00000000
 Kinetic energy                                 62.68609296
 One electron energy                          -335.75740343
 Two electron energy                           143.95325096
 Virial ratio                                    4.05975605
 
 !MCSCF STATE 4.1 Singlet Dipole moment          0.00000000     0.00000000     0.00000000
 Dipole moment /Debye                            0.00000000     0.00000000     0.00000000
 
 Results for state 5.1 Singlet
 =============================
 !MCSCF STATE 5.1 Singlet Energy              -191.804152465391
 Nuclear energy                                  0.00000000
 Kinetic energy                                 62.68609297
 One electron energy                          -335.75740345
 Two electron energy                           143.95325098
 Virial ratio                                    4.05975605
 
 !MCSCF STATE 5.1 Singlet Dipole moment          0.00000000     0.00000000     0.00000000
 Dipole moment /Debye                            0.00000000     0.00000000     0.00000000
 
 Results for state 6.1 Singlet
 =============================
 !MCSCF STATE 6.1 Singlet Energy              -191.769761569368
 Nuclear energy                                  0.00000000
 Kinetic energy                                 62.62899275
 One electron energy                          -335.40477874
 Two electron energy                           143.63501717
 Virial ratio                                    4.06199658
 
 !MCSCF STATE 6.1 Singlet Dipole moment          0.00000000     0.00000000     0.00000000
 Dipole moment /Debye                            0.00000000     0.00000000     0.00000000
 
 Results for state 7.1 Singlet
 =============================
 !MCSCF STATE 7.1 Singlet Energy              -191.670948076432
 Nuclear energy                                  0.00000000
 Kinetic energy                                 62.28194821
 One electron energy                          -331.49170017
 Two electron energy                           139.82075210
 Virial ratio                                    4.07747194
 
 !MCSCF STATE 7.1 Singlet Dipole moment          0.00000000     0.00000000     0.00000000
 Dipole moment /Debye                            0.00000000     0.00000000     0.00000000
 
 Results for state 8.1 Singlet
 =============================
 !MCSCF STATE 8.1 Singlet Energy              -191.670948075105
 Nuclear energy                                  0.00000000
 Kinetic energy                                 62.28194823
 One electron energy                          -331.49170038
 Two electron energy                           139.82075230
 Virial ratio                                    4.07747194
 
 !MCSCF STATE 8.1 Singlet Dipole moment          0.00000000     0.00000000     0.00000000
 Dipole moment /Debye                            0.00000000     0.00000000     0.00000000
 
 Results for state 9.1 Singlet
 =============================
 !MCSCF STATE 9.1 Singlet Energy              -191.670948073896
 Nuclear energy                                  0.00000000
 Kinetic energy                                 62.28194822
 One electron energy                          -331.49170035
 Two electron energy                           139.82075227
 Virial ratio                                    4.07747194
 
 !MCSCF STATE 9.1 Singlet Dipole moment          0.00000000     0.00000000     0.00000000
 Dipole moment /Debye                            0.00000000     0.00000000     0.00000000
 
 Results for state 10.1 Singlet
 ==============================
 !MCSCF STATE 10.1 Singlet Energy             -191.652461157360
 Nuclear energy                                  0.00000000
 Kinetic energy                                 62.39594398
 One electron energy                          -332.06015206
 Two electron energy                           140.40769090
 Virial ratio                                    4.07155320
 
 !MCSCF STATE 10.1 Singlet Dipole moment         0.00000000     0.00000000     0.00000000
 Dipole moment /Debye                            0.00000000     0.00000000     0.00000000
 
 Results for state 11.1 Singlet
 ==============================
 !MCSCF STATE 11.1 Singlet Energy             -191.652461157283
 Nuclear energy                                  0.00000000
 Kinetic energy                                 62.39594397
 One electron energy                          -332.06015205
 Two electron energy                           140.40769089
 Virial ratio                                    4.07155320
 
 !MCSCF STATE 11.1 Singlet Dipole moment         0.00000000     0.00000000     0.00000000
 Dipole moment /Debye                            0.00000000     0.00000000     0.00000000
 
 Results for state 12.1 Singlet
 ==============================
 !MCSCF STATE 12.1 Singlet Energy             -191.652461151345
 Nuclear energy                                  0.00000000
 Kinetic energy                                 62.39594402
 One electron energy                          -332.06015236
 Two electron energy                           140.40769121
 Virial ratio                                    4.07155319
 
 !MCSCF STATE 12.1 Singlet Dipole moment         0.00000000     0.00000000     0.00000000
 Dipole moment /Debye                            0.00000000     0.00000000     0.00000000
 
 Results for state 13.1 Singlet
 ==============================
 !MCSCF STATE 13.1 Singlet Energy             -191.652461149886
 Nuclear energy                                  0.00000000
 Kinetic energy                                 62.39594400
 One electron energy                          -332.06015228
 Two electron energy                           140.40769113
 Virial ratio                                    4.07155320
 
 !MCSCF STATE 13.1 Singlet Dipole moment         0.00000000     0.00000000     0.00000000
 Dipole moment /Debye                            0.00000000     0.00000000     0.00000000
 
 Results for state 14.1 Singlet
 ==============================
 !MCSCF STATE 14.1 Singlet Energy             -191.652461148311
 Nuclear energy                                  0.00000000
 Kinetic energy                                 62.39594402
 One electron energy                          -332.06015240
 Two electron energy                           140.40769125
 Virial ratio                                    4.07155319
 
 !MCSCF STATE 14.1 Singlet Dipole moment         0.00000000     0.00000000     0.00000000
 Dipole moment /Debye                            0.00000000     0.00000000     0.00000000
 
 Results for state 15.1 Singlet
 ==============================
 !MCSCF STATE 15.1 Singlet Energy             -191.639252097874
 Nuclear energy                                  0.00000000
 Kinetic energy                                 62.44500377
 One electron energy                          -332.32864264
 Two electron energy                           140.68939054
 Virial ratio                                    4.06892851
 
 !MCSCF STATE 15.1 Singlet Dipole moment         0.00000000     0.00000000     0.00000000
 Dipole moment /Debye                            0.00000000     0.00000000     0.00000000
 
 State-averaged charge density matrix saved on record 2140.2 (density set 1)
 
 No non-zero expectation values
 
 Expectation values for two-electron operators:
 
 ? Warning
 ? Transition properties are only calculated between states of the same symmetry
 ? The problem occurs in mu_properties_expec2

 !MCSCF expec      <1.1 Triplet|LXLX|1.1 Triplet>     1.000000000000
 !MCSCF expec      <2.1 Triplet|LXLX|2.1 Triplet>     1.000000000000
 !MCSCF expec      <3.1 Triplet|LXLX|3.1 Triplet>     0.000000000005
 !MCSCF expec      <4.1 Triplet|LXLX|4.1 Triplet>     3.821765773784
 !MCSCF expec      <5.1 Triplet|LXLX|5.1 Triplet>     3.999999999462
 !MCSCF expec      <6.1 Triplet|LXLX|6.1 Triplet>     1.000000000030
 !MCSCF expec      <7.1 Triplet|LXLX|7.1 Triplet>     1.000000000004
 !MCSCF expec      <8.1 Triplet|LXLX|8.1 Triplet>     0.178233864867
 !MCSCF expec      <9.1 Triplet|LXLX|9.1 Triplet>    -0.000000000003
 !MCSCF expec    <10.1 Triplet|LXLX|10.1 Triplet>     0.999999999999
 !MCSCF expec    <11.1 Triplet|LXLX|11.1 Triplet>     1.000000000004
 !MCSCF expec    <12.1 Triplet|LXLX|12.1 Triplet>    -0.000000000005
 !MCSCF expec      <1.1 Singlet|LXLX|1.1 Singlet>     0.337191000326
 !MCSCF expec      <2.1 Singlet|LXLX|2.1 Singlet>     1.000000000000
 !MCSCF expec      <3.1 Singlet|LXLX|3.1 Singlet>     1.000000000002
 !MCSCF expec      <4.1 Singlet|LXLX|4.1 Singlet>     3.999999999999
 !MCSCF expec      <5.1 Singlet|LXLX|5.1 Singlet>     3.662808540934
 !MCSCF expec      <6.1 Singlet|LXLX|6.1 Singlet>    -0.000000000001
 !MCSCF expec      <7.1 Singlet|LXLX|7.1 Singlet>    -0.000000000008
 !MCSCF expec      <8.1 Singlet|LXLX|8.1 Singlet>     1.000000000004
 !MCSCF expec      <9.1 Singlet|LXLX|9.1 Singlet>     1.000000000004
 !MCSCF expec    <10.1 Singlet|LXLX|10.1 Singlet>     3.965013417418
 !MCSCF expec    <11.1 Singlet|LXLX|11.1 Singlet>     4.000000000022
 !MCSCF expec    <12.1 Singlet|LXLX|12.1 Singlet>     1.000000000000
 !MCSCF expec    <13.1 Singlet|LXLX|13.1 Singlet>     1.000000000004
 !MCSCF expec    <14.1 Singlet|LXLX|14.1 Singlet>     0.034986545361
 !MCSCF expec    <15.1 Singlet|LXLX|15.1 Singlet>    -0.000000000005
 
 !MCSCF expec      <1.1 Triplet|LYLY|1.1 Triplet>    -0.000000000000
 !MCSCF expec      <2.1 Triplet|LYLY|2.1 Triplet>     1.000000000000
 !MCSCF expec      <3.1 Triplet|LYLY|3.1 Triplet>     1.000000000000
 !MCSCF expec      <4.1 Triplet|LYLY|4.1 Triplet>     0.374360443212
 !MCSCF expec      <5.1 Triplet|LYLY|5.1 Triplet>     0.999999997963
 !MCSCF expec      <6.1 Triplet|LYLY|6.1 Triplet>     1.000000000009
 !MCSCF expec      <7.1 Triplet|LYLY|7.1 Triplet>     4.000000000024
 !MCSCF expec      <8.1 Triplet|LYLY|8.1 Triplet>     3.625639048085
 !MCSCF expec      <9.1 Triplet|LYLY|9.1 Triplet>     1.000000000004
 !MCSCF expec    <10.1 Triplet|LYLY|10.1 Triplet>     1.000000000004
 !MCSCF expec    <11.1 Triplet|LYLY|11.1 Triplet>    -0.000000000007
 !MCSCF expec    <12.1 Triplet|LYLY|12.1 Triplet>    -0.000000000005
 !MCSCF expec      <1.1 Singlet|LYLY|1.1 Singlet>     3.793849133546
 !MCSCF expec      <2.1 Singlet|LYLY|2.1 Singlet>     4.000000000002
 !MCSCF expec      <3.1 Singlet|LYLY|3.1 Singlet>     1.000000000000
 !MCSCF expec      <4.1 Singlet|LYLY|4.1 Singlet>     1.000000000000
 !MCSCF expec      <5.1 Singlet|LYLY|5.1 Singlet>     0.206150501405
 !MCSCF expec      <6.1 Singlet|LYLY|6.1 Singlet>    -0.000000000001
 !MCSCF expec      <7.1 Singlet|LYLY|7.1 Singlet>     1.000000000004
 !MCSCF expec      <8.1 Singlet|LYLY|8.1 Singlet>     1.000000000004
 !MCSCF expec      <9.1 Singlet|LYLY|9.1 Singlet>    -0.000000000008
 !MCSCF expec    <10.1 Singlet|LYLY|10.1 Singlet>     0.694938331509
 !MCSCF expec    <11.1 Singlet|LYLY|11.1 Singlet>     1.000000000005
 !MCSCF expec    <12.1 Singlet|LYLY|12.1 Singlet>     1.000000000012
 !MCSCF expec    <13.1 Singlet|LYLY|13.1 Singlet>     4.000000000022
 !MCSCF expec    <14.1 Singlet|LYLY|14.1 Singlet>     3.305061516948
 !MCSCF expec    <15.1 Singlet|LYLY|15.1 Singlet>    -0.000000000004
 
 !MCSCF expec      <1.1 Triplet|LZLZ|1.1 Triplet>     1.000000000000
 !MCSCF expec      <2.1 Triplet|LZLZ|2.1 Triplet>    -0.000000000000
 !MCSCF expec      <3.1 Triplet|LZLZ|3.1 Triplet>     0.999999999995
 !MCSCF expec      <4.1 Triplet|LZLZ|4.1 Triplet>     1.803873783037
 !MCSCF expec      <5.1 Triplet|LZLZ|5.1 Triplet>     1.000000002608
 !MCSCF expec      <6.1 Triplet|LZLZ|6.1 Triplet>     3.999999999993
 !MCSCF expec      <7.1 Triplet|LZLZ|7.1 Triplet>     1.000000000004
 !MCSCF expec      <8.1 Triplet|LZLZ|8.1 Triplet>     2.196127087080
 !MCSCF expec      <9.1 Triplet|LZLZ|9.1 Triplet>     1.000000000000
 !MCSCF expec    <10.1 Triplet|LZLZ|10.1 Triplet>    -0.000000000002
 !MCSCF expec    <11.1 Triplet|LZLZ|11.1 Triplet>     1.000000000004
 !MCSCF expec    <12.1 Triplet|LZLZ|12.1 Triplet>    -0.000000000004
 !MCSCF expec      <1.1 Singlet|LZLZ|1.1 Singlet>     1.868959866131
 !MCSCF expec      <2.1 Singlet|LZLZ|2.1 Singlet>     1.000000000000
 !MCSCF expec      <3.1 Singlet|LZLZ|3.1 Singlet>     4.000000000000
 !MCSCF expec      <4.1 Singlet|LZLZ|4.1 Singlet>     1.000000000003
 !MCSCF expec      <5.1 Singlet|LZLZ|5.1 Singlet>     2.131040957664
 !MCSCF expec      <6.1 Singlet|LZLZ|6.1 Singlet>    -0.000000000001
 !MCSCF expec      <7.1 Singlet|LZLZ|7.1 Singlet>     1.000000000004
 !MCSCF expec      <8.1 Singlet|LZLZ|8.1 Singlet>    -0.000000000008
 !MCSCF expec      <9.1 Singlet|LZLZ|9.1 Singlet>     1.000000000004
 !MCSCF expec    <10.1 Singlet|LZLZ|10.1 Singlet>     1.340048251102
 !MCSCF expec    <11.1 Singlet|LZLZ|11.1 Singlet>     1.000000000002
 !MCSCF expec    <12.1 Singlet|LZLZ|12.1 Singlet>     4.000000000017
 !MCSCF expec    <13.1 Singlet|LZLZ|13.1 Singlet>     1.000000000004
 !MCSCF expec    <14.1 Singlet|LZLZ|14.1 Singlet>     2.659951937718
 !MCSCF expec    <15.1 Singlet|LZLZ|15.1 Singlet>    -0.000000000003
 
 !MCSCF expec      <1.1 Triplet|L**2|1.1 Triplet>     2.000000000000
 !MCSCF expec      <2.1 Triplet|L**2|2.1 Triplet>     2.000000000000
 !MCSCF expec      <3.1 Triplet|L**2|3.1 Triplet>     2.000000000000
 !MCSCF expec      <4.1 Triplet|L**2|4.1 Triplet>     6.000000000033
 !MCSCF expec      <5.1 Triplet|L**2|5.1 Triplet>     6.000000000033
 !MCSCF expec      <6.1 Triplet|L**2|6.1 Triplet>     6.000000000033
 !MCSCF expec      <7.1 Triplet|L**2|7.1 Triplet>     6.000000000032
 !MCSCF expec      <8.1 Triplet|L**2|8.1 Triplet>     6.000000000032
 !MCSCF expec      <9.1 Triplet|L**2|9.1 Triplet>     2.000000000000
 !MCSCF expec    <10.1 Triplet|L**2|10.1 Triplet>     2.000000000000
 !MCSCF expec    <11.1 Triplet|L**2|11.1 Triplet>     2.000000000001
 !MCSCF expec    <12.1 Triplet|L**2|12.1 Triplet>    -0.000000000015
 !MCSCF expec      <1.1 Singlet|L**2|1.1 Singlet>     6.000000000002
 !MCSCF expec      <2.1 Singlet|L**2|2.1 Singlet>     6.000000000002
 !MCSCF expec      <3.1 Singlet|L**2|3.1 Singlet>     6.000000000002
 !MCSCF expec      <4.1 Singlet|L**2|4.1 Singlet>     6.000000000002
 !MCSCF expec      <5.1 Singlet|L**2|5.1 Singlet>     6.000000000002
 !MCSCF expec      <6.1 Singlet|L**2|6.1 Singlet>    -0.000000000002
 !MCSCF expec      <7.1 Singlet|L**2|7.1 Singlet>     2.000000000000
 !MCSCF expec      <8.1 Singlet|L**2|8.1 Singlet>     2.000000000000
 !MCSCF expec      <9.1 Singlet|L**2|9.1 Singlet>     2.000000000000
 !MCSCF expec    <10.1 Singlet|L**2|10.1 Singlet>     6.000000000029
 !MCSCF expec    <11.1 Singlet|L**2|11.1 Singlet>     6.000000000029
 !MCSCF expec    <12.1 Singlet|L**2|12.1 Singlet>     6.000000000029
 !MCSCF expec    <13.1 Singlet|L**2|13.1 Singlet>     6.000000000029
 !MCSCF expec    <14.1 Singlet|L**2|14.1 Singlet>     6.000000000027
 !MCSCF expec    <15.1 Singlet|L**2|15.1 Singlet>    -0.000000000012
 
 EXTRA SYMMETRY OF MOS IN SYMMETRY 1:   1 4 2 3 5 6 1 1 6 2   3 5 4 1 4 2 6 3 5 1   2 6 4 3 5 6 2 5 3 4  11 7 812 914151310 1
                                        4 2 6 5 3 9 7 81215  14111310 1 4 2 5 3 6   9 7 8121415131011 1   9 7 8121415131011 4
                                        2 3 5 6 4 3 5 2 6 1   1 1
 EXTRA SYMMETRY OF MOS IN SYMMETRY 2:   1 3 2 2 1 3 1 2 3 1   3 2 5 6 810 9 7 4 1   3 2 5 6 810 4 7 9 1   2 3 4 6 5 810 9 7 4
                                        6 810 9 7 5 1 3 2 4   610 8 9 7 5 1 3 211  19211314161517201812   4 6 810 7 9 5 1 3 2
                                        4 6 810 9 7 5 1 3 2   1 3 2
 
  NATURAL ORBITALS (STATE AVERAGED)
  =================================

  Orbital  Occupation    Energy    Cen Mu Typ  Coefficients
    1.1     2.00000    -6.20246     1  1  s    0.99868
    2.1     2.00000    -1.10299     1  1  d1+  1.00039
    3.1     2.00000    -1.10299     1  1  d0   1.00039
    4.1     2.00000    -1.10299     1  1  d2-  1.00039
    5.1     2.00000    -1.10299     1  1  d2+ -1.00039
    6.1     2.00000    -1.10299     1  1  d1-  1.00039
    7.1     1.97936    -0.58454     1  1  s   -0.36570    1  4  s    0.57003    1  5  s    0.59431    1  9  s   -0.31117
    1.2     2.00000    -3.88508     1  1  px   0.99996
    2.2     2.00000    -3.88508     1  1  pz   0.99996
    3.2     2.00000    -3.88508     1  1  py   0.99996
    4.2     0.61187    -0.07487     1  1  py  -0.29558    1  4  py   0.46156    1  5  py   0.46773
    5.2     0.61187    -0.07487     1  1  px  -0.29558    1  4  px   0.46156    1  5  px   0.46773
    6.2     0.61187    -0.07487     1  1  pz  -0.29558    1  4  pz   0.46156    1  5  pz   0.46773
    7.2     0.06167     0.04474     1  5  px  -0.26068    1 10  px   0.85608
    8.2     0.06167     0.04474     1  5  py  -0.26068    1 10  py   0.85608
    9.2     0.06167     0.04474     1  5  pz  -0.26068    1 10  pz   0.85608
 
 Natural orbital dump (state averaged) at molpro section 2140.2 (Orbital set 2)
 
 Transform the CI vectors
 
 CI Coefficients of symmetry 1 (Triplet)
 =======================================

 State:              1               2               3               4               5               6               7
 2 a0a000      -0.00000000     -0.00000005      0.99512262      0.00000000     -0.00000000     -0.00000000     -0.00000000
 2 aa0000       0.00000000      0.99512262      0.00000005     -0.00000000     -0.00000000      0.00000000     -0.00000000
 2 0aa000       0.99512262     -0.00000000      0.00000000      0.00000000      0.00000000     -0.00000000     -0.00000001
 2 0a0a00      -0.00000000      0.00000000      0.00000000     -0.17111158     -0.00000986      0.00000051      0.00000000
 2 a000a0       0.00000000     -0.00000000     -0.00000000      0.77175012      0.00004666      0.00000111      0.00000001
 2 0a000a       0.01313593      0.00000000     -0.00000000     -0.00000001     -0.00000000      0.00000000      0.70201291
 2 0a00a0       0.00000000     -0.01313593     -0.00000000     -0.00000124     -0.00000165      0.70201281     -0.00000000
 2 a0000a      -0.00000000     -0.00000000      0.01313594     -0.00004259      0.70201272      0.00000165      0.00000000
 2 00a0a0      -0.00000000      0.00000000     -0.01313593     -0.00004259      0.70201252      0.00000165      0.00000000
 2 a00a00       0.00000000      0.01313594      0.00000000     -0.00000124     -0.00000165      0.70201243     -0.00000000
 2 00aa00      -0.01313593      0.00000000      0.00000000     -0.00000001     -0.00000000      0.00000000      0.70201233
 2 00a00a       0.00000000      0.00000000      0.00000000     -0.60063801     -0.00003680     -0.00000162     -0.00000001
 2 000aa0       0.00000000      0.01431456      0.00000000      0.00000000      0.00000000     -0.00000005      0.00000000
 2 000a0a      -0.01431456      0.00000000      0.00000000      0.00000000      0.00000000      0.00000000     -0.00000006
 2 0000aa       0.00000000      0.00000000     -0.01431456      0.00000000     -0.00000001     -0.00000000      0.00000000
 0 2aa000      -0.08781895      0.00000000     -0.00000000      0.00000000     -0.00000000     -0.00000000      0.00000000
 0 aa2000      -0.00000000     -0.08781894     -0.00000000      0.00000000      0.00000000     -0.00000000      0.00000000
 0 a2a000      -0.00000000      0.00000000     -0.08781894     -0.00000000      0.00000000      0.00000000     -0.00000000
 0 2a0a00       0.00000000     -0.00000000     -0.00000000      0.01354180      0.00000078     -0.00000004     -0.00000000
 0 0a2a00       0.00000000     -0.00000000     -0.00000000      0.01429352      0.00000083     -0.00000004     -0.00000000
 0 a200a0      -0.00000000      0.00000000      0.00000000     -0.06288928     -0.00000380     -0.00000009     -0.00000000
 0 a020a0      -0.00000000      0.00000000      0.00000000     -0.06265402     -0.00000379     -0.00000009     -0.00000000
 0 20aa00      -0.00042977      0.00000000      0.00000000      0.00000000      0.00000000     -0.00000000     -0.05729167
 0 a02a00      -0.00000000      0.00042977      0.00000000      0.00000010      0.00000013     -0.05729167      0.00000000
 0 02a0a0       0.00000000      0.00000000     -0.00042977      0.00000348     -0.05729168     -0.00000013     -0.00000000
 0 a2000a       0.00000000     -0.00000000      0.00042977      0.00000348     -0.05729169     -0.00000013     -0.00000000
 0 0a20a0      -0.00000000     -0.00042977     -0.00000000      0.00000010      0.00000013     -0.05729170      0.00000000
 0 2a000a       0.00042977     -0.00000000      0.00000000      0.00000000      0.00000000     -0.00000000     -0.05729172
 0 0a200a      -0.01838762     -0.00000000      0.00000000      0.00000000      0.00000000     -0.00000000     -0.05690719
 0 2a00a0       0.00000000      0.01838762      0.00000000      0.00000010      0.00000013     -0.05690719      0.00000000
 0 a0200a       0.00000000      0.00000000     -0.01838762      0.00000345     -0.05690718     -0.00000013     -0.00000000
 0 20a0a0       0.00000000     -0.00000000      0.01838762      0.00000345     -0.05690716     -0.00000013     -0.00000000
 0 a20a00      -0.00000000     -0.01838763     -0.00000000      0.00000010      0.00000013     -0.05690715      0.00000000
[...]
 13  1     1    1  |1 0>          0.00%    0.02%    0.01%    0.00%    0.00%    0.00%    0.00%    0.00%
 14  1     2    1  |1 0>          0.02%    0.00%    0.00%    0.00%    0.00%    0.10%    0.00%    0.00%
 15  1     3    1  |1 0>          0.00%    0.00%    0.00%    0.10%    0.00%    0.00%    0.02%    0.00%
 16  1     4    1  |1 0>          0.00%    0.00%    0.00%    0.00%    0.52%    0.00%    0.00%   26.14%
 17  1     5    1  |1 0>          0.00%    0.00%    0.00%    0.00%    6.30%    0.00%    0.00%    2.15%
 18  1     6    1  |1 0>          0.00%    0.00%    0.00%    5.12%    0.00%    0.00%    7.07%    0.00%
 19  1     7    1  |1 0>          9.23%    0.00%    0.00%    0.00%    0.00%    5.12%    0.00%    0.00%
 20  1     8    1  |1 0>          0.00%    7.71%   29.22%    0.00%    0.00%    0.00%    0.00%    0.00%
 21  1     9    1  |1 0>          0.00%    9.13%    2.41%    0.00%    0.00%    0.00%    0.00%    0.00%
 22  1    10    1  |1 0>          0.00%    0.00%    0.00%   18.51%    0.00%    0.00%   18.32%    0.00%
 23  1    11    1  |1 0>          8.65%    0.00%    0.00%    0.00%    0.00%   18.51%    0.00%    0.00%
 24  1    12    1  |1 0>          0.00%    0.00%    0.00%    0.00%    0.93%    0.00%    0.00%    0.00%
 25  1     1    1  |1 1>-         0.00%    0.00%    0.00%    0.10%    0.00%    0.00%    0.02%    0.00%
 26  1     2    1  |1 1>-         0.00%    0.00%    0.00%    0.00%    0.10%    0.00%    0.00%    0.02%
 27  1     3    1  |1 1>-         0.00%    0.00%    0.03%    0.00%    0.00%    0.00%    0.00%    0.00%
 28  1     4    1  |1 1>-        19.13%    0.00%    0.00%    0.00%    0.00%    3.29%    0.00%    0.00%
 29  1     5    1  |1 1>-        17.81%    0.00%    0.00%    0.00%    0.00%    3.53%    0.00%    0.00%
 30  1     6    1  |1 1>-         0.00%   36.85%    0.09%    0.00%    0.00%    0.00%    0.00%    0.00%
 31  1     7    1  |1 1>-         0.00%    0.00%    0.00%    0.00%    5.12%    0.00%    0.00%    7.07%
 32  1     8    1  |1 1>-         0.00%    0.00%    0.00%    5.12%    0.00%    0.00%    7.07%    0.00%
 33  1     9    1  |1 1>-         0.00%    0.00%    0.00%   18.51%    0.00%    0.00%   18.32%    0.00%
 34  1    10    1  |1 1>-         0.00%    0.03%   11.51%    0.00%    0.00%    0.00%    0.00%    0.00%
 35  1    11    1  |1 1>-         0.00%    0.00%    0.00%    0.00%   18.51%    0.00%    0.00%   18.32%
 36  1    12    1  |1 1>-         0.00%    0.00%    0.00%    0.00%    0.00%    0.93%    0.00%    0.00%
 37  1     1    1  |0 0>          0.00%    0.00%    0.00%    0.00%    0.00%    0.00%    0.30%    0.00%
 38  1     2    1  |0 0>          0.00%    0.00%    0.00%    0.00%    0.00%    0.00%    0.00%    0.30%
 39  1     3    1  |0 0>          0.00%    0.14%    0.06%    0.00%    0.00%    0.00%    0.00%    0.00%
 40  1     4    1  |0 0>          0.20%    0.00%    0.00%    0.00%    0.00%    0.00%    0.00%    0.00%
 41  1     5    1  |0 0>          0.00%    0.06%    0.14%    0.00%    0.00%    0.00%    0.00%    0.00%
 42  1     6    1  |0 0>          0.00%    0.00%    0.00%    0.00%    0.00%    0.00%    0.00%    0.00%
 43  1     7    1  |0 0>          0.00%    0.00%    0.00%   44.80%    0.00%    0.00%    0.00%    0.00%
 44  1     8    1  |0 0>          0.00%    0.00%    0.00%    0.00%   44.80%    0.00%    0.00%    0.00%
 45  1     9    1  |0 0>          0.00%    0.00%    0.00%    0.00%    0.00%   44.80%    0.00%    0.00%
 46  1    10    1  |0 0>          0.00%    0.00%    0.00%    0.00%    0.00%    0.00%   20.59%    0.00%
 47  1    11    1  |0 0>          0.00%    0.00%    0.00%    0.00%    0.00%    0.00%    0.00%   20.59%
 48  1    12    1  |0 0>          0.01%   27.03%    0.00%    0.00%    0.00%    0.00%    0.00%    0.00%
 49  1    13    1  |0 0>         27.04%    0.01%    0.00%    0.00%    0.00%    0.00%    0.00%    0.00%
 50  1    14    1  |0 0>          0.00%    0.00%   27.04%    0.00%    0.00%    0.00%    0.00%    0.00%
 51  1    15    1  |0 0>          0.00%    0.00%    0.00%    0.00%    0.00%    0.00%    0.00%    0.00%

   Total
 Nr Sym  State Sym Spin / Nr.     33       34       35       36       37       38       39       40

  1  1     1    1  |1 1>+         0.02%    0.00%    0.00%    0.00%    0.00%    0.00%    0.00%    0.00%
  2  1     2    1  |1 1>+         0.00%    0.02%    0.01%    0.00%    0.00%    0.00%    0.00%    0.00%
  3  1     3    1  |1 1>+         0.00%    0.00%    0.00%    0.00%    0.00%    0.00%    0.00%    0.00%
  4  1     4    1  |1 1>+         0.00%    0.00%    0.00%   56.48%    0.00%    0.00%    0.00%    0.00%
  5  1     5    1  |1 1>+         0.00%    0.00%    0.00%    3.52%    0.00%    0.00%    0.00%    0.00%
  6  1     6    1  |1 1>+         0.00%    0.00%    0.00%    0.00%    0.00%   20.58%   32.76%    0.00%
  7  1     7    1  |1 1>+         0.00%   10.54%   17.75%    0.00%    0.00%    0.00%    0.00%    0.00%
  8  1     8    1  |1 1>+         7.07%    0.00%    0.00%    0.00%   20.49%    0.00%    0.00%   32.84%
  9  1     9    1  |1 1>+        18.32%    0.00%    0.00%    0.00%    0.00%    0.00%    0.00%    0.00%
 10  1    10    1  |1 1>+         0.00%    0.00%    0.00%    0.00%    0.00%    0.00%    0.00%    0.00%
 11  1    11    1  |1 1>+         0.00%   15.33%    9.10%    0.00%    0.00%    0.00%    0.00%    0.00%
 12  1    12    1  |1 1>+         0.00%    0.00%    0.00%    0.00%    0.00%    0.00%    0.00%    0.00%
 13  1     1    1  |1 0>          0.00%    0.03%    0.00%    0.00%    0.00%    0.00%    0.00%    0.00%
 14  1     2    1  |1 0>          0.02%    0.00%    0.00%    0.00%    0.00%    0.00%    0.00%    0.00%
 15  1     3    1  |1 0>          0.00%    0.00%    0.00%    0.00%    0.00%    0.00%    0.00%    0.00%
 16  1     4    1  |1 0>          0.00%    0.00%    0.00%    0.00%    0.00%    4.84%   30.52%    0.00%
 17  1     5    1  |1 0>          0.00%    0.00%    0.00%    0.00%    0.00%   55.16%    2.81%    0.00%
 18  1     6    1  |1 0>          0.00%    0.00%    0.00%   20.04%    0.00%    0.00%    0.00%    0.00%
 19  1     7    1  |1 0>          7.07%    0.00%    0.00%    0.00%   19.51%    0.00%    0.00%   33.82%
 20  1     8    1  |1 0>          0.00%    4.10%   24.18%    0.00%    0.00%    0.00%    0.00%    0.00%
 21  1     9    1  |1 0>          0.00%   20.88%    3.54%    0.00%    0.00%    0.00%    0.00%    0.00%
 22  1    10    1  |1 0>          0.00%    0.00%    0.00%    0.00%    0.00%    0.00%    0.00%    0.00%
 23  1    11    1  |1 0>         18.32%    0.00%    0.00%    0.00%    0.00%    0.00%    0.00%    0.00%
 24  1    12    1  |1 0>          0.00%    0.00%    0.00%    0.00%    0.00%    0.00%    0.00%    0.00%
 25  1     1    1  |1 1>-         0.00%    0.00%    0.00%    0.00%    0.00%    0.00%    0.00%    0.00%
 26  1     2    1  |1 1>-         0.00%    0.00%    0.00%    0.00%    0.00%    0.00%    0.00%    0.00%
 27  1     3    1  |1 1>-         0.00%    0.00%    0.03%    0.00%    0.00%    0.00%    0.00%    0.00%
 28  1     4    1  |1 1>-        14.65%    0.00%    0.00%    0.00%   29.35%    0.00%    0.00%   16.83%
 29  1     5    1  |1 1>-        13.64%    0.00%    0.00%    0.00%   30.64%    0.00%    0.00%   16.50%
 30  1     6    1  |1 1>-         0.00%   27.79%    0.50%    0.00%    0.00%    0.00%    0.00%    0.00%
 31  1     7    1  |1 1>-         0.00%    0.00%    0.00%    0.00%    0.00%   19.43%   33.90%    0.00%
 32  1     8    1  |1 1>-         0.00%    0.00%    0.00%   19.95%    0.00%    0.00%    0.01%    0.00%
 33  1     9    1  |1 1>-         0.00%    0.00%    0.00%    0.00%    0.00%    0.00%    0.00%    0.00%
 34  1    10    1  |1 1>-         0.00%    0.43%   24.00%    0.00%    0.00%    0.00%    0.00%    0.00%
 35  1    11    1  |1 1>-         0.00%    0.00%    0.00%    0.00%    0.00%    0.00%    0.00%    0.00%
 36  1    12    1  |1 1>-         0.00%    0.00%    0.00%    0.00%    0.00%    0.00%    0.00%    0.00%
 37  1     1    1  |0 0>          0.00%    0.00%    0.00%    0.00%    0.00%    0.00%    0.00%    0.00%
 38  1     2    1  |0 0>          0.00%    0.00%    0.00%    0.00%    0.00%    0.00%    0.00%    0.00%
 39  1     3    1  |0 0>          0.00%    0.23%    0.06%    0.00%    0.00%    0.00%    0.00%    0.00%
 40  1     4    1  |0 0>          0.30%    0.00%    0.00%    0.00%    0.00%    0.00%    0.00%    0.00%
 41  1     5    1  |0 0>          0.00%    0.06%    0.23%    0.00%    0.00%    0.00%    0.00%    0.00%
 42  1     6    1  |0 0>          0.00%    0.00%    0.00%    0.00%    0.00%    0.00%    0.00%    0.00%
 43  1     7    1  |0 0>          0.00%    0.00%    0.00%    0.00%    0.00%    0.00%    0.00%    0.00%
 44  1     8    1  |0 0>          0.00%    0.00%    0.00%    0.00%    0.00%    0.00%    0.00%    0.00%
 45  1     9    1  |0 0>          0.00%    0.00%    0.00%    0.00%    0.00%    0.00%    0.00%    0.00%
 46  1    10    1  |0 0>          0.00%    0.00%    0.00%    0.00%    0.00%    0.00%    0.00%    0.00%
 47  1    11    1  |0 0>          0.00%    0.00%    0.00%    0.00%    0.00%    0.00%    0.00%    0.00%
 48  1    12    1  |0 0>          0.01%   20.47%    0.11%    0.00%    0.00%    0.00%    0.00%    0.00%
 49  1    13    1  |0 0>         20.58%    0.01%    0.00%    0.00%    0.00%    0.00%    0.00%    0.00%
 50  1    14    1  |0 0>          0.00%    0.11%   20.48%    0.00%    0.00%    0.00%    0.00%    0.00%
 51  1    15    1  |0 0>          0.00%    0.00%    0.00%    0.00%    0.00%    0.00%    0.00%    0.00%

   Total
 Nr Sym  State Sym Spin / Nr.     41       42       43       44       45       46       47       48

  1  1     1    1  |1 1>+         0.00%    0.00%    0.00%    0.00%    0.05%    0.00%    0.00%    0.09%
  2  1     2    1  |1 1>+         0.00%    0.00%    0.00%    0.00%    0.00%    0.00%    0.00%    0.00%
  3  1     3    1  |1 1>+         0.00%    0.00%    0.00%    0.05%    0.00%    0.00%    0.09%    0.00%
  4  1     4    1  |1 1>+         1.96%    0.00%    0.17%    0.00%    0.00%    0.06%    0.00%    0.00%
  5  1     5    1  |1 1>+        31.36%    0.00%    0.01%    0.00%    0.00%    1.00%    0.00%    0.00%
  6  1     6    1  |1 1>+         0.00%    0.00%    0.00%    0.13%    0.00%    0.00%    0.26%    0.00%
  7  1     7    1  |1 1>+         0.00%   33.33%    0.00%    0.00%    0.00%    0.00%    0.00%    0.00%
  8  1     8    1  |1 1>+         0.00%    0.00%    0.00%    0.00%    0.13%    0.00%    0.00%    0.26%
  9  1     9    1  |1 1>+         0.00%    0.00%    0.00%    0.00%    6.32%    0.00%    0.00%   22.97%
 10  1    10    1  |1 1>+         0.00%    0.00%    0.00%    6.32%    0.00%    0.00%   22.97%    0.00%
 11  1    11    1  |1 1>+         0.00%    0.00%    0.00%    0.00%    0.00%    0.00%    0.00%    0.00%
 12  1    12    1  |1 1>+         0.00%    0.00%   70.44%    0.00%    0.00%    0.00%    0.00%    0.00%
 13  1     1    1  |1 0>          0.00%    0.00%    0.00%    0.00%    0.00%    0.00%    0.00%    0.00%
 14  1     2    1  |1 0>          0.00%    0.00%    0.00%    0.00%    0.05%    0.00%    0.00%    0.09%
 15  1     3    1  |1 0>          0.00%    0.00%    0.05%    0.00%    0.00%    0.09%    0.00%    0.00%
 16  1     4    1  |1 0>          0.00%    0.00%    0.00%    0.01%    0.00%    0.00%    0.98%    0.00%
 17  1     5    1  |1 0>          0.00%    0.00%    0.00%    0.17%    0.00%    0.00%    0.08%    0.00%
 18  1     6    1  |1 0>         33.29%    0.00%    0.13%    0.00%    0.00%    0.26%    0.00%    0.00%
 19  1     7    1  |1 0>          0.00%    0.00%    0.00%    0.00%    0.13%    0.00%    0.00%    0.26%
 20  1     8    1  |1 0>          0.00%   33.33%    0.00%    0.00%    0.00%    0.00%    0.00%    0.00%
 21  1     9    1  |1 0>          0.00%    0.00%    0.00%    0.00%    0.00%    0.00%    0.00%    0.00%
 22  1    10    1  |1 0>          0.00%    0.00%    6.32%    0.00%    0.00%   22.97%    0.00%    0.00%
 23  1    11    1  |1 0>          0.00%    0.00%    0.00%    0.00%    6.32%    0.00%    0.00%   22.97%
 24  1    12    1  |1 0>          0.00%    0.00%    0.00%   70.44%    0.00%    0.00%    0.00%    0.00%
 25  1     1    1  |1 1>-         0.00%    0.00%    0.05%    0.00%    0.00%    0.09%    0.00%    0.00%
 26  1     2    1  |1 1>-         0.00%    0.00%    0.00%    0.05%    0.00%    0.00%    0.09%    0.00%
 27  1     3    1  |1 1>-         0.00%    0.00%    0.00%    0.00%    0.00%    0.00%    0.00%    0.00%
 28  1     4    1  |1 1>-         0.00%    0.00%    0.00%    0.00%    0.09%    0.00%    0.00%    0.55%
 29  1     5    1  |1 1>-         0.00%    0.00%    0.00%    0.00%    0.09%    0.00%    0.00%    0.51%
 30  1     6    1  |1 1>-         0.00%   33.33%    0.00%    0.00%    0.00%    0.00%    0.00%    0.00%
 31  1     7    1  |1 1>-         0.01%    0.00%    0.00%    0.13%    0.00%    0.00%    0.26%    0.00%
 32  1     8    1  |1 1>-        33.37%    0.00%    0.13%    0.00%    0.00%    0.26%    0.00%    0.00%
 33  1     9    1  |1 1>-         0.00%    0.00%    6.32%    0.00%    0.00%   22.97%    0.00%    0.00%
 34  1    10    1  |1 1>-         0.00%    0.00%    0.00%    0.00%    0.00%    0.00%    0.00%    0.00%
 35  1    11    1  |1 1>-         0.00%    0.00%    0.00%    6.32%    0.00%    0.00%   22.97%    0.00%
 36  1    12    1  |1 1>-         0.00%    0.00%    0.00%    0.00%   70.44%    0.00%    0.00%    0.00%
 37  1     1    1  |0 0>          0.00%    0.00%    0.00%    0.00%    0.00%    0.02%    0.00%    0.00%
 38  1     2    1  |0 0>          0.00%    0.00%    0.00%    0.00%    0.00%    0.00%    0.02%    0.00%
 39  1     3    1  |0 0>          0.00%    0.00%    0.00%    0.00%    0.00%    0.00%    0.00%    0.00%
 40  1     4    1  |0 0>          0.00%    0.00%    0.00%    0.00%    0.00%    0.00%    0.00%    0.02%
 41  1     5    1  |0 0>          0.00%    0.00%    0.00%    0.00%    0.00%    0.00%    0.00%    0.00%
 42  1     6    1  |0 0>          0.00%    0.00%    0.00%    0.00%    0.00%    0.00%    0.00%    0.00%
 43  1     7    1  |0 0>          0.00%    0.00%   16.38%    0.00%    0.00%    0.00%    0.00%    0.00%
 44  1     8    1  |0 0>          0.00%    0.00%    0.00%   16.38%    0.00%    0.00%    0.00%    0.00%
 45  1     9    1  |0 0>          0.00%    0.00%    0.00%    0.00%   16.38%    0.00%    0.00%    0.00%
 46  1    10    1  |0 0>          0.00%    0.00%    0.00%    0.00%    0.00%   52.27%    0.00%    0.00%
 47  1    11    1  |0 0>          0.00%    0.00%    0.00%    0.00%    0.00%    0.00%   52.27%    0.00%
 48  1    12    1  |0 0>          0.00%    0.00%    0.00%    0.00%    0.00%    0.00%    0.00%    0.02%
 49  1    13    1  |0 0>          0.00%    0.00%    0.00%    0.00%    0.00%    0.00%    0.00%   52.26%
 50  1    14    1  |0 0>          0.00%    0.00%    0.00%    0.00%    0.00%    0.00%    0.00%    0.00%
 51  1    15    1  |0 0>          0.00%    0.00%    0.00%    0.00%    0.00%    0.00%    0.00%    0.00%

   Total
 Nr Sym  State Sym Spin / Nr.     49       50       51

  1  1     1    1  |1 1>+         0.00%    0.00%    0.00%
  2  1     2    1  |1 1>+         0.08%    0.04%    0.06%
  3  1     3    1  |1 1>+         0.00%    0.00%    0.00%
  4  1     4    1  |1 1>+         0.00%    0.00%    0.00%
  5  1     5    1  |1 1>+         0.00%    0.00%    0.00%
  6  1     6    1  |1 1>+         0.00%    0.00%    0.00%
  7  1     7    1  |1 1>+         0.33%    0.73%    0.00%
  8  1     8    1  |1 1>+         0.00%    0.00%    0.00%
  9  1     9    1  |1 1>+         0.00%    0.00%    0.00%
 10  1    10    1  |1 1>+         0.00%    0.00%    0.00%
 11  1    11    1  |1 1>+        21.06%    9.57%    7.68%
 12  1    12    1  |1 1>+         0.00%    0.00%    0.00%
 13  1     1    1  |1 0>          0.09%    0.02%    0.06%
 14  1     2    1  |1 0>          0.00%    0.00%    0.00%
 15  1     3    1  |1 0>          0.00%    0.00%    0.00%
 16  1     4    1  |1 0>          0.00%    0.00%    0.00%
 17  1     5    1  |1 0>          0.00%    0.00%    0.00%
 18  1     6    1  |1 0>          0.00%    0.00%    0.00%
 19  1     7    1  |1 0>          0.00%    0.00%    0.00%
 20  1     8    1  |1 0>          0.20%    0.86%    0.00%
 21  1     9    1  |1 0>         24.74%    5.89%    7.68%
 22  1    10    1  |1 0>          0.00%    0.00%    0.00%
 23  1    11    1  |1 0>          0.00%    0.00%    0.00%
 24  1    12    1  |1 0>          0.00%    0.00%    0.00%
 25  1     1    1  |1 1>-         0.00%    0.00%    0.00%
 26  1     2    1  |1 1>-         0.00%    0.00%    0.00%
 27  1     3    1  |1 1>-         0.00%    0.11%    0.06%
 28  1     4    1  |1 1>-         0.00%    0.00%    0.00%
 29  1     5    1  |1 1>-         0.00%    0.00%    0.00%
 30  1     6    1  |1 1>-         1.05%    0.01%    0.00%
 31  1     7    1  |1 1>-         0.00%    0.00%    0.00%
 32  1     8    1  |1 1>-         0.00%    0.00%    0.00%
 33  1     9    1  |1 1>-         0.00%    0.00%    0.00%
 34  1    10    1  |1 1>-         0.15%   30.48%    7.68%
 35  1    11    1  |1 1>-         0.00%    0.00%    0.00%
 36  1    12    1  |1 1>-         0.00%    0.00%    0.00%
 37  1     1    1  |0 0>          0.00%    0.00%    0.00%
 38  1     2    1  |0 0>          0.00%    0.00%    0.00%
 39  1     3    1  |0 0>          0.01%    0.01%    0.00%
 40  1     4    1  |0 0>          0.00%    0.00%    0.00%
 41  1     5    1  |0 0>          0.01%    0.01%    0.00%
 42  1     6    1  |0 0>          0.00%    0.00%    0.12%
 43  1     7    1  |0 0>          0.00%    0.00%    0.00%
 44  1     8    1  |0 0>          0.00%    0.00%    0.00%
 45  1     9    1  |0 0>          0.00%    0.00%    0.00%
 46  1    10    1  |0 0>          0.00%    0.00%    0.00%
 47  1    11    1  |0 0>          0.00%    0.00%    0.00%
 48  1    12    1  |0 0>         52.25%    0.00%    0.00%
 49  1    13    1  |0 0>          0.02%    0.00%    0.00%
 50  1    14    1  |0 0>          0.00%   52.27%    0.00%
 51  1    15    1  |0 0>          0.00%    0.00%   76.66%


 No matrix element <i|DMX|i> larger than 5E-7
 No matrix element <i|DMX|1> larger than 5E-7

 No matrix element <i|DMY|i> larger than 5E-7
 No matrix element <i|DMY|1> larger than 5E-7

 No matrix element <i|DMZ|i> larger than 5E-7
 No matrix element <i|DMZ|1> larger than 5E-7


 **********************************************************************************************************************************
 DATASETS  * FILE   NREC   LENGTH (MB)   RECORD NAMES
              1      21       57.06       500      610      700      900      950      970     1000      129      960     1100   
                                          VAR    BASINP    GEOM    SYMINP    ZMAT    AOBASIS   BASIS     P2S    ABASIS      S 
                                         1400     1410     1420     1200     1210     1080     1700     1600     1650     1380   
                                           T        V       ECP      H0       H01     AOSYM    OPER      SMH    MOLCAS    JKOP   
                                         1700(1)
                                         OPER   

              2       7     5097.74       700     1000      520     2100     2140     5201     5101   
                                         GEOM     BASIS   MCVARS     RHF     MCSCF    MRCI     MRCI   

 PROGRAMS   *        TOTAL        CI        CI        CI     MULTI   RHF-SCF       INT
 CPU TIMES  *    135177.84 111606.62  11093.73  12468.73      4.48      1.19      2.86
 REAL TIME  *    137079.77 SEC
 DISK USED  *         5.03 GB (local),       40.55 GB (total)
 SF USED    *        26.48 GB
 GA USED    *         0.00 MB       (max)       0.00 MB       (current)
 **********************************************************************************************************************************

 CI/USERDEF energy=   -192.417315493646

              CI              CI           MULTI         RHF-SCF
   -192.36622202   -192.38179704   -191.65246116   -191.86435408
 **********************************************************************************************************************************
 Molpro calculation terminated with 1 warning(s)
