
 Working directory              : /wrk/irikura/molpro.xCUFFUFfbt/
 Global scratch directory       : /wrk/irikura/molpro.xCUFFUFfbt/
 Wavefunction directory         : /home/irikura/wfu/
 Main file repository           : /wrk/irikura/molpro.xCUFFUFfbt/

 id        : nistki

 Nodes            nprocs
 pn112695.nist.gov   16
 GA implementation: MPI file
 GA implementation (serial work in mppx): MPI file

 Using customized tuning parameters: mindgm=1; mindgv=20; mindgc=4; mindgr=1; noblas=0; minvec=7
 default implementation of scratch files=sf  


 Variables initialized (1040), CPU time= 0.01 sec
 ***,Pb SO-CI
                                                                                 ! valence terms only
                                                                                 ! p-only active space (2/6)
 memory,1000,M;
 
 gprint,orbitals,civector;
 
 symmetry,xyz
 geometry={Pb};
 
 basis=aug-cc-pwCVQZ-DK3
 
 set,dkho=101
 
                                                                                 ! spherical anion orbitals (4S)
 {rhf; wf,charge=-1,sym=2,spin=3}
 
 if $DKHO.EQ.0 then
     LSOP = "ECP"
 else
     LSOP = "LS"
 endif
 
 NTRIP=12
 NSING=6
 
                                                                                 ! valence active space
 {multi
     closed,21,19
     occ,21,25
     wf,charge=0,sym=1,spin=2;state,NTRIP;
     wf,charge=0,sym=1,spin=0;state,NSING;
     expec2,lxx,lyy,lzz;
 }
 table, energy, ll
 title, Energies and &lt;L**2&gt; values
 
                                                                                 ! core is KLMN except 4f
 core,14,9
 
 {ci;wf,sym=1,spin=2;state,NTRIP; save,5201.2}
 hlsdiag = energd4
 {ci;wf,sym=1,spin=0;state,NSING; save,5101.2}
 hlsdiag(NTRIP+1) = energd4
 
 table,hlsdiag
 
 lsint
 {ci;hlsmat,$LSOP,5201.2,5101.2;print,vls=0,hls=0}                               !compute and diagonalize SO matrix
 Commands initialized (846), CPU time= 0.02 sec, 717 directives.
 Default parameters read. Elapsed time= 0.21 sec

 Checking input...
 Passed
1


                                         ***  PROGRAM SYSTEM MOLPRO  ***
                                       Copyright, TTI GmbH Stuttgart, 2015
                                    Version 2023.2 linked Fri Sep 22 03:27:09 2023


 **********************************************************************************************************************************
 LABEL *   Pb SO-CI                                                                                                                                                      
  (32 PROC) 64 bit mpp version                                                           DATE: 06-Feb-25          TIME: 10:55:17  
 **********************************************************************************************************************************

 SHA1:             3c61bfe44d37c8635c785372c339f5cbdd4e4b59
 **********************************************************************************************************************************

 Memory per process:      1000 MW
 Total memory per node:  16000 MW

 GA preallocation disabled
 GA check disabled

 Variable memory set to 1000.0 MW


 ZSYMEL=XYZ

 SETTING BASIS          =    AUG-CC-PWCVQZ-DK3
 SETTING DKHO           =       101.00000000                                  


 Recomputing integrals since basis changed


 Using spherical harmonics

 Library entry PB     S augccpwCVQZ-DK3      selected for orbital group  1
 Library entry PB     P augccpwCVQZ-DK3      selected for orbital group  1
 Library entry PB     D augccpwCVQZ-DK3      selected for orbital group  1
 Library entry PB     F augccpwCVQZ-DK3      selected for orbital group  1
 Library entry PB     G augccpwCVQZ-DK3      selected for orbital group  1
 Library entry PB     H augccpwCVQZ-DK3      selected for orbital group  1


 PROGRAM * SEWARD (Integral evaluation for generally contracted gaussian basis sets)     Author: Roland Lindh, 1990

 Geometry written to block  1 of record 700

 Orientation using atomic masses  
 Molecule type: Atom
 User-specified symmetry elements: XYZ
 Symmetry elements: XYZ
 Rotational constants:       0.0000000      0.0000000      0.0000000 GHz  (calculated with average atomic masses)

 Point group  Ci  



 ATOMIC COORDINATES

 NR  ATOM    CHARGE       X              Y              Z

   1  PB     82.00    0.000000000    0.000000000    0.000000000

 NUCLEAR CHARGE:                   82
 NUMBER OF PRIMITIVE AOS:         488
 NUMBER OF SYMMETRY AOS:          387
 NUMBER OF CONTRACTIONS:          195   (   99Ag  +   96Au  )
 NUMBER OF INNER CORE ORBITALS:    30   (   14Ag  +   16Au  )
 NUMBER OF OUTER CORE ORBITALS:     9   (    6Ag  +    3Au  )
 NUMBER OF VALENCE ORBITALS:        4   (    1Ag  +    3Au  )


 NUCLEAR REPULSION ENERGY    0.00000000

 One-electron integrals computed with SEWARD

 eXact-2-Component (X2C) method activated

 Computing Douglas-Kroll / X2C integrals

 AO integral compression algorithm  1   Integral accuracy      1.0D-11

     167.772 MB (compressed) written to integral file ( 12.8%)

     Node minimum: 4.194 MB, node maximum: 18.088 MB


 NUMBER OF SORTED TWO-ELECTRON INTEGRALS:    5767446.     BUFFER LENGTH:  32768
 NUMBER OF SEGMENTS:   1  SEGMENT LENGTH:    5767446      RECORD LENGTH: 524288

 Memory used in sort:       6.32 MW

 SORT1 READ   163901556. AND WROTE     1056746. INTEGRALS IN      4 RECORDS. CPU TIME:     0.81 SEC, REAL TIME:     0.84 SEC
 SORT2 READ    17018275. AND WROTE    92236821. INTEGRALS IN    816 RECORDS. CPU TIME:     0.12 SEC, REAL TIME:     0.14 SEC

 Node minimum:     5762046.  Node maximum:     5767446. integrals

 OPERATOR DM      FOR CENTER  0  COORDINATES:    0.000000    0.000000    0.000000

 EXTRA SYMMETRY OF AOS IN SYMMETRY 1:   1 1 1 1 1 1 1 1 1 1   1 1 1 2 3 4 5 6 2 3   4 5 6 2 3 4 5 6 2 3   4 5 6 2 3 4 5 6 2 3
                                        4 5 6 2 3 4 5 6 2 3   4 5 6 2 3 4 5 6 2 3   4 5 6 7 8 910111213  1415 7 8 91011121314
                                       15 7 8 9101112131415   7 8 9101112131415
 EXTRA SYMMETRY OF AOS IN SYMMETRY 2:   1 2 3 1 2 3 1 2 3 1   2 3 1 2 3 1 2 3 1 2   3 1 2 3 1 2 3 1 2 3   1 2 3 1 2 3 4 5 6 7
                                        8 910 4 5 6 7 8 910   4 5 6 7 8 910 4 5 6   7 8 910 4 5 6 7 8 9  10 4 5 6 7 8 910 4 5
                                        6 7 8 9101112131415  161718192021

 Eigenvalues of metric

         1 0.534E-07 0.989E-05 0.539E-04 0.539E-04 0.539E-04 0.539E-04 0.539E-04 0.104E-02
         2 0.128E-04 0.128E-04 0.128E-04 0.284E-03 0.284E-03 0.284E-03 0.711E-02 0.711E-02


 **********************************************************************************************************************************
 DATASETS  * FILE   NREC   LENGTH (MB)   RECORD NAMES
              1      22       30.79       500      610      700      900      950      970     1000      129      960     1700   
                                          VAR    BASINP    GEOM    SYMINP    ZMAT    AOBASIS   BASIS     P2S    ABASIS    OPER   
                                         1101     1401     1411     1412     1650     1100     1400     1410     1200     1210   
                                          SR      EKINR    POTR     PVPR    MOLCAS      S      EKIN      POT      H0       H01  
                                         1080     1600   
                                         AOSYM     SMH  

 PROGRAMS   *        TOTAL       INT
 CPU TIMES  *         9.75      9.44
 REAL TIME  *        10.70 SEC
 DISK USED  *        31.21 MB (local),      876.79 MB (total)
 GA USED    *         0.00 MB       (max)       0.00 MB       (current)
 **********************************************************************************************************************************


 Program * Restricted Hartree-Fock

 Orbital guess generated from atomic densities. Full valence occupancy:   21  22

 Initial alpha occupancy:  21  22
 Initial beta  occupancy:  21  19

 NELEC=   83   SYM=2   MS2= 3   THRE=1.0D-08   THRD=3.2D-06   THRG=3.2D-06  HFMA2=F  DIIS_START=2   DIIS_MAX=10   DIIS_INCORE=F

 Level shifts:    0.00 (CLOSED)    0.00 (OPEN)    0.30 (GAP_MIN)

 ITER           ETOT              DE          GRAD        DDIFF     DIIS  NEXP   TIME(IT)  TIME(TOT)  DIAG
   1   -20874.51036946  -20874.51036946     0.00D+00     0.13D+02     0     0       0.03      0.06    start
   2   -20877.37429350      -2.86392404     0.15D+00     0.59D+01     1     0       0.04      0.10    diag2
   3   -20884.06048053      -6.68618703     0.13D+00     0.78D+01     2     0       0.03      0.13    diag2
   4   -20884.32284852      -0.26236800     0.11D-01     0.89D-01     3     0       0.04      0.17    diag2
   5   -20884.36430092      -0.04145239     0.50D-02     0.51D-01     4     0       0.04      0.21    diag2
   6   -20884.37195605      -0.00765513     0.75D-03     0.52D-02     5     0       0.04      0.25    diag2
   7   -20884.37328374      -0.00132770     0.20D-03     0.13D-01     6     0       0.03      0.28    diag2
   8   -20884.37346879      -0.00018505     0.55D-04     0.42D-02     7     0       0.04      0.32    fixocc
   9   -20884.37349707      -0.00002828     0.18D-04     0.11D-02     8     0       0.04      0.36    diag2
  10   -20884.37350149      -0.00000442     0.72D-05     0.19D-03     9     0       0.03      0.39    diag2/orth
  11   -20884.37350175      -0.00000026     0.21D-05     0.29D-04     9     0       0.04      0.43    diag2
  12   -20884.37350176      -0.00000000     0.13D-06     0.12D-05     9     0       0.03      0.46    diag2
  13   -20884.37350176      -0.00000000     0.32D-07     0.77D-06     0     0       0.04      0.50    diag

 Final alpha occupancy:  21  22
 Final beta  occupancy:  21  19

 !RHF STATE 1.2 Energy               -20884.3735017555    
  RHF One-electron energy            -28596.4496528499    
  RHF Two-electron energy            7712.076151094403
  RHF Kinetic energy                  32688.9286454949    
  RHF Nuclear energy                    0.000000000000
  RHF Virial quotient                  -0.638882164914

 !RHF STATE 1.2 Dipole moment           0.00000000     0.00000000     0.00000000
 Dipole moment /Debye                   0.00000000     0.00000000     0.00000000

 ELECTRON ORBITALS
 =================

  Orbital  Occupation    Energy    Cen Mu Typ  Coefficients
    1.1     2.00000 -3253.37783     1  1  s    0.93297    1  2  s   -0.42222    1  3  s   -1.49679    1  4  s   -4.27076
                                    1  5  s    9.90678    1  6  s  -13.20180    1  7  s   -0.99156    1  8  s    2.24707
                                    1 10  s    6.75361    1 11  s    8.14133    1 12  s    2.33001
    2.1     2.00000  -587.46695     1  2  s    1.25928    1  3  s    0.91634    1  4  s    2.61431    1  5  s   -6.06299
                                    1  6  s    8.07912    1  7  s    0.60614    1  8  s   -1.37504    1 10  s   -4.13302
                                    1 11  s   -4.98226    1 12  s   -1.42589
    3.1     2.00000  -143.52151     1  3  s    0.46645    1  4  s   -1.52687    1  5  s    3.55950    1  6  s   -4.76242
                                    1  7  s   -0.35633    1  8  s    0.80153    1 10  s    2.43509    1 11  s    2.93752
                                    1 12  s    0.84027
    4.1     2.00000   -94.27602     1  1  d2+  0.99885
    5.1     2.00000   -94.27602     1  1  d2-  0.99885
    6.1     2.00000   -94.27602     1  1  d0   1.00003
    7.1     2.00000   -94.27602     1  1  d1+  0.99971
    8.1     2.00000   -94.27602     1  1  d1-  0.99971
    9.1     2.00000   -33.76531     1  3  s    0.28683    1  4  s    1.82870    1  5  s   -1.96244    1  6  s    2.65840
                                    1  8  s   -0.43152    1 10  s   -1.35709    1 11  s   -1.64090    1 12  s   -0.46853
   10.1     2.00000   -16.18309     1  2  d0   0.99933
   11.1     2.00000   -16.18309     1  2  d2-  0.93902    1  2  d2+  0.34031
   12.1     2.00000   -16.18309     1  2  d2- -0.34046    1  2  d2+  0.93955
   13.1     2.00000   -16.18309     1  2  d1+  0.99909
   14.1     2.00000   -16.18309     1  2  d1-  0.99893
   15.1     2.00000    -5.91932     1  4  s    0.38812    1  6  s    1.31668    1 10  s   -0.66960    1 11  s   -0.81429
   16.1     2.00000    -0.85058     1  3  d0   1.00025
   17.1     2.00000    -0.85058     1  3  d2-  0.75069    1  3  d2+  0.66101
   18.1     2.00000    -0.85058     1  3  d2- -0.66072    1  3  d2+  0.75032
   19.1     2.00000    -0.85058     1  3  d1+  0.57164    1  3  d1-  0.82022
   20.1     2.00000    -0.85058     1  3  d1+  0.82061    1  3  d1- -0.57190
   21.1     2.00000    -0.35260     1  5  s   -0.30638    1  6  s    1.39136    1 11  s   -0.29667
    1.2     2.00000  -506.12404     1  1  py   0.99914
    2.2     2.00000  -506.12404     1  1  px   0.99917
    3.2     2.00000  -506.12404     1  1  pz   0.99914
    4.2     2.00000  -119.74048     1  2  py   1.00834
    5.2     2.00000  -119.74048     1  2  px   1.00835
    6.2     2.00000  -119.74048     1  2  pz   1.00836
    7.2     2.00000   -25.80840     1  3  pz   0.96608
    8.2     2.00000   -25.80840     1  3  px   0.96618
    9.2     2.00000   -25.80840     1  3  py   0.96621
   10.2     2.00000    -5.60740     1  1  f1+  0.36761    1  1  f3+  0.92927
   11.2     2.00000    -5.60740     1  1  f1- -0.28596    1  1  f3-  0.57278    1  1  f2+  0.76822
   12.2     2.00000    -5.60740     1  1  f0   0.81921    1  1  f2-  0.56242
   13.2     2.00000    -5.60740     1  1  f1- -0.31404    1  1  f3-  0.66910    1  1  f2+ -0.61366
   14.2     2.00000    -5.60740     1  1  f0  -0.52366    1  1  f2-  0.81281
   15.2     2.00000    -5.60740     1  1  f1-  0.90074    1  1  f3-  0.43269
   16.2     2.00000    -5.60740     1  1  f1+  0.93001    1  1  f3+ -0.36731
   17.2     2.00000    -3.61624     1  4  py   0.99221
   18.2     2.00000    -3.61624     1  4  px   0.99221
   19.2     2.00000    -3.61624     1  4  pz   0.99221
   20.2     1.00000    -0.05172     1  9  pz   0.29817    1 10  pz   0.45085    1 11  pz   0.33836
   21.2     1.00000    -0.05172     1  9  px   0.29817    1 10  px   0.45085    1 11  px   0.33836
   22.2     1.00000    -0.05172     1  9  py   0.29817    1 10  py   0.45085    1 11  py   0.33836


 HOMO     22.2    -0.051718 =      -1.4073eV
 LUMO     23.2     0.137671 =       3.7462eV
 LUMO-HOMO         0.189389 =       5.1535eV

 Orbitals saved in record  2100.2


 **********************************************************************************************************************************
 DATASETS  * FILE   NREC   LENGTH (MB)   RECORD NAMES
              1      22       30.79       500      610      700      900      950      970     1000      129      960     1700   
                                          VAR    BASINP    GEOM    SYMINP    ZMAT    AOBASIS   BASIS     P2S    ABASIS    OPER   
                                         1101     1401     1411     1412     1650     1100     1400     1410     1200     1210   
                                          SR      EKINR    POTR     PVPR    MOLCAS      S      EKIN      POT      H0       H01  
                                         1080     1600   
                                         AOSYM     SMH  

              2       4        1.02       700     1000      520     2100   
                                         GEOM     BASIS   MCVARS     RHF  

 PROGRAMS   *        TOTAL   RHF-SCF       INT
 CPU TIMES  *        10.27      0.52      9.44
 REAL TIME  *        11.26 SEC
 DISK USED  *        34.57 MB (local),      930.58 MB (total)
 GA USED    *         0.00 MB       (max)       0.00 MB       (current)
 **********************************************************************************************************************************
 SETTING LSOP           =    "LS"
 SETTING NTRIP          =        12.00000000                                  
 SETTING NSING          =         6.00000000                                  

 PROGRAM * MULTI (Direct Multiconfiguration SCF)       Authors: P.J. Knowles, H.-J. Werner (1984)
                                                                D.A. Kreplin, P.J. Knowles, H.-J. Werner (2019)

 Number of closed-shell orbitals:  40 (   21   19)
 Number of active  orbitals:        6 (    0    6)
 Number of external orbitals:     149 (   78   71)

 State symmetry 1

 Number of active electrons:   2    Spin symmetry=Triplet   Space symmetry=1
 Number of states:            12
 Number of CSFs:              15   (15 determinants, 15 intermediate states)

 State symmetry 2

 Number of active electrons:   2    Spin symmetry=Singlet   Space symmetry=1
 Number of states:             6
 Number of CSFs:              21   (36 determinants, 36 intermediate states)

 Molecular orbitals read from record     2100.2  Type=RHF/CANONICAL  
 *** IN SYMMETRY 1 ORBITAL  4 SYMMETRY CONTAMINATION OF 0.466D-01 HAS BEEN REMOVED
 *** IN SYMMETRY 1 ORBITAL  5 SYMMETRY CONTAMINATION OF 0.482D-01 HAS BEEN REMOVED
 *** IN SYMMETRY 1 ORBITAL  6 SYMMETRY CONTAMINATION OF 0.699D-04 HAS BEEN REMOVED
 *** IN SYMMETRY 1 ORBITAL  7 SYMMETRY CONTAMINATION OF 0.265D-01 HAS BEEN REMOVED
 *** IN SYMMETRY 1 ORBITAL  8 SYMMETRY CONTAMINATION OF 0.248D-01 HAS BEEN REMOVED
 *** IN SYMMETRY 1 ORBITAL 10 SYMMETRY CONTAMINATION OF 0.648D-04 HAS BEEN REMOVED
 *** IN SYMMETRY 1 ORBITAL 11 SYMMETRY CONTAMINATION OF 0.292D+00 HAS BEEN REMOVED
 *** IN SYMMETRY 1 ORBITAL 12 SYMMETRY CONTAMINATION OF 0.268D+00 HAS BEEN REMOVED
 *** IN SYMMETRY 1 ORBITAL 13 SYMMETRY CONTAMINATION OF 0.342D-01 HAS BEEN REMOVED
 *** IN SYMMETRY 1 ORBITAL 14 SYMMETRY CONTAMINATION OF 0.403D-01 HAS BEEN REMOVED
 *** IN SYMMETRY 1 ORBITAL 16 SYMMETRY CONTAMINATION OF 0.398D-04 HAS BEEN REMOVED
 *** IN SYMMETRY 1 ORBITAL 17 SYMMETRY CONTAMINATION OF 0.471D+00 HAS BEEN REMOVED
 *** IN SYMMETRY 1 ORBITAL 18 SYMMETRY CONTAMINATION OF 0.484D+00 HAS BEEN REMOVED
 *** IN SYMMETRY 1 ORBITAL 19 SYMMETRY CONTAMINATION OF 0.429D+00 HAS BEEN REMOVED
 *** IN SYMMETRY 1 ORBITAL 20 SYMMETRY CONTAMINATION OF 0.414D+00 HAS BEEN REMOVED

 EXTRA SYMMETRY OF MOS IN SYMMETRY 1:   1 1 1 5 3 2 4 6 1 2   3 5 4 6 1 2 3 5 6 4   1 1 5 3 4 6 2 1 3 5   4 6 21013 7141511 9
                                       12 8 1 5 3 4 6 21013   711 9141512 8 5 3 4   6 2 1 911 71514 812  1310 2 5 3 4 6 1 7 9
                                       1112 813101514 2 3 5   6 4 1 2 3 5 6 4 1
 *** IN SYMMETRY 2 ORBITAL  1 SYMMETRY CONTAMINATION OF 0.102D-01 HAS BEEN REMOVED
 *** IN SYMMETRY 2 ORBITAL  2 SYMMETRY CONTAMINATION OF 0.305D-02 HAS BEEN REMOVED
 *** IN SYMMETRY 2 ORBITAL  3 SYMMETRY CONTAMINATION OF 0.930D-02 HAS BEEN REMOVED
 *** IN SYMMETRY 2 ORBITAL  4 SYMMETRY CONTAMINATION OF 0.726D-02 HAS BEEN REMOVED
 *** IN SYMMETRY 2 ORBITAL  5 SYMMETRY CONTAMINATION OF 0.529D-02 HAS BEEN REMOVED
 *** IN SYMMETRY 2 ORBITAL  6 SYMMETRY CONTAMINATION OF 0.260D-02 HAS BEEN REMOVED
 *** IN SYMMETRY 2 ORBITAL  7 SYMMETRY CONTAMINATION OF 0.354D-01 HAS BEEN REMOVED
 *** IN SYMMETRY 2 ORBITAL  8 SYMMETRY CONTAMINATION OF 0.285D-01 HAS BEEN REMOVED
 *** IN SYMMETRY 2 ORBITAL  9 SYMMETRY CONTAMINATION OF 0.271D-01 HAS BEEN REMOVED
 *** IN SYMMETRY 2 ORBITAL 10 SYMMETRY CONTAMINATION OF 0.318D+00 HAS BEEN REMOVED
 *** IN SYMMETRY 2 ORBITAL 11 SYMMETRY CONTAMINATION OF 0.530D+00 HAS BEEN REMOVED
 *** IN SYMMETRY 2 ORBITAL 12 SYMMETRY CONTAMINATION OF 0.484D+00 HAS BEEN REMOVED
 *** IN SYMMETRY 2 ORBITAL 13 SYMMETRY CONTAMINATION OF 0.664D+00 HAS BEEN REMOVED
 *** IN SYMMETRY 2 ORBITAL 14 SYMMETRY CONTAMINATION OF 0.539D+00 HAS BEEN REMOVED
 *** IN SYMMETRY 2 ORBITAL 15 SYMMETRY CONTAMINATION OF 0.355D+00 HAS BEEN REMOVED
 *** IN SYMMETRY 2 ORBITAL 16 SYMMETRY CONTAMINATION OF 0.298D+00 HAS BEEN REMOVED
 *** IN SYMMETRY 2 ORBITAL 17 SYMMETRY CONTAMINATION OF 0.187D-02 HAS BEEN REMOVED
 *** IN SYMMETRY 2 ORBITAL 19 SYMMETRY CONTAMINATION OF 0.187D-02 HAS BEEN REMOVED
 *** IN SYMMETRY 2 ORBITAL 20 SYMMETRY CONTAMINATION OF 0.290D-03 HAS BEEN REMOVED
 *** IN SYMMETRY 2 ORBITAL 22 SYMMETRY CONTAMINATION OF 0.290D-03 HAS BEEN REMOVED
 *** IN SYMMETRY 2 ORBITAL 23 SYMMETRY CONTAMINATION OF 0.216D-02 HAS BEEN REMOVED
 *** IN SYMMETRY 2 ORBITAL 24 SYMMETRY CONTAMINATION OF 0.222D-02 HAS BEEN REMOVED
 *** IN SYMMETRY 2 ORBITAL 25 SYMMETRY CONTAMINATION OF 0.263D-03 HAS BEEN REMOVED
 EXTRA SYMMETRY OF MOS IN SYMMETRY 2:   2 1 3 2 1 3 3 1 2 7  10 6 9 8 5 4 2 1 3 3   1 2 3 1 2 1 2 310 8   7 9 6 5 4 1 2 3 810
                                        7 9 6 5 4 6 7 9 810   5 4 1 2 3 6 810 7 9   4 51112132119161417  152018 1 2 3 6 7 910
                                        8 5 4 6 9 7 4 5 810   3 1 2 3 1 2

 Wavefunction dump at record             2140.2

 Convergence thresholds  0.10E-04 (gradient)  0.10E-05 (energy)

 Weight factors for state symmetry  1:    0.05556   0.05556   0.05556   0.05556   0.05556   0.05556   0.05556   0.05556
                                          0.05556   0.05556   0.05556   0.05556
 Weight factors for state symmetry  2:    0.05556   0.05556   0.05556   0.05556   0.05556   0.05556
 
 Number of orbital rotations:  3527  ( 114 closed/active, 2987 closed/virtual, 0 active/active, 426 active/virtual )
 Total number of variables:    3923
 
 Second-order MCSCF: L-BFGS accelerated
 
 ITER  MIC  NCI  NEG     ENERGY(VAR)    ENERGY(PROJ) ENERGY CHANGE       GRAD(0)  GRAD(ORB)   GRAD(CI)      STEP      TIME
   1    5    8    0 -20884.21105636  -20884.23817992   -0.02712356    0.15527438 0.00011610 0.00000000  0.70E+00      5.63
   2    7   12    0 -20884.23737180  -20884.23741344   -0.00004164    0.00781484 0.00000050 0.00000000  0.27E-01     12.04
   3    6   10    0 -20884.23741351  -20884.23741351   -0.00000000    0.00002072 0.00000000 0.00000000  0.76E-04     17.42
   4    4    4    0 -20884.23741351  -20884.23741351    0.00000000    0.00000005 0.00000001 0.00000000  0.14E-07     22.08

 CONVERGENCE REACHED!  Final gradient:    0.00000004 ( 0.37E-07)
                       Final energy: -20884.23741351
 
 Results for state 1.1 Triplet
 =============================
 !MCSCF STATE 1.1 Triplet Energy              -20884.3390873177    
 Nuclear energy                                  0.00000000
 Kinetic energy                              32689.72176660
 One electron energy                        -28580.68482142
 Two electron energy                          7696.34573411
 Virial ratio                                    1.63886561
 
 !MCSCF STATE 1.1 Triplet Dipole moment          0.00000000     0.00000000     0.00000000
 Dipole moment /Debye                            0.00000000     0.00000000     0.00000000
 
 Results for state 2.1 Triplet
 =============================
 !MCSCF STATE 2.1 Triplet Energy              -20884.3390873175    
 Nuclear energy                                  0.00000000
 Kinetic energy                              32689.72176663
 One electron energy                        -28580.68482157
 Two electron energy                          7696.34573425
 Virial ratio                                    1.63886561
 
 !MCSCF STATE 2.1 Triplet Dipole moment          0.00000000     0.00000000     0.00000000
 Dipole moment /Debye                            0.00000000     0.00000000     0.00000000
 
 Results for state 3.1 Triplet
 =============================
 !MCSCF STATE 3.1 Triplet Energy              -20884.3390873174    
 Nuclear energy                                  0.00000000
 Kinetic energy                              32689.72176664
 One electron energy                        -28580.68482163
 Two electron energy                          7696.34573431
 Virial ratio                                    1.63886561
 
 !MCSCF STATE 3.1 Triplet Dipole moment          0.00000000     0.00000000     0.00000000
 Dipole moment /Debye                            0.00000000     0.00000000     0.00000000
 
 Results for state 4.1 Triplet
 =============================
 !MCSCF STATE 4.1 Triplet Energy              -20884.1657020548    
 Nuclear energy                                  0.00000000
 Kinetic energy                              32688.21072333
 One electron energy                        -28561.91492926
 Two electron energy                          7677.74922721
 Virial ratio                                    1.63888984
 
 !MCSCF STATE 4.1 Triplet Dipole moment          0.00000000     0.00000000     0.00000000
 Dipole moment /Debye                            0.00000000     0.00000000     0.00000000
 
 Results for state 5.1 Triplet
 =============================
 !MCSCF STATE 5.1 Triplet Energy              -20884.1657020548    
 Nuclear energy                                  0.00000000
 Kinetic energy                              32688.21072333
 One electron energy                        -28561.91492924
 Two electron energy                          7677.74922719
 Virial ratio                                    1.63888984
 
 !MCSCF STATE 5.1 Triplet Dipole moment          0.00000000     0.00000000     0.00000000
 Dipole moment /Debye                            0.00000000     0.00000000     0.00000000
 
 Results for state 6.1 Triplet
 =============================
 !MCSCF STATE 6.1 Triplet Energy              -20884.1657020547    
 Nuclear energy                                  0.00000000
 Kinetic energy                              32688.21072332
 One electron energy                        -28561.91492922
 Two electron energy                          7677.74922716
 Virial ratio                                    1.63888984
 
 !MCSCF STATE 6.1 Triplet Dipole moment          0.00000000     0.00000000     0.00000000
 Dipole moment /Debye                            0.00000000     0.00000000     0.00000000
 
 Results for state 7.1 Triplet
 =============================
 !MCSCF STATE 7.1 Triplet Energy              -20884.1657020544    
 Nuclear energy                                  0.00000000
 Kinetic energy                              32688.21072331
 One electron energy                        -28561.91492914
 Two electron energy                          7677.74922708
 Virial ratio                                    1.63888984
 
 !MCSCF STATE 7.1 Triplet Dipole moment          0.00000000     0.00000000     0.00000000
 Dipole moment /Debye                            0.00000000     0.00000000     0.00000000
 
 Results for state 8.1 Triplet
 =============================
 !MCSCF STATE 8.1 Triplet Energy              -20884.1657020544    
 Nuclear energy                                  0.00000000
 Kinetic energy                              32688.21072331
 One electron energy                        -28561.91492914
 Two electron energy                          7677.74922708
 Virial ratio                                    1.63888984
 
 !MCSCF STATE 8.1 Triplet Dipole moment          0.00000000     0.00000000     0.00000000
 Dipole moment /Debye                            0.00000000     0.00000000     0.00000000
 
 Results for state 9.1 Triplet
 =============================
 !MCSCF STATE 9.1 Triplet Energy              -20884.1623481323    
 Nuclear energy                                  0.00000000
 Kinetic energy                              32688.40784947
 One electron energy                        -28563.36142193
 Two electron energy                          7679.19907380
 Virial ratio                                    1.63888588
 
 !MCSCF STATE 9.1 Triplet Dipole moment          0.00000000     0.00000000     0.00000000
 Dipole moment /Debye                            0.00000000     0.00000000     0.00000000
 
 Results for state 10.1 Triplet
 ==============================
 !MCSCF STATE 10.1 Triplet Energy             -20884.1623481323    
 Nuclear energy                                  0.00000000
 Kinetic energy                              32688.40784946
 One electron energy                        -28563.36142190
 Two electron energy                          7679.19907377
 Virial ratio                                    1.63888588
 
 !MCSCF STATE 10.1 Triplet Dipole moment         0.00000000     0.00000000     0.00000000
 Dipole moment /Debye                            0.00000000     0.00000000     0.00000000
 
 Results for state 11.1 Triplet
 ==============================
 !MCSCF STATE 11.1 Triplet Energy             -20884.1623481321    
 Nuclear energy                                  0.00000000
 Kinetic energy                              32688.40784944
 One electron energy                        -28563.36142180
 Two electron energy                          7679.19907367
 Virial ratio                                    1.63888588
 
 !MCSCF STATE 11.1 Triplet Dipole moment         0.00000000     0.00000000     0.00000000
 Dipole moment /Debye                            0.00000000     0.00000000     0.00000000
 
 Results for state 12.1 Triplet
 ==============================
 !MCSCF STATE 12.1 Triplet Energy             -20884.1589478773    
 Nuclear energy                                  0.00000000
 Kinetic energy                              32688.21072332
 One electron energy                        -28561.91492920
 Two electron energy                          7677.75598132
 Virial ratio                                    1.63888963
 
 !MCSCF STATE 12.1 Triplet Dipole moment         0.00000000     0.00000000     0.00000000
 Dipole moment /Debye                            0.00000000     0.00000000     0.00000000
 
 Results for state 1.1 Singlet
 =============================
 !MCSCF STATE 1.1 Singlet Energy              -20884.3049923071    
 Nuclear energy                                  0.00000000
 Kinetic energy                              32689.61590069
 One electron energy                        -28579.82647898
 Two electron energy                          7695.52148667
 Virial ratio                                    1.63886664
 
 !MCSCF STATE 1.1 Singlet Dipole moment          0.00000000     0.00000000     0.00000000
 Dipole moment /Debye                            0.00000000     0.00000000     0.00000000
 
 Results for state 2.1 Singlet
 =============================
 !MCSCF STATE 2.1 Singlet Energy              -20884.3049923071    
 Nuclear energy                                  0.00000000
 Kinetic energy                              32689.61590069
 One electron energy                        -28579.82647898
 Two electron energy                          7695.52148667
 Virial ratio                                    1.63886664
 
 !MCSCF STATE 2.1 Singlet Dipole moment          0.00000000     0.00000000     0.00000000
 Dipole moment /Debye                            0.00000000     0.00000000     0.00000000
 
 Results for state 3.1 Singlet
 =============================
 !MCSCF STATE 3.1 Singlet Energy              -20884.3049923069    
 Nuclear energy                                  0.00000000
 Kinetic energy                              32689.61590072
 One electron energy                        -28579.82647910
 Two electron energy                          7695.52148680
 Virial ratio                                    1.63886664
 
 !MCSCF STATE 3.1 Singlet Dipole moment          0.00000000     0.00000000     0.00000000
 Dipole moment /Debye                            0.00000000     0.00000000     0.00000000
 
 Results for state 4.1 Singlet
 =============================
 !MCSCF STATE 4.1 Singlet Energy              -20884.3049923067    
 Nuclear energy                                  0.00000000
 Kinetic energy                              32689.61590073
 One electron energy                        -28579.82647916
 Two electron energy                          7695.52148685
 Virial ratio                                    1.63886664
 
 !MCSCF STATE 4.1 Singlet Dipole moment          0.00000000     0.00000000     0.00000000
 Dipole moment /Debye                            0.00000000     0.00000000     0.00000000
 
 Results for state 5.1 Singlet
 =============================
 !MCSCF STATE 5.1 Singlet Energy              -20884.3049923067    
 Nuclear energy                                  0.00000000
 Kinetic energy                              32689.61590074
 One electron energy                        -28579.82647919
 Two electron energy                          7695.52148688
 Virial ratio                                    1.63886664
 
 !MCSCF STATE 5.1 Singlet Dipole moment          0.00000000     0.00000000     0.00000000
 Dipole moment /Debye                            0.00000000     0.00000000     0.00000000
 
 Results for state 6.1 Singlet
 =============================
 !MCSCF STATE 6.1 Singlet Energy              -20884.2567171476    
 Nuclear energy                                  0.00000000
 Kinetic energy                              32689.35810889
 One electron energy                        -28577.57537982
 Two electron energy                          7693.31866268
 Virial ratio                                    1.63887020
 
 !MCSCF STATE 6.1 Singlet Dipole moment          0.00000000     0.00000000     0.00000000
 Dipole moment /Debye                            0.00000000     0.00000000     0.00000000
 
 State-averaged charge density matrix saved on record 2140.2 (density set 1)
 
 No non-zero expectation values
 
 Expectation values for two-electron operators:
 
 ? Warning
 ? Transition properties are only calculated between states of the same symmetry
 ? The problem occurs in mu_properties_expec2

 !MCSCF expec      <1.1 Triplet|LXLX|1.1 Triplet>     0.999999999607
 !MCSCF expec      <2.1 Triplet|LXLX|2.1 Triplet>     0.999999973753
 !MCSCF expec      <3.1 Triplet|LXLX|3.1 Triplet>     0.000000026601
 !MCSCF expec      <4.1 Triplet|LXLX|4.1 Triplet>     3.362586468026
 !MCSCF expec      <5.1 Triplet|LXLX|5.1 Triplet>     3.999999981149
 !MCSCF expec      <6.1 Triplet|LXLX|6.1 Triplet>     1.000000018201
 !MCSCF expec      <7.1 Triplet|LXLX|7.1 Triplet>     1.000000002675
 !MCSCF expec      <8.1 Triplet|LXLX|8.1 Triplet>     0.637412988085
 !MCSCF expec      <9.1 Triplet|LXLX|9.1 Triplet>     0.000000014846
 !MCSCF expec    <10.1 Triplet|LXLX|10.1 Triplet>     0.999999985431
 !MCSCF expec    <11.1 Triplet|LXLX|11.1 Triplet>     0.999999999535
 !MCSCF expec    <12.1 Triplet|LXLX|12.1 Triplet>     0.000000000000
 !MCSCF expec      <1.1 Singlet|LXLX|1.1 Singlet>     0.999997732585
 !MCSCF expec      <2.1 Singlet|LXLX|2.1 Singlet>     0.530257101440
 !MCSCF expec      <3.1 Singlet|LXLX|3.1 Singlet>     1.000000043073
 !MCSCF expec      <4.1 Singlet|LXLX|4.1 Singlet>     3.999999956320
 !MCSCF expec      <5.1 Singlet|LXLX|5.1 Singlet>     3.469743859513
 !MCSCF expec      <6.1 Singlet|LXLX|6.1 Singlet>     0.000000000000
 
 !MCSCF expec      <1.1 Triplet|LYLY|1.1 Triplet>     0.000000017174
 !MCSCF expec      <2.1 Triplet|LYLY|2.1 Triplet>     0.999999983140
 !MCSCF expec      <3.1 Triplet|LYLY|3.1 Triplet>     0.999999999607
 !MCSCF expec      <4.1 Triplet|LYLY|4.1 Triplet>     0.050827208467
 !MCSCF expec      <5.1 Triplet|LYLY|5.1 Triplet>     0.999999997782
 !MCSCF expec      <6.1 Triplet|LYLY|6.1 Triplet>     1.000000002788
 !MCSCF expec      <7.1 Triplet|LYLY|7.1 Triplet>     3.999999995885
 !MCSCF expec      <8.1 Triplet|LYLY|8.1 Triplet>     3.949172628658
 !MCSCF expec      <9.1 Triplet|LYLY|9.1 Triplet>     0.999999999542
 !MCSCF expec    <10.1 Triplet|LYLY|10.1 Triplet>     0.999999996166
 !MCSCF expec    <11.1 Triplet|LYLY|11.1 Triplet>     0.000000004153
 !MCSCF expec    <12.1 Triplet|LYLY|12.1 Triplet>    -0.000000000000
 !MCSCF expec      <1.1 Singlet|LYLY|1.1 Singlet>     3.999999485861
 !MCSCF expec      <2.1 Singlet|LYLY|2.1 Singlet>     3.909558963768
 !MCSCF expec      <3.1 Singlet|LYLY|3.1 Singlet>     1.000000020567
 !MCSCF expec      <4.1 Singlet|LYLY|4.1 Singlet>     1.000000006217
 !MCSCF expec      <5.1 Singlet|LYLY|5.1 Singlet>     0.090441007420
 !MCSCF expec      <6.1 Singlet|LYLY|6.1 Singlet>    -0.000000000000
 
 !MCSCF expec      <1.1 Triplet|LZLZ|1.1 Triplet>     0.999999983220
 !MCSCF expec      <2.1 Triplet|LZLZ|2.1 Triplet>     0.000000043107
 !MCSCF expec      <3.1 Triplet|LZLZ|3.1 Triplet>     0.999999973792
 !MCSCF expec      <4.1 Triplet|LZLZ|4.1 Triplet>     2.586586323507
 !MCSCF expec      <5.1 Triplet|LZLZ|5.1 Triplet>     1.000000021069
 !MCSCF expec      <6.1 Triplet|LZLZ|6.1 Triplet>     3.999999979012
 !MCSCF expec      <7.1 Triplet|LZLZ|7.1 Triplet>     1.000000001440
 !MCSCF expec      <8.1 Triplet|LZLZ|8.1 Triplet>     1.413414383257
 !MCSCF expec      <9.1 Triplet|LZLZ|9.1 Triplet>     0.999999985611
 !MCSCF expec    <10.1 Triplet|LZLZ|10.1 Triplet>     0.000000018403
 !MCSCF expec    <11.1 Triplet|LZLZ|11.1 Triplet>     0.999999996311
 !MCSCF expec    <12.1 Triplet|LZLZ|12.1 Triplet>     0.000000000000
 !MCSCF expec      <1.1 Singlet|LZLZ|1.1 Singlet>     1.000002781554
 !MCSCF expec      <2.1 Singlet|LZLZ|2.1 Singlet>     1.560183934792
 !MCSCF expec      <3.1 Singlet|LZLZ|3.1 Singlet>     3.999999936360
 !MCSCF expec      <4.1 Singlet|LZLZ|4.1 Singlet>     1.000000037463
 !MCSCF expec      <5.1 Singlet|LZLZ|5.1 Singlet>     2.439815133066
 !MCSCF expec      <6.1 Singlet|LZLZ|6.1 Singlet>     0.000000000000
 
 !MCSCF expec      <1.1 Triplet|L**2|1.1 Triplet>     2.000000000000
 !MCSCF expec      <2.1 Triplet|L**2|2.1 Triplet>     2.000000000000
 !MCSCF expec      <3.1 Triplet|L**2|3.1 Triplet>     2.000000000000
 !MCSCF expec      <4.1 Triplet|L**2|4.1 Triplet>     6.000000000000
 !MCSCF expec      <5.1 Triplet|L**2|5.1 Triplet>     6.000000000000
 !MCSCF expec      <6.1 Triplet|L**2|6.1 Triplet>     6.000000000000
 !MCSCF expec      <7.1 Triplet|L**2|7.1 Triplet>     6.000000000000
 !MCSCF expec      <8.1 Triplet|L**2|8.1 Triplet>     6.000000000000
 !MCSCF expec      <9.1 Triplet|L**2|9.1 Triplet>     2.000000000000
 !MCSCF expec    <10.1 Triplet|L**2|10.1 Triplet>     2.000000000000
 !MCSCF expec    <11.1 Triplet|L**2|11.1 Triplet>     2.000000000000
 !MCSCF expec    <12.1 Triplet|L**2|12.1 Triplet>     0.000000000000
 !MCSCF expec      <1.1 Singlet|L**2|1.1 Singlet>     6.000000000000
 !MCSCF expec      <2.1 Singlet|L**2|2.1 Singlet>     6.000000000000
 !MCSCF expec      <3.1 Singlet|L**2|3.1 Singlet>     6.000000000000
 !MCSCF expec      <4.1 Singlet|L**2|4.1 Singlet>     6.000000000000
 !MCSCF expec      <5.1 Singlet|L**2|5.1 Singlet>     6.000000000000
 !MCSCF expec      <6.1 Singlet|L**2|6.1 Singlet>    -0.000000000000
 
 EXTRA SYMMETRY OF MOS IN SYMMETRY 1:   1 1 1 2 5 3 4 6 1 2   6 4 3 5 1 2 6 4 5 3   1 1 6 4 2 5 3 1 3 5   6 4 2 711 912 81415
                                       1013 1 5 3 6 4 2 711   9 81214151013 5 3 6   4 2 111 7 9 8121415  1310 2 5 3 6 4 1 711
                                        9 81215141310 2 3 5   6 4 1 2 3 5 4 6 1
 EXTRA SYMMETRY OF MOS IN SYMMETRY 2:   3 2 1 3 2 1 3 2 1 6   5 410 8 7 9 3 2 1 1   2 3 1 2 3 2 1 3 6 5   410 8 7 9 2 1 3 6 5
                                        810 4 7 9 6 5 810 4   7 9 2 1 3 6 810 5 4   7 91219111321161417  152018 6 5 410 8 7 9
                                        2 1 3 6 5 4 9 710 8   3 1 2 3 1 2
 
  NATURAL ORBITALS (STATE AVERAGED)
  =================================

  Orbital  Occupation    Energy    Cen Mu Typ  Coefficients
    1.1     2.00000 -3253.68893     1  1  s    0.93297    1  2  s   -0.42222    1  3  s   -1.49679    1  4  s   -4.27075
                                    1  5  s    9.90677    1  6  s  -13.20177    1  7  s   -0.99156    1  8  s    2.24707
                                    1 10  s    6.75360    1 11  s    8.14131    1 12  s    2.33000
    2.1     2.00000  -587.77749     1  2  s    1.25928    1  3  s    0.91633    1  4  s    2.61430    1  5  s   -6.06291
                                    1  6  s    8.07898    1  7  s    0.60613    1  8  s   -1.37503    1 10  s   -4.13295
                                    1 11  s   -4.98217    1 12  s   -1.42587
    3.1     2.00000  -143.83186     1  3  s    0.46646    1  4  s   -1.52682    1  5  s    3.55924    1  6  s   -4.76197
                                    1  7  s   -0.35630    1  8  s    0.80151    1 10  s    2.43486    1 11  s    2.93724
                                    1 12  s    0.84020
    4.1     2.00000   -94.58619     1  1  d0   1.00003
    5.1     2.00000   -94.58619     1  1  d2+  1.00003
    6.1     2.00000   -94.58619     1  1  d2-  1.00003
    7.1     2.00000   -94.58619     1  1  d1+  1.00003
    8.1     2.00000   -94.58619     1  1  d1-  1.00003
    9.1     2.00000   -34.07570     1  3  s    0.28680    1  4  s    1.82848    1  5  s   -1.96135    1  6  s    2.65637
                                    1  8  s   -0.43147    1 10  s   -1.35609    1 11  s   -1.63963    1 12  s   -0.46818
   10.1     2.00000   -16.49327     1  2  d0   0.99940
   11.1     2.00000   -16.49327     1  2  d1-  0.99940
   12.1     2.00000   -16.49327     1  2  d1+  0.99940
   13.1     2.00000   -16.49327     1  2  d2-  0.99940
   14.1     2.00000   -16.49327     1  2  d2+  0.99940
   15.1     2.00000    -6.22984     1  4  s    0.38892    1  6  s    1.33406    1 10  s   -0.67836    1 11  s   -0.82494
   16.1     2.00000    -1.16104     1  3  d0   1.00142
   17.1     2.00000    -1.16104     1  3  d1-  1.00142
   18.1     2.00000    -1.16104     1  3  d1+  1.00142
   19.1     2.00000    -1.16104     1  3  d2+  1.00142
   20.1     2.00000    -1.16104     1  3  d2-  1.00142
   21.1     2.00000    -0.63473     1  5  s   -0.42331    1  6  s    1.68198    1 10  s   -0.31210    1 11  s   -0.39981
    1.2     2.00000  -506.43442     1  1  pz   0.99918
    2.2     2.00000  -506.43442     1  1  py   0.99918
    3.2     2.00000  -506.43442     1  1  px   0.99918
    4.2     2.00000  -120.05054     1  2  pz   1.00839
    5.2     2.00000  -120.05054     1  2  py   1.00839
    6.2     2.00000  -120.05054     1  2  px   1.00839
    7.2     2.00000   -26.11834     1  3  pz   0.96632
    8.2     2.00000   -26.11834     1  3  py   0.96632
    9.2     2.00000   -26.11834     1  3  px   0.96632
   10.2     2.00000    -5.91753     1  1  f0   1.00003
   11.2     2.00000    -5.91753     1  1  f1-  1.00003
   12.2     2.00000    -5.91753     1  1  f1+  1.00003
   13.2     2.00000    -5.91753     1  1  f2+  1.00003
   14.2     2.00000    -5.91753     1  1  f2-  1.00003
   15.2     2.00000    -5.91753     1  1  f3+  1.00003
   16.2     2.00000    -5.91753     1  1  f3-  1.00003
   17.2     2.00000    -3.92637     1  4  pz   0.99972
   18.2     2.00000    -3.92637     1  4  py   0.99972
   19.2     2.00000    -3.92637     1  4  px   0.99972
   20.2     0.49809    -0.10240     1  9  px   0.38035    1 10  px   0.55279
   21.2     0.49809    -0.10240     1  9  py   0.38035    1 10  py   0.55279
   22.2     0.49809    -0.10240     1  9  pz   0.38035    1 10  pz   0.55279
   23.2     0.16857     0.03277     1 10  px  -0.25339    1 12  px   1.14272
   24.2     0.16857     0.03277     1 10  py  -0.25339    1 12  py   1.14272
   25.2     0.16857     0.03277     1 10  pz  -0.25339    1 12  pz   1.14272
 
 Natural orbital dump (state averaged) at molpro section 2140.2 (Orbital set 2)
 
 Transform the CI vectors
 
 CI Coefficients of symmetry 1 (Triplet)
 =======================================

 State:              1               2               3               4               5               6               7
 a0a000         0.99986880     -0.00012952     -0.00001985      0.00000000      0.00000000     -0.00000000     -0.00000000
 0aa000         0.00001983     -0.00016199      0.99986879     -0.00000000     -0.00000000      0.00000000     -0.00000000
 aa0000         0.00012952      0.99986879      0.00016199      0.00000000     -0.00000000     -0.00000000      0.00000000
 0a00a0        -0.00000000     -0.00000000     -0.00000000      0.81129249     -0.00005630      0.00001588      0.00001173
 a00a00        -0.00000000     -0.00000000     -0.00000000     -0.32593799      0.00000582     -0.00001419      0.00002167
 0a0a00         0.00000086      0.00665830      0.00000108     -0.00001296      0.00005504      0.70710684     -0.00002205
 0a000a        -0.00000013      0.00000108     -0.00665830      0.00005097      0.70710682     -0.00005503      0.00000716
 00aa00         0.00665830     -0.00000086     -0.00000013     -0.00001320     -0.00000716      0.00002205      0.70710680
 a0000a        -0.00665830      0.00000086      0.00000013     -0.00001320     -0.00000716      0.00002205      0.70710676
 00a0a0         0.00000013     -0.00000108      0.00665830      0.00005097      0.70710673     -0.00005503      0.00000716
 a000a0        -0.00000086     -0.00665830     -0.00000108     -0.00001296      0.00005503      0.70710672     -0.00002205
 00a00a        -0.00000000      0.00000000      0.00000000     -0.48535442      0.00005049     -0.00000169     -0.00003340
 000aa0        -0.00000171     -0.01317957     -0.00000214     -0.00000000      0.00000000      0.00000001      0.00000000
 000a0a        -0.01317957      0.00000171      0.00000026      0.00000000     -0.00000000      0.00000000     -0.00000000
 0000aa        -0.00000026      0.00000214     -0.01317957      0.00000000     -0.00000001      0.00000000     -0.00000000
 
 Energy:   -20884.33908732 -20884.33908732 -20884.33908732 -20884.16570205 -20884.16570205 -20884.16570205 -20884.16570205

 State:              8               9              10              11              12
 a0a000         0.00000000     -0.00000016      0.00000047      0.00763063      0.00000000
 0aa000        -0.00000000      0.00763063      0.00000092      0.00000016     -0.00000000
 aa0000        -0.00000000     -0.00000092      0.00763063     -0.00000047      0.00000000
 0a00a0        -0.09203914      0.00000000      0.00000000      0.00000000      0.57735023
 a00a00         0.74861944     -0.00000000      0.00000000      0.00000000      0.57735030
 0a0a00         0.00000776      0.00008410     -0.70112975      0.00004342      0.00000000
 0a000a         0.00001669      0.70112976      0.00008410      0.00001499     -0.00000000
 00aa00        -0.00002621      0.00001500     -0.00004342     -0.70112980      0.00000000
 a0000a        -0.00002621     -0.00001500      0.00004342      0.70112983     -0.00000000
 00a0a0         0.00001669     -0.70112986     -0.00008410     -0.00001499     -0.00000000
 a000a0         0.00000776     -0.00008410      0.70112987     -0.00004342     -0.00000000
 00a00a        -0.65658033     -0.00000000      0.00000000      0.00000000      0.57735028
 000aa0         0.00000000      0.00001554     -0.12952119      0.00000802      0.00000000
 000a0a         0.00000000      0.00000277     -0.00000802     -0.12952119      0.00000000
 0000aa         0.00000000     -0.12952119     -0.00001554     -0.00000277      0.00000000
 
 Energy:   -20884.16570205 -20884.16234813 -20884.16234813 -20884.16234813 -20884.15894788
 
 
 CI Coefficients of symmetry 1 (Singlet)
 =======================================
 
 020000        -0.00028622     -0.12260085      0.00001913      0.00009832      0.80607367      0.56804339
 200000         0.00160325      0.75937919     -0.00002341      0.00000832     -0.29686111      0.56804338
 ab0000         0.00005827      0.00001606      0.70610860     -0.00008504     -0.00001429     -0.00000000
 ba0000        -0.00005827     -0.00001606     -0.70610860      0.00008504      0.00001429      0.00000000
 0ba000        -0.00001132      0.00004405     -0.00008504     -0.70610860      0.00009283      0.00000000
 0ab000         0.00001132     -0.00004405      0.00008504      0.70610860     -0.00009283     -0.00000000
 a0b000         0.70610706     -0.00148081     -0.00005824     -0.00001140      0.00002550     -0.00000000
 b0a000        -0.70610706      0.00148081      0.00005824      0.00001140     -0.00002550      0.00000000
 002000        -0.00131703     -0.63677833      0.00000428     -0.00010664     -0.50921257      0.56804338
 00b00a         0.00004393      0.02124125     -0.00000014      0.00000356      0.01698599     -0.07027651
 00a00b        -0.00004393     -0.02124125      0.00000014     -0.00000356     -0.01698599      0.07027651
 0a00b0        -0.00000955     -0.00408964      0.00000064      0.00000328      0.02688850      0.07027651
 0b00a0         0.00000955      0.00408964     -0.00000064     -0.00000328     -0.02688850     -0.07027651
 b00a00        -0.00005348     -0.02533089      0.00000078     -0.00000028      0.00990250     -0.07027651
 a00b00         0.00005348      0.02533089     -0.00000078      0.00000028     -0.00990250      0.07027651
 
 Energy:   -20884.30499231 -20884.30499231 -20884.30499231 -20884.30499231 -20884.30499231 -20884.25671715
 


 **********************************************************************************************************************************
 DATASETS  * FILE   NREC   LENGTH (MB)   RECORD NAMES
              1      24      267.15       500      610      700      900      950      970     1000      129      960     1700   
                                          VAR    BASINP    GEOM    SYMINP    ZMAT    AOBASIS   BASIS     P2S    ABASIS    OPER   
                                         1101     1401     1411     1412     1650     1100     1400     1410     1200     1210   
                                          SR      EKINR    POTR     PVPR    MOLCAS      S      EKIN      POT      H0       H01  
                                         1080     1600     1380     1700(1)
                                         AOSYM     SMH     JKOP     OPER   

              2       5        1.78       700     1000      520     2100     2140   
                                         GEOM     BASIS   MCVARS     RHF     MCSCF   

 PROGRAMS   *        TOTAL     MULTI   RHF-SCF       INT
 CPU TIMES  *        32.78     22.51      0.52      9.44
 REAL TIME  *        38.03 SEC
 DISK USED  *       269.06 MB (local),        4.57 GB (total)
 SF USED    *       564.31 MB
 GA USED    *         0.00 MB       (max)       0.00 MB       (current)
 **********************************************************************************************************************************

 Energies and &lt;L**2&gt; values

          ENERGY    LL
    -20884.33909   2.0
    -20884.33909   2.0
    -20884.33909   2.0
    -20884.16570   6.0
    -20884.16570   6.0
    -20884.16570   6.0
    -20884.16570   6.0
    -20884.16570   6.0
    -20884.16235   2.0
    -20884.16235   2.0
    -20884.16235   2.0
    -20884.15895   0.0
    -20884.30499   6.0
    -20884.30499   6.0
    -20884.30499   6.0
    -20884.30499   6.0
    -20884.30499   6.0
    -20884.25672  -0.0
                                                  


 PROGRAM * CI (Multireference internally contracted CI)     Authors: H.-J. Werner, P.J. Knowles, 1987


 Convergence thresholds:  THRVAR = 1.00D-08  THRDEN = 1.00D-06

 Number of optimized states: 12  Roots:   1   2   3   4   5   6   7   8   9  10  11  12
 Number of reference states: 12  Roots:   1   2   3   4   5   6   7   8   9  10  11  12

 Reference symmetry:                   1   Triplet 
 Number of electrons:                 82
 Maximum number of shells:             4
 Maximum number of spin couplings:    28

 Reference space:       15 conf       15 CSFs
 N elec internal:    14380 conf    48210 CSFs
 N-1 el internal:     8013 conf    39123 CSFs
 N-2 el internal:     2398 conf    19432 CSFs

 Number of electrons in valence space:                     36
 Maximum number of open shell orbitals in reference space:  2
 Maximum number of open shell orbitals in internal spaces:  8


 Number of core orbitals:          23 (  14   9 )
 Number of closed-shell orbitals:  17 (   7  10 )
 Number of active  orbitals:        6 (   0   6 )
 Number of external orbitals:     149 (  78  71 )

 Molecular orbitals read from record     2140.2  Type=MCSCF/NATURAL (state averaged)

 Integral transformation finished. Total CPU:   1.27 sec, npass=  1  Memory used:   6.08 MW


 Number of p-space configurations:  15

 Reference wavefunction optimized for reference space (refopt=1)

 State     Reference Energy 
     1    -20884.33908732
     2    -20884.33908732
     3    -20884.33908732
     4    -20884.16570205
     5    -20884.16570205
     6    -20884.16570205
     7    -20884.16570205
     8    -20884.16570205
     9    -20884.16234813
    10    -20884.16234813
    11    -20884.16234813
    12    -20884.15894788

 Number of blocks in overlap matrix:  3605   Smallest eigenvalue:  0.83D+00
 Number of N-2 electron functions:    3673
 Number of N-1 electron functions:   39123

 Number of internal configurations:                24480
 Number of singly external configurations:       2912532
 Number of doubly external configurations:      20402968
 Total number of contracted configurations:     23339980
 Total number of uncontracted configurations:  110548093

 Diagonal Coupling coefficients finished.               Storage:  24329884 words, CPU-Time:     54.71 seconds.
 Energy denominators for pairs finished in 1 passes.    Storage:   4112720 words, CPU-time:      8.47 seconds.

  ITER. STATE  ROOT     SQ.NORM     CORR.ENERGY   TOTAL ENERGY   ENERGY CHANGE       DEN1      VAR(S)    VAR(P)      TIME
    1     1     1     1.00000000     0.00000000-20884.33908732     0.00000000    -1.30981016  0.49D-01  0.14D+00    74.55
    1     2     2     1.00000000     0.00000000-20884.33908732     0.00000000    -1.30994024  0.49D-01  0.14D+00    74.55
    1     3     3     1.00000000     0.00000000-20884.33908732     0.00000000    -1.30968759  0.49D-01  0.14D+00    74.55
    1     4     4     1.00000000     0.00000000-20884.16570205     0.00000000    -1.26828439  0.44D-01  0.12D+00    74.55
    1     5     5     1.00000000     0.00000000-20884.16570205    -0.00000000    -1.26832020  0.44D-01  0.12D+00    74.55
    1     6     6     1.00000000     0.00000000-20884.16570205    -0.00000000    -1.26828196  0.44D-01  0.12D+00    74.55
    1     7     7     1.00000000     0.00000000-20884.16570205     0.00000000    -1.26826121  0.44D-01  0.12D+00    74.55
    1     8     8     1.00000000     0.00000000-20884.16570205     0.00000000    -1.26821176  0.44D-01  0.12D+00    74.55
    1     9     9     1.00000000     0.00000000-20884.16234813     0.00000000    -1.27205868  0.45D-01  0.12D+00    74.55
    1    10    10     1.00000000     0.00000000-20884.16234813     0.00000000    -1.27220492  0.45D-01  0.12D+00    74.55
    1    11    11     1.00000000     0.00000000-20884.16234813     0.00000000    -1.27217017  0.45D-01  0.12D+00    74.55
    1    12    12     1.00000000     0.00000000-20884.15894788    -0.00000000    -1.26938969  0.44D-01  0.12D+00    74.55
    2     1     1     1.10422339    -0.98627419-20885.32536150    -0.98627419    -0.03594547  0.45D-02  0.29D-02  1442.28
    2     2     2     1.10431577    -0.98615139-20885.32523870    -0.98615139    -0.03608097  0.46D-02  0.29D-02  1442.28
    2     3     3     1.10442550    -0.98601776-20885.32510508    -0.98601776    -0.03622488  0.47D-02  0.29D-02  1442.28
    2     4     4     1.09702035    -0.98142977-20885.14713182    -0.98142977    -0.02938317  0.33D-02  0.20D-02  1442.28
    2     5     5     1.09703092    -0.98141914-20885.14712120    -0.98141914    -0.02939506  0.33D-02  0.20D-02  1442.28
    2     6     6     1.09703339    -0.98141593-20885.14711799    -0.98141593    -0.02940118  0.33D-02  0.20D-02  1442.28
    2     7     7     1.09704710    -0.98140079-20885.14710285    -0.98140079    -0.02941538  0.33D-02  0.20D-02  1442.28
    2     8     8     1.09705438    -0.98139582-20885.14709787    -0.98139582    -0.02941816  0.33D-02  0.20D-02  1442.28
    2     9     9     1.09759171    -0.98126158-20885.14360972    -0.98126158    -0.03047892  0.39D-02  0.20D-02  1442.28
    2    10    10     1.09762734    -0.98121231-20885.14356045    -0.98121231    -0.03053821  0.39D-02  0.20D-02  1442.28
    2    11    11     1.09764870    -0.98118700-20885.14353513    -0.98118700    -0.03056522  0.39D-02  0.20D-02  1442.28
    2    12    12     1.09776757    -0.98145805-20885.14040592    -0.98145805    -0.02982248  0.34D-02  0.22D-02  1442.28
    3     1     1     1.08689404    -1.01938131-20885.35846863    -0.03310712    -0.00234630  0.52D-04  0.76D-04  2812.94
    3     2     2     1.08688947    -1.01937910-20885.35846642    -0.03322771    -0.00234708  0.52D-04  0.76D-04  2812.94
    3     3     3     1.08688390    -1.01937703-20885.35846434    -0.03335927    -0.00234802  0.53D-04  0.76D-04  2812.94
    3     4     4     1.08436824    -1.00856511-20885.17426716    -0.02713534    -0.00239644  0.43D-04  0.64D-04  2812.94
    3     5     5     1.08436880    -1.00856484-20885.17426690    -0.02714570    -0.00239613  0.43D-04  0.64D-04  2812.94
    3     6     6     1.08436750    -1.00856476-20885.17426681    -0.02714883    -0.00239631  0.43D-04  0.64D-04  2812.94
    3     7     7     1.08436766    -1.00856476-20885.17426681    -0.02716396    -0.00239604  0.43D-04  0.64D-04  2812.94
    3     8     8     1.08436995    -1.00856464-20885.17426670    -0.02716882    -0.00239574  0.43D-04  0.64D-04  2812.94
    3     9     9     1.08429750    -1.00934855-20885.17169669    -0.02808697    -0.00240804  0.46D-04  0.68D-04  2812.94
    3    10    10     1.08429685    -1.00934783-20885.17169596    -0.02813552    -0.00240763  0.46D-04  0.69D-04  2812.94
    3    11    11     1.08429570    -1.00934759-20885.17169572    -0.02816059    -0.00240757  0.46D-04  0.69D-04  2812.94
    3    12    12     1.08460175    -1.00901413-20885.16796201    -0.02755608    -0.00239695  0.39D-04  0.68D-04  2812.94
    4     1     1     1.08671811    -1.01982218-20885.35890950    -0.00044087    -0.00040749  0.33D-04  0.31D-04  4180.23
    4     2     2     1.08671409    -1.01982060-20885.35890792    -0.00044150    -0.00041013  0.33D-04  0.32D-04  4180.23
    4     3     3     1.08670921    -1.01981913-20885.35890645    -0.00044211    -0.00041249  0.33D-04  0.32D-04  4180.23
    4     4     4     1.08421233    -1.00899611-20885.17469817    -0.00043100    -0.00031043  0.28D-04  0.20D-04  4180.23
    4     5     5     1.08421297    -1.00899586-20885.17469791    -0.00043102    -0.00031080  0.28D-04  0.20D-04  4180.23
    4     6     6     1.08421206    -1.00899581-20885.17469786    -0.00043105    -0.00031085  0.28D-04  0.20D-04  4180.23
    4     7     7     1.08421202    -1.00899578-20885.17469784    -0.00043103    -0.00031093  0.28D-04  0.20D-04  4180.23
    4     8     8     1.08421389    -1.00899565-20885.17469771    -0.00043101    -0.00031106  0.28D-04  0.20D-04  4180.23
    4     9     9     1.08414592    -1.00978778-20885.17213592    -0.00043923    -0.00034416  0.29D-04  0.24D-04  4180.23
    4    10    10     1.08414533    -1.00978718-20885.17213532    -0.00043935    -0.00034515  0.29D-04  0.24D-04  4180.23
    4    11    11     1.08414434    -1.00978699-20885.17213512    -0.00043940    -0.00034546  0.29D-04  0.24D-04  4180.23
    4    12    12     1.08444406    -1.00944587-20885.16839375    -0.00043174    -0.00031407  0.25D-04  0.23D-04  4180.23
    5     1     1     1.08685400    -1.02013659-20885.35922391    -0.00031441    -0.00007052  0.27D-05  0.13D-05  5549.98
    5     2     2     1.08685405    -1.02013657-20885.35922389    -0.00031597    -0.00007044  0.27D-05  0.13D-05  5549.98
    5     3     3     1.08685392    -1.02013657-20885.35922388    -0.00031743    -0.00007038  0.27D-05  0.13D-05  5549.98
    5     4     4     1.08432080    -1.00923739-20885.17493944    -0.00024128    -0.00007046  0.19D-05  0.13D-05  5549.98
    5     5     5     1.08432138    -1.00923738-20885.17493944    -0.00024152    -0.00007045  0.19D-05  0.13D-05  5549.98
    5     6     6     1.08432141    -1.00923738-20885.17493943    -0.00024157    -0.00007046  0.19D-05  0.13D-05  5549.98
    5     7     7     1.08432130    -1.00923737-20885.17493943    -0.00024159    -0.00007047  0.19D-05  0.13D-05  5549.98
    5     8     8     1.08432183    -1.00923737-20885.17493942    -0.00024172    -0.00007046  0.19D-05  0.13D-05  5549.98
    5     9     9     1.08428004    -1.01005244-20885.17240057    -0.00026465    -0.00007116  0.26D-05  0.13D-05  5549.98
    5    10    10     1.08428004    -1.01005243-20885.17240057    -0.00026525    -0.00007118  0.26D-05  0.13D-05  5549.98
    5    11    11     1.08427983    -1.01005243-20885.17240056    -0.00026544    -0.00007124  0.26D-05  0.13D-05  5549.98
    5    12    12     1.08455743    -1.00968883-20885.16863671    -0.00024296    -0.00006977  0.18D-05  0.14D-05  5549.98
    6     1     1     1.08681782    -1.02014992-20885.35923724    -0.00001333    -0.00000867  0.18D-05  0.43D-06  6919.51
    6     2     2     1.08681781    -1.02014989-20885.35923721    -0.00001333    -0.00000871  0.18D-05  0.43D-06  6919.51
    6     3     3     1.08681766    -1.02014988-20885.35923720    -0.00001332    -0.00000872  0.18D-05  0.43D-06  6919.51
    6     4     4     1.08430056    -1.00925062-20885.17495268    -0.00001323    -0.00000778  0.13D-05  0.38D-06  6919.51
    6     5     5     1.08430102    -1.00925061-20885.17495267    -0.00001323    -0.00000779  0.13D-05  0.39D-06  6919.51
    6     6     6     1.08430103    -1.00925061-20885.17495267    -0.00001323    -0.00000779  0.13D-05  0.39D-06  6919.51
    6     7     7     1.08430094    -1.00925061-20885.17495266    -0.00001324    -0.00000779  0.13D-05  0.39D-06  6919.51
    6     8     8     1.08430136    -1.00925060-20885.17495266    -0.00001324    -0.00000780  0.13D-05  0.39D-06  6919.51
    6     9     9     1.08425861    -1.01006598-20885.17241412    -0.00001355    -0.00000889  0.17D-05  0.42D-06  6919.51
    6    10    10     1.08425876    -1.01006598-20885.17241411    -0.00001354    -0.00000890  0.17D-05  0.42D-06  6919.51
    6    11    11     1.08425876    -1.01006598-20885.17241411    -0.00001354    -0.00000890  0.17D-05  0.42D-06  6919.51
    6    12    12     1.08453708    -1.00970193-20885.16864981    -0.00001310    -0.00000768  0.12D-05  0.43D-06  6919.51
    7     1     1     1.08668327    -1.02015561-20885.35924293    -0.00000569    -0.00000745  0.19D-06  0.18D-06  8288.64
    7     2     2     1.08668386    -1.02015560-20885.35924292    -0.00000571    -0.00000748  0.19D-06  0.18D-06  8288.64
    7     3     3     1.08668450    -1.02015559-20885.35924291    -0.00000571    -0.00000750  0.19D-06  0.18D-06  8288.64
    7     4     4     1.08422416    -1.00925514-20885.17495719    -0.00000452    -0.00000760  0.20D-06  0.20D-06  8288.64
    7     5     5     1.08422404    -1.00925514-20885.17495719    -0.00000452    -0.00000760  0.20D-06  0.20D-06  8288.64
    7     6     6     1.08422420    -1.00925513-20885.17495719    -0.00000452    -0.00000760  0.20D-06  0.20D-06  8288.64
    7     7     7     1.08422427    -1.00925513-20885.17495719    -0.00000452    -0.00000761  0.20D-06  0.20D-06  8288.64
    7     8     8     1.08422418    -1.00925513-20885.17495719    -0.00000453    -0.00000760  0.20D-06  0.20D-06  8288.64
    7     9     9     1.08417480    -1.01007141-20885.17241954    -0.00000542    -0.00000810  0.22D-06  0.21D-06  8288.64
    7    10    10     1.08417487    -1.01007141-20885.17241954    -0.00000543    -0.00000810  0.22D-06  0.21D-06  8288.64
    7    11    11     1.08417505    -1.01007140-20885.17241953    -0.00000542    -0.00000811  0.22D-06  0.21D-06  8288.64
    7    12    12     1.08445986    -1.00970641-20885.16865429    -0.00000448    -0.00000746  0.18D-06  0.20D-06  8288.64
    8     1     1     1.08666138    -1.02015700-20885.35924432    -0.00000139    -0.00000091  0.70D-07  0.34D-07  9654.66
    8     2     2     1.08666174    -1.02015699-20885.35924431    -0.00000139    -0.00000091  0.70D-07  0.34D-07  9654.66
    8     3     3     1.08666204    -1.02015699-20885.35924431    -0.00000140    -0.00000092  0.71D-07  0.34D-07  9654.66
    8     4     4     1.08420185    -1.00925668-20885.17495874    -0.00000155    -0.00000122  0.67D-07  0.38D-07  9654.66
    8     5     5     1.08420176    -1.00925668-20885.17495874    -0.00000155    -0.00000122  0.67D-07  0.38D-07  9654.66
    8     6     6     1.08420188    -1.00925668-20885.17495874    -0.00000155    -0.00000122  0.67D-07  0.38D-07  9654.66
    8     7     7     1.08420192    -1.00925668-20885.17495874    -0.00000155    -0.00000122  0.67D-07  0.38D-07  9654.66
    8     8     8     1.08420187    -1.00925668-20885.17495874    -0.00000155    -0.00000122  0.67D-07  0.38D-07  9654.66
    8     9     9     1.08415686    -1.01007297-20885.17242111    -0.00000157    -0.00000116  0.80D-07  0.41D-07  9654.66
    8    10    10     1.08415691    -1.01007297-20885.17242110    -0.00000157    -0.00000116  0.80D-07  0.41D-07  9654.66
    8    11    11     1.08415700    -1.01007297-20885.17242110    -0.00000157    -0.00000116  0.80D-07  0.41D-07  9654.66
    8    12    12     1.08443781    -1.00970792-20885.16865580    -0.00000151    -0.00000118  0.59D-07  0.40D-07  9654.66
    9     1     1     1.08666165    -1.02015721-20885.35924453    -0.00000021    -0.00000031  0.45D-07  0.18D-07 11023.77
    9     2     2     1.08666192    -1.02015721-20885.35924452    -0.00000021    -0.00000031  0.45D-07  0.18D-07 11023.77
    9     3     3     1.08666215    -1.02015721-20885.35924452    -0.00000021    -0.00000031  0.46D-07  0.18D-07 11023.77
    9     4     4     1.08420044    -1.00925694-20885.17495900    -0.00000026    -0.00000030  0.44D-07  0.19D-07 11023.77
    9     5     5     1.08420051    -1.00925694-20885.17495899    -0.00000026    -0.00000030  0.44D-07  0.19D-07 11023.77
    9     6     6     1.08420053    -1.00925694-20885.17495899    -0.00000026    -0.00000030  0.44D-07  0.19D-07 11023.77
    9     7     7     1.08420052    -1.00925694-20885.17495899    -0.00000026    -0.00000030  0.44D-07  0.19D-07 11023.77
    9     8     8     1.08420057    -1.00925694-20885.17495899    -0.00000026    -0.00000030  0.45D-07  0.19D-07 11023.77
    9     9     9     1.08415624    -1.01007323-20885.17242137    -0.00000026    -0.00000036  0.52D-07  0.22D-07 11023.77
    9    10    10     1.08415628    -1.01007323-20885.17242136    -0.00000026    -0.00000036  0.52D-07  0.22D-07 11023.77
    9    11    11     1.08415635    -1.01007323-20885.17242136    -0.00000026    -0.00000036  0.52D-07  0.22D-07 11023.77
    9    12    12     1.08443654    -1.00970817-20885.16865605    -0.00000025    -0.00000030  0.39D-07  0.20D-07 11023.77
   10     1     1     1.08666282    -1.02015738-20885.35924470    -0.00000018    -0.00000029  0.72D-08  0.70D-08 12391.35
   10     2     2     1.08666289    -1.02015738-20885.35924470    -0.00000018    -0.00000029  0.72D-08  0.70D-08 12391.35
   10     3     3     1.08666294    -1.02015738-20885.35924470    -0.00000018    -0.00000029  0.73D-08  0.70D-08 12391.35
   10     4     4     1.08419802    -1.00925711-20885.17495917    -0.00000017    -0.00000034  0.82D-08  0.88D-08 12391.35
   10     5     5     1.08419799    -1.00925711-20885.17495917    -0.00000017    -0.00000034  0.82D-08  0.88D-08 12391.35
   10     6     6     1.08419803    -1.00925711-20885.17495917    -0.00000017    -0.00000034  0.82D-08  0.88D-08 12391.35
   10     7     7     1.08419805    -1.00925711-20885.17495917    -0.00000017    -0.00000034  0.82D-08  0.88D-08 12391.35
   10     8     8     1.08419803    -1.00925711-20885.17495917    -0.00000017    -0.00000034  0.82D-08  0.88D-08 12391.35
   10     9     9     1.08415546    -1.01007343-20885.17242157    -0.00000020    -0.00000036  0.93D-08  0.94D-08 12391.35
   10    10    10     1.08415547    -1.01007343-20885.17242157    -0.00000020    -0.00000037  0.93D-08  0.94D-08 12391.35
   10    11    11     1.08415547    -1.01007343-20885.17242156    -0.00000020    -0.00000037  0.93D-08  0.94D-08 12391.35
   10    12    12     1.08443421    -1.00970834-20885.16865622    -0.00000017    -0.00000033  0.74D-08  0.88D-08 12391.35
   11     1     1     1.08666259    -1.02015744-20885.35924475    -0.00000005    -0.00000004  0.38D-08  0.14D-08 13759.89
   11     2     2     1.08666264    -1.02015743-20885.35924475    -0.00000005    -0.00000004  0.38D-08  0.14D-08 13759.89
   11     3     3     1.08666268    -1.02015743-20885.35924475    -0.00000005    -0.00000004  0.38D-08  0.14D-08 13759.89
   11     4     4     1.08419744    -1.00925718-20885.17495923    -0.00000006    -0.00000006  0.37D-08  0.19D-08 13759.89
   11     5     5     1.08419742    -1.00925718-20885.17495923    -0.00000006    -0.00000006  0.36D-08  0.19D-08 13759.89
   11     6     6     1.08419745    -1.00925718-20885.17495923    -0.00000006    -0.00000006  0.37D-08  0.19D-08 13759.89
   11     7     7     1.08419746    -1.00925718-20885.17495923    -0.00000006    -0.00000006  0.37D-08  0.19D-08 13759.89
   11     8     8     1.08419745    -1.00925718-20885.17495923    -0.00000006    -0.00000006  0.37D-08  0.19D-08 13759.89
   11     9     9     1.08415526    -1.01007350-20885.17242163    -0.00000007    -0.00000005  0.47D-08  0.20D-08 13759.89
   11    10    10     1.08415527    -1.01007350-20885.17242163    -0.00000007    -0.00000005  0.47D-08  0.20D-08 13759.89
   11    11    11     1.08415526    -1.01007350-20885.17242163    -0.00000007    -0.00000005  0.47D-08  0.20D-08 13759.89
   11    12    12     1.08443368    -1.00970841-20885.16865628    -0.00000006    -0.00000005  0.33D-08  0.19D-08 13759.89


 =====================================
 Analysis of CPU times by interactions
 =====================================

       I      S      P

 I   0.7%
 S   0.4%  56.7%
 P   0.4%  18.7%   7.0%

 Initialization:   0.5%
 Other:           15.8%

 Total CPU:    13759.9 seconds
 =====================================



 Wavefunction saved on  5201.2

 Reference coefficients greater than 0.0500000
 =============================================
 22222222222222222//0000           0.9577931   0.0000000  -0.0000000  -0.0000000   0.0000000  -0.0000000   0.0000000  -0.0000000
                                  -0.0349051  -0.0000000   0.0000000   0.0000000
 22222222222222222/0/000          -0.0000000   0.9577930  -0.0000000  -0.0000000   0.0000000   0.0000000  -0.0000000  -0.0000000
                                  -0.0000000  -0.0349051   0.0000000  -0.0000000
 222222222222222220//000           0.0000000   0.0000000   0.9577930   0.0000000   0.0000000  -0.0000000   0.0000000   0.0000000
                                   0.0000000  -0.0000000   0.0349051   0.0000000
 2222222222222222200/00/          -0.0000000   0.0000000  -0.0000000   0.0000000  -0.0615463  -0.0000000   0.0000000   0.7806194
                                   0.0000000  -0.0000000   0.0000000   0.5536242
 22222222222222222/00/00          -0.0000000  -0.0000000  -0.0000000   0.0000000   0.7068093  -0.0000000  -0.0000000  -0.3370092
                                  -0.0000000  -0.0000000  -0.0000000   0.5536242
 222222222222222220/000/          -0.0000000  -0.0000000  -0.0253949   0.0000000   0.0000000   0.0000000   0.6781343  -0.0000000
                                   0.0000000  -0.0000000   0.6716558   0.0000000
 22222222222222222/0000/           0.0000000  -0.0253949   0.0000000   0.0000000   0.0000000   0.6781343  -0.0000000   0.0000000
                                   0.0000000  -0.6716559  -0.0000000   0.0000000
 222222222222222220/0/00           0.0253949   0.0000000  -0.0000000   0.6781342   0.0000000  -0.0000000  -0.0000000  -0.0000000
                                   0.6716559  -0.0000000  -0.0000000  -0.0000000
 22222222222222222/000/0          -0.0253949  -0.0000000   0.0000000   0.6781341  -0.0000000  -0.0000000  -0.0000000  -0.0000000
                                  -0.6716560  -0.0000000  -0.0000000   0.0000000
 2222222222222222200//00           0.0000000   0.0253949   0.0000000   0.0000000  -0.0000000   0.6781341  -0.0000000   0.0000000
                                  -0.0000000   0.6716560  -0.0000000   0.0000000
 2222222222222222200/0/0           0.0000000   0.0000000   0.0253949   0.0000000   0.0000000   0.0000000   0.6781340  -0.0000000
                                   0.0000000  -0.0000000  -0.6716561  -0.0000000
 222222222222222220/00/0           0.0000000   0.0000000   0.0000000  -0.0000000  -0.6452632  -0.0000000   0.0000000  -0.4436104
                                   0.0000000  -0.0000000  -0.0000000   0.5536241
 22222222222222222000//0          -0.0092734   0.0000000  -0.0000000  -0.0000000   0.0000000  -0.0000000  -0.0000000   0.0000000
                                   0.1280231   0.0000000  -0.0000000  -0.0000000
 22222222222222222000/0/           0.0000000  -0.0092734   0.0000000   0.0000000  -0.0000000  -0.0000000   0.0000000   0.0000000
                                  -0.0000000   0.1280231   0.0000000   0.0000000
 222222222222222220000//           0.0000000   0.0000000  -0.0092734  -0.0000000  -0.0000000  -0.0000000  -0.0000000   0.0000000
                                  -0.0000000   0.0000000  -0.1280231  -0.0000000

 Coefficients of fixed reference functions:
 ==========================================

 State      Coefficients
 1          -0.000000    0.958128    0.000000    0.000000   -0.000000    0.000000    0.000000   -0.000000   -0.000000    0.027101
            -0.000000   -0.000000
 2           0.958128    0.000000    0.000000    0.000000    0.000000    0.000000    0.000000   -0.000000   -0.000000    0.000000
             0.027101    0.000000
 3          -0.000000   -0.000000    0.958128    0.000000    0.000000   -0.000000    0.000000    0.000000   -0.027101   -0.000000
             0.000000   -0.000000
 4          -0.000000   -0.000000    0.000000   -0.000000    0.000000    0.959027    0.000000    0.000000    0.000000   -0.000000
             0.000000   -0.000000
 5           0.000000    0.000000    0.000000   -0.723973    0.000000   -0.000000   -0.000000    0.628964    0.000000    0.000000
            -0.000000    0.000000
 6           0.000000   -0.000000   -0.000000    0.000000    0.000000   -0.000000    0.959027    0.000000    0.000000   -0.000000
            -0.000000   -0.000000
 7          -0.000000    0.000000    0.000000    0.000000    0.959027   -0.000000   -0.000000   -0.000000    0.000000   -0.000000
             0.000000    0.000000
 8          -0.000000   -0.000000    0.000000   -0.628964   -0.000000   -0.000000    0.000000   -0.723973   -0.000000    0.000000
             0.000000   -0.000000
 9          -0.000000   -0.027644    0.000000    0.000000    0.000000   -0.000000    0.000000   -0.000000    0.000000    0.958684
            -0.000000    0.000000
 10         -0.027644   -0.000000   -0.000000    0.000000   -0.000000   -0.000000    0.000000    0.000000   -0.000000    0.000000
             0.958684   -0.000000
 11          0.000000    0.000000    0.027644   -0.000000   -0.000000   -0.000000   -0.000000   -0.000000    0.958684   -0.000000
             0.000000   -0.000000
 12         -0.000000    0.000000    0.000000   -0.000000   -0.000000    0.000000    0.000000   -0.000000    0.000000   -0.000000
             0.000000    0.958905

 Coefficients of rotated reference functions:
 ============================================

 State      Coefficients
 1           0.958511   -0.000000    0.000000    0.000000   -0.000000    0.000000    0.000000   -0.000000   -0.000263    0.000000
            -0.000000    0.000000
 2          -0.000000    0.958511   -0.000000   -0.000000   -0.000000    0.000000   -0.000000   -0.000000   -0.000000   -0.000263
            -0.000000   -0.000000
 3           0.000000   -0.000000    0.958511    0.000000    0.000000    0.000000    0.000000   -0.000000    0.000000    0.000000
             0.000263    0.000000
 4           0.000000   -0.000000    0.000000    0.959027   -0.000000    0.000000    0.000000   -0.000000   -0.000000    0.000000
             0.000000    0.000000
 5          -0.000000   -0.000000    0.000000   -0.000000    0.959027    0.000000    0.000000   -0.000000    0.000000   -0.000000
             0.000000    0.000000
 6           0.000000    0.000000    0.000000    0.000000    0.000000    0.959027    0.000000    0.000000    0.000000   -0.000000
            -0.000000    0.000000
 7           0.000000   -0.000000    0.000000    0.000000    0.000000    0.000000    0.959027   -0.000000   -0.000000    0.000000
             0.000000   -0.000000
 8          -0.000000   -0.000000   -0.000000   -0.000000   -0.000000    0.000000   -0.000000    0.959027   -0.000000    0.000000
             0.000000   -0.000000
 9          -0.000263   -0.000000    0.000000   -0.000000    0.000000    0.000000   -0.000000   -0.000000    0.959083    0.000000
             0.000000   -0.000000
 10          0.000000   -0.000263    0.000000    0.000000   -0.000000   -0.000000    0.000000    0.000000    0.000000    0.959083
            -0.000000    0.000000
 11         -0.000000   -0.000000    0.000263    0.000000    0.000000   -0.000000    0.000000    0.000000    0.000000   -0.000000
             0.959083    0.000000
 12          0.000000   -0.000000    0.000000    0.000000    0.000000    0.000000   -0.000000   -0.000000   -0.000000    0.000000
             0.000000    0.958905


 RESULTS FOR STATE 1.1
 =====================

 Maximum overlap with reference state  2

 Coefficient of reference function:   C(0) = 0.95812779 (fixed)   0.95851100 (relaxed)   0.95851095 (rotated)

 Energy contributions of configuration classes

 CLASS          SQ.NORM        ECORR1        ECORR2
 +++++++++++++++++++++++++++++++++++++++++++++++++++
 Internals    0.00163877   -0.00384236   -0.88743209
 Singles      0.01325393   -0.05590965   -0.06378810
 Pairs        0.07355068    0.00000000   -0.06893725
 Total        1.08844338   -0.05975201   -1.02015744
 +++++++++++++++++++++++++++++++++++++++++++++++++++


 Reference energy                  -20884.33894327
 Nuclear energy                         0.00000000
 Kinetic energy                     32689.05256610
 One electron energy               -28576.99988675
 Two electron energy                 7691.64064199
 Virial quotient                       -0.63890990
 Correlation energy                    -1.02030148
 !MRCI STATE 1.1 Energy              -20885.3592447530    

 Properties without orbital relaxation:

 !MRCI STATE 1.1 Dipole moment          0.00000000     0.00000000     0.00000000
 Dipole moment /Debye                   0.00000000     0.00000000     0.00000000

 Cluster corrected energies        -20885.44948367 (Davidson, fixed reference)
 Cluster corrected energies        -20885.44948355 (Davidson, relaxed reference)
 Cluster corrected energies        -20885.44948367 (Davidson, rotated reference)

 Cluster corrected energies        -20885.45131746 (Pople, fixed reference)
 Cluster corrected energies        -20885.45131734 (Pople, relaxed reference)
 Cluster corrected energies        -20885.45131746 (Pople, rotated reference)



 RESULTS FOR STATE 2.1
 =====================

 Maximum overlap with reference state  1

 Coefficient of reference function:   C(0) = 0.95812777 (fixed)   0.95851098 (relaxed)   0.95851093 (rotated)

 Energy contributions of configuration classes

 CLASS          SQ.NORM        ECORR1        ECORR2
 +++++++++++++++++++++++++++++++++++++++++++++++++++
 Internals    0.00163876   -0.00384236   -0.88743199
 Singles      0.01325400   -0.05590971   -0.06378817
 Pairs        0.07355066   -0.00000000   -0.06893728
 Total        1.08844343   -0.05975207   -1.02015743
 +++++++++++++++++++++++++++++++++++++++++++++++++++


 Reference energy                  -20884.33894327
 Nuclear energy                         0.00000000
 Kinetic energy                     32689.05256753
 One electron energy               -28576.99988829
 Two electron energy                 7691.64064353
 Virial quotient                       -0.63890990
 Correlation energy                    -1.02030148
 !MRCI STATE 2.1 Energy              -20885.3592447520    

 Properties without orbital relaxation:

 !MRCI STATE 2.1 Dipole moment          0.00000000     0.00000000     0.00000000
 Dipole moment /Debye                   0.00000000     0.00000000     0.00000000

[...]
 19  1     7    1  |1 0>          0.00%    0.00%    0.00%    0.00%    0.01%    0.00%    0.00%    7.42%
 20  1     8    1  |1 0>          0.00%    0.00%    0.00%    0.00%    0.00%    0.00%    0.00%    7.30%
 21  1     9    1  |1 0>          0.00%    0.17%    0.01%    0.03%    0.02%    0.03%    0.02%    0.00%
 22  1    10    1  |1 0>          0.00%    0.01%    0.02%    0.09%    0.07%    0.00%    0.00%    4.74%
 23  1    11    1  |1 0>          0.00%    0.04%    0.00%    0.02%    0.07%    0.05%    0.00%    4.46%
 24  1    12    1  |1 0>          0.00%    0.00%    0.00%    0.00%    0.00%    0.00%    0.00%    1.40%
 25  1     1    1  |1 1>-         0.04%    6.19%    0.39%    3.00%   10.02%    6.39%    0.00%    0.05%
 26  1     2    1  |1 1>-         9.91%    0.07%    6.92%    2.39%    4.86%   11.75%    0.00%    0.04%
 27  1     3    1  |1 1>-        11.44%    3.09%   19.87%    2.36%    0.48%    8.85%    5.99%    0.00%
 28  1     4    1  |1 1>-         0.00%    0.00%    0.00%    0.00%    0.01%    0.00%    0.00%    7.42%
 29  1     5    1  |1 1>-         0.00%    0.00%    0.00%    0.01%    0.00%    0.00%    0.00%    8.57%
 30  1     6    1  |1 1>-         0.11%    0.00%    0.00%    0.00%    0.00%    0.01%    0.00%    5.51%
 31  1     7    1  |1 1>-         0.21%    0.05%    0.00%    0.02%    0.00%    0.00%    0.00%    0.00%
 32  1     8    1  |1 1>-         0.01%    0.00%    0.00%    0.03%    0.02%    0.00%    0.00%    1.95%
 33  1     9    1  |1 1>-         0.00%    0.04%    0.00%    0.02%    0.07%    0.05%    0.00%    4.46%
 34  1    10    1  |1 1>-         0.00%    0.00%    0.05%    0.02%    0.04%    0.08%    0.00%    3.31%
 35  1    11    1  |1 1>-         0.00%    0.02%    0.14%    0.02%    0.00%    0.06%    0.02%    0.00%
 36  1    12    1  |1 1>-         0.00%    0.00%    0.00%    0.00%    0.00%    0.00%    0.00%    2.00%
 37  1     1    1  |0 0>         21.36%    0.14%   12.65%    4.37%    8.89%   21.49%    0.00%    0.00%
 38  1     2    1  |0 0>          0.69%    2.32%    3.87%   23.86%   16.72%    0.76%    0.00%    0.00%
 39  1     3    1  |0 0>          0.10%   11.32%    0.72%    5.49%   18.33%   11.68%    0.00%    0.00%
 40  1     4    1  |0 0>         19.42%    3.52%   27.85%    3.52%    0.58%   12.07%    0.00%    0.00%
 41  1     5    1  |0 0>          9.48%   30.24%    2.45%   10.30%    3.02%    1.53%    0.00%    0.00%
 42  1     6    1  |0 0>          0.00%    0.00%    0.00%    0.00%    0.00%    0.00%   81.95%    0.00%

   Total
 Nr Sym  State Sym Spin / Nr.     17       18       19       20       21       22       23       24

  1  1     1    1  |1 1>+         0.03%    0.06%    0.00%    0.00%    0.00%    0.00%    0.02%    0.12%
  2  1     2    1  |1 1>+         0.00%    0.00%    0.06%    0.00%    0.00%    0.00%    0.13%    0.00%
  3  1     3    1  |1 1>+         0.10%    0.00%    0.00%    0.00%    0.00%    0.00%    0.13%    0.03%
  4  1     4    1  |1 1>+         3.91%    9.01%    0.00%    3.67%    0.25%    4.59%    0.65%    4.97%
  5  1     5    1  |1 1>+         1.58%   10.55%    0.00%    4.04%    0.21%    3.46%    1.44%    7.44%
  6  1     6    1  |1 1>+         0.00%    0.00%    0.00%    0.00%    0.00%    0.00%    7.63%    3.16%
  7  1     7    1  |1 1>+        15.16%    0.15%    0.00%    0.38%    8.03%    0.11%    5.31%    1.29%
  8  1     8    1  |1 1>+         0.74%    4.99%    0.00%    1.91%    0.10%    1.63%    3.05%   15.74%
  9  1     9    1  |1 1>+         2.35%    5.42%    0.00%    8.40%    0.58%   10.49%    0.53%    4.05%
 10  1    10    1  |1 1>+         0.00%    0.00%   33.19%    0.00%    0.00%    0.00%    4.28%    0.09%
 11  1    11    1  |1 1>+         9.12%    0.09%    0.00%    0.87%   18.36%    0.25%    4.33%    1.05%
 12  1    12    1  |1 1>+         0.44%    2.96%    0.00%   17.09%    0.91%   14.64%    0.00%    0.00%
 13  1     1    1  |1 0>          0.00%    0.00%    0.06%    0.00%    0.00%    0.00%    0.01%    0.02%
 14  1     2    1  |1 0>          0.03%    0.06%    0.00%    0.00%    0.00%    0.00%    0.02%    0.12%
 15  1     3    1  |1 0>          0.01%    0.08%    0.00%    0.00%    0.00%    0.00%    0.03%    0.14%
 16  1     4    1  |1 0>          0.00%    0.00%    0.00%    0.00%    0.00%    0.00%   22.67%    0.63%
 17  1     5    1  |1 0>          0.12%    0.00%    0.00%    0.00%    0.07%    0.00%   21.13%    5.13%
 18  1     6    1  |1 0>          3.91%    9.01%    0.00%    3.68%    0.26%    4.59%    0.65%    4.97%
 19  1     7    1  |1 0>          1.74%   11.65%    0.00%    4.46%    0.24%    3.82%    1.12%    5.80%
 20  1     8    1  |1 0>         20.09%    0.20%    0.00%    0.50%   10.64%    0.15%    0.13%    0.03%
 21  1     9    1  |1 0>          0.00%    0.00%   33.19%    0.00%    0.00%    0.00%    0.19%    0.78%
 22  1    10    1  |1 0>          2.35%    5.42%    0.00%    8.42%    0.58%   10.49%    0.53%    4.05%
 23  1    11    1  |1 0>          1.05%    7.01%    0.00%   10.21%    0.54%    8.74%    0.91%    4.72%
 24  1    12    1  |1 0>          3.85%    0.04%    0.00%    1.46%   30.75%    0.43%    0.00%    0.00%
 25  1     1    1  |1 1>-         0.01%    0.08%    0.00%    0.00%    0.00%    0.00%    0.03%    0.14%
 26  1     2    1  |1 1>-         0.10%    0.00%    0.00%    0.00%    0.00%    0.00%    0.13%    0.03%
 27  1     3    1  |1 1>-         0.00%    0.00%    0.06%    0.00%    0.00%    0.00%    0.15%    0.02%
 28  1     4    1  |1 1>-         1.74%   11.65%    0.00%    4.46%    0.24%    3.82%    1.12%    5.79%
 29  1     5    1  |1 1>-         4.25%    9.79%    0.00%    3.99%    0.28%    4.98%    0.48%    3.68%
 30  1     6    1  |1 1>-        15.16%    0.15%    0.00%    0.38%    8.03%    0.11%    5.31%    1.29%
 31  1     7    1  |1 1>-         0.00%    0.00%    0.00%    0.00%    0.00%    0.00%    4.76%    1.47%
 32  1     8    1  |1 1>-         0.97%    2.23%    0.00%    0.91%    0.06%    1.13%    2.12%   16.19%
 33  1     9    1  |1 1>-         1.05%    7.01%    0.00%   10.20%    0.54%    8.74%    0.91%    4.72%
 34  1    10    1  |1 1>-         9.12%    0.09%    0.00%    0.87%   18.36%    0.26%    4.33%    1.05%
 35  1    11    1  |1 1>-         0.00%    0.00%   33.19%    0.00%    0.00%    0.00%    5.05%    0.55%
 36  1    12    1  |1 1>-         0.99%    2.29%    0.00%   14.09%    0.98%   17.57%    0.00%    0.00%
 37  1     1    1  |0 0>          0.00%    0.00%    0.00%    0.00%    0.00%    0.00%    0.30%    0.07%
 38  1     2    1  |0 0>          0.00%    0.00%    0.00%    0.00%    0.00%    0.00%    0.04%    0.28%
 39  1     3    1  |0 0>          0.00%    0.00%    0.00%    0.00%    0.00%    0.00%    0.06%    0.32%
 40  1     4    1  |0 0>          0.00%    0.00%    0.00%    0.00%    0.00%    0.00%    0.27%    0.03%
 41  1     5    1  |0 0>          0.00%    0.00%    0.00%    0.00%    0.00%    0.00%    0.06%    0.02%
 42  1     6    1  |0 0>          0.00%    0.00%    0.24%    0.00%    0.00%    0.00%    0.00%    0.00%

   Total
 Nr Sym  State Sym Spin / Nr.     25       26       27       28       29       30       31       32

  1  1     1    1  |1 1>+         0.00%    0.16%    0.01%    0.14%    0.09%    0.04%    0.00%    0.00%
  2  1     2    1  |1 1>+         0.12%    0.01%    0.16%    0.00%    0.00%    0.00%    0.00%    0.01%
  3  1     3    1  |1 1>+         0.00%    0.03%    0.12%    0.00%    0.07%    0.19%    0.01%    0.00%
  4  1     4    1  |1 1>+         0.14%    6.71%    0.47%    0.30%    0.20%    0.08%    0.58%    0.46%
  5  1     5    1  |1 1>+         1.23%    5.55%    0.94%    0.25%    0.21%    0.06%    0.41%    1.44%
  6  1     6    1  |1 1>+        31.94%    0.96%    8.03%    0.00%    0.00%    0.00%    2.92%    2.42%
  7  1     7    1  |1 1>+         0.20%    1.32%    4.81%    0.01%    0.15%    0.43%    1.11%    0.12%
  8  1     8    1  |1 1>+         2.59%   11.74%    2.00%    0.12%    0.10%    0.03%    0.77%    2.95%
  9  1     9    1  |1 1>+         0.11%    5.47%    0.38%    9.26%    6.23%    2.55%    6.34%    4.90%
 10  1    10    1  |1 1>+         3.97%    0.38%    5.33%    0.00%    0.00%    0.00%    9.69%   17.12%
 11  1    11    1  |1 1>+         0.16%    1.07%    3.92%    0.18%    4.59%   13.22%   13.43%    1.89%
 12  1    12    1  |1 1>+         0.00%    0.00%    0.00%   29.22%   24.69%    7.65%    0.00%    0.00%
 13  1     1    1  |1 0>          0.37%    0.02%    0.01%    0.00%    0.00%    0.00%    0.00%    0.01%
 14  1     2    1  |1 0>          0.00%    0.16%    0.01%    0.14%    0.09%    0.04%    0.00%    0.00%
 15  1     3    1  |1 0>          0.02%    0.11%    0.02%    0.13%    0.11%    0.03%    0.00%    0.00%
 16  1     4    1  |1 0>          1.75%    0.28%   26.39%    0.00%    0.00%    0.00%    5.24%    1.66%
 17  1     5    1  |1 0>          0.78%    5.23%   19.13%    0.00%    0.00%    0.00%    4.92%    0.71%
 18  1     6    1  |1 0>          0.14%    6.70%    0.47%    0.30%    0.20%    0.08%    0.60%    0.52%
 19  1     7    1  |1 0>          0.95%    4.32%    0.73%    0.28%    0.24%    0.07%    0.32%    1.19%
 20  1     8    1  |1 0>          0.01%    0.03%    0.12%    0.01%    0.20%    0.57%    0.03%    0.01%
 21  1     9    1  |1 0>         12.17%    0.56%    0.34%    0.00%    0.00%    0.00%    2.44%   20.03%
 22  1    10    1  |1 0>          0.11%    5.46%    0.38%    9.28%    6.14%    2.51%    6.39%    4.93%
 23  1    11    1  |1 0>          0.78%    3.52%    0.60%    8.55%    7.16%    2.23%    3.41%   12.78%
 24  1    12    1  |1 0>          0.00%    0.00%    0.00%    0.61%   15.71%   45.25%    0.00%    0.00%
 25  1     1    1  |1 1>-         0.02%    0.11%    0.02%    0.13%    0.11%    0.03%    0.00%    0.00%
 26  1     2    1  |1 1>-         0.00%    0.03%    0.12%    0.00%    0.07%    0.19%    0.01%    0.00%
 27  1     3    1  |1 1>-         0.09%    0.00%    0.17%    0.00%    0.00%    0.00%    0.01%    0.00%
 28  1     4    1  |1 1>-         0.96%    4.33%    0.74%    0.27%    0.23%    0.07%    0.29%    1.16%
 29  1     5    1  |1 1>-         0.10%    4.97%    0.35%    0.32%    0.21%    0.09%    0.43%    0.34%
 30  1     6    1  |1 1>-         0.20%    1.31%    4.81%    0.01%    0.15%    0.42%    1.06%    0.16%
 31  1     7    1  |1 1>-        36.14%    2.27%    7.07%    0.00%    0.00%    0.00%    0.33%    6.33%
 32  1     8    1  |1 1>-         0.45%   21.85%    1.53%    0.07%    0.05%    0.02%    1.76%    1.29%
 33  1     9    1  |1 1>-         0.78%    3.53%    0.60%    8.53%    7.26%    2.25%    3.39%   12.71%
 34  1    10    1  |1 1>-         0.16%    1.07%    3.92%    0.18%    4.59%   13.22%   13.44%    1.87%
 35  1    11    1  |1 1>-         2.82%    0.02%    5.59%    0.00%    0.00%    0.00%   19.99%    2.28%
 36  1    12    1  |1 1>-         0.00%    0.00%    0.00%   31.73%   21.17%    8.66%    0.00%    0.00%
 37  1     1    1  |0 0>          0.01%    0.07%    0.27%    0.00%    0.00%    0.00%    0.23%    0.03%
 38  1     2    1  |0 0>          0.01%    0.38%    0.03%    0.00%    0.00%    0.00%    0.11%    0.09%
 39  1     3    1  |0 0>          0.05%    0.24%    0.04%    0.00%    0.00%    0.00%    0.06%    0.22%
 40  1     4    1  |0 0>          0.13%    0.00%    0.30%    0.00%    0.00%    0.00%    0.27%    0.03%
 41  1     5    1  |0 0>          0.52%    0.03%    0.09%    0.00%    0.00%    0.00%    0.02%    0.32%
 42  1     6    1  |0 0>          0.00%    0.00%    0.00%    0.00%    0.00%    0.00%    0.00%    0.00%

   Total
 Nr Sym  State Sym Spin / Nr.     33       34       35       36       37       38       39       40

  1  1     1    1  |1 1>+         0.01%    0.00%    0.00%    0.00%    0.00%    0.00%    0.00%    0.00%
  2  1     2    1  |1 1>+         0.00%    0.00%    0.00%    0.00%    0.00%    0.00%    0.00%    0.00%
  3  1     3    1  |1 1>+         0.00%    0.00%    0.00%    0.00%    0.00%    0.00%    0.00%    0.00%
  4  1     4    1  |1 1>+         1.34%    0.10%    1.00%   10.07%   12.86%    2.58%    3.40%    5.59%
  5  1     5    1  |1 1>+         0.42%    1.40%    0.75%   15.18%    9.00%    0.38%    0.61%    0.40%
  6  1     6    1  |1 1>+         0.51%    6.09%    1.74%    5.82%    6.91%    3.29%    2.82%    2.09%
  7  1     7    1  |1 1>+         1.09%    0.34%    0.70%    0.22%    4.74%   10.46%    0.88%   18.90%
  8  1     8    1  |1 1>+         0.98%    2.91%    1.64%    1.30%    3.18%    4.85%   17.93%    8.39%
  9  1     9    1  |1 1>+        15.30%    1.28%   11.38%    0.00%    0.00%    0.00%    0.00%    0.00%
 10  1    10    1  |1 1>+         8.51%    5.63%   11.41%    0.00%    0.00%    0.00%    0.00%    0.00%
 11  1    11    1  |1 1>+        12.17%    3.99%    7.79%    0.00%    0.00%    0.00%    0.00%    0.00%
 12  1    12    1  |1 1>+         0.00%    0.00%    0.00%    0.00%    0.00%    0.00%    0.00%    0.00%
 13  1     1    1  |1 0>          0.00%    0.01%    0.00%    0.00%    0.00%    0.00%    0.00%    0.00%
 14  1     2    1  |1 0>          0.01%    0.00%    0.00%    0.00%    0.00%    0.00%    0.00%    0.00%
 15  1     3    1  |1 0>          0.00%    0.00%    0.00%    0.00%    0.00%    0.00%    0.00%    0.00%
 16  1     4    1  |1 0>          2.25%    0.35%    4.62%    5.48%    6.91%    3.26%    2.82%    1.99%
 17  1     5    1  |1 0>          4.27%    1.40%    2.74%    2.56%    8.81%    0.71%    0.20%    1.77%
 18  1     6    1  |1 0>          1.36%    0.13%    1.02%    6.54%    2.01%   20.97%   13.06%    5.84%
 19  1     7    1  |1 0>          0.34%    1.16%    0.54%    1.86%    3.53%    6.42%   23.45%   10.97%
 20  1     8    1  |1 0>          0.02%    0.01%    0.01%    9.21%    3.55%   19.20%    3.93%   22.17%
 21  1     9    1  |1 0>          1.95%   27.47%    0.46%    0.00%    0.00%    0.00%    0.00%    0.00%
 22  1    10    1  |1 0>         15.33%    1.29%   11.37%    0.00%    0.00%    0.00%    0.00%    0.00%
 23  1    11    1  |1 0>          3.97%   12.53%    6.62%    0.00%    0.00%    0.00%    0.00%    0.00%
 24  1    12    1  |1 0>          0.00%    0.00%    0.00%    0.00%    0.00%    0.00%    0.00%    0.00%
 25  1     1    1  |1 1>-         0.00%    0.00%    0.00%    0.00%    0.00%    0.00%    0.00%    0.00%
 26  1     2    1  |1 1>-         0.00%    0.00%    0.00%    0.00%    0.00%    0.00%    0.00%    0.00%
 27  1     3    1  |1 1>-         0.00%    0.00%    0.01%    0.00%    0.00%    0.00%    0.00%    0.00%
 28  1     4    1  |1 1>-         0.37%    1.15%    0.57%   17.02%    6.73%    2.72%    3.07%    2.22%
 29  1     5    1  |1 1>-         1.02%    0.11%    0.75%    3.20%    7.90%    2.35%   14.81%   13.39%
 30  1     6    1  |1 1>-         1.05%    0.35%    0.66%   10.30%   14.73%    4.23%    2.02%    0.92%
 31  1     7    1  |1 1>-         1.35%    4.91%    0.76%    5.56%    7.12%    3.32%    2.92%    2.00%
 32  1     8    1  |1 1>-         4.37%    0.34%    3.24%    5.66%    2.01%   15.28%    8.07%    3.34%
 33  1     9    1  |1 1>-         3.99%   12.50%    6.63%    0.00%    0.00%    0.00%    0.00%    0.00%
 34  1    10    1  |1 1>-        12.18%    3.99%    7.78%    0.00%    0.00%    0.00%    0.00%    0.00%
 35  1    11    1  |1 1>-         5.13%    9.85%   15.10%    0.01%    0.00%    0.00%    0.00%    0.00%
 36  1    12    1  |1 1>-         0.00%    0.00%    0.00%    0.00%    0.00%    0.00%    0.00%    0.00%
 37  1     1    1  |0 0>          0.21%    0.07%    0.14%    0.00%    0.00%    0.00%    0.00%    0.00%
 38  1     2    1  |0 0>          0.27%    0.02%    0.20%    0.00%    0.00%    0.00%    0.00%    0.00%
 39  1     3    1  |0 0>          0.07%    0.22%    0.12%    0.00%    0.00%    0.00%    0.00%    0.00%
 40  1     4    1  |0 0>          0.07%    0.12%    0.20%    0.00%    0.00%    0.00%    0.00%    0.00%
 41  1     5    1  |0 0>          0.07%    0.26%    0.03%    0.00%    0.00%    0.00%    0.00%    0.00%
 42  1     6    1  |0 0>          0.00%    0.00%    0.00%    0.00%    0.00%    0.00%    0.00%    0.00%

   Total
 Nr Sym  State Sym Spin / Nr.     41       42

  1  1     1    1  |1 1>+         0.00%    0.00%
  2  1     2    1  |1 1>+         0.00%    0.00%
  3  1     3    1  |1 1>+         0.00%    0.00%
  4  1     4    1  |1 1>+        10.73%    8.09%
  5  1     5    1  |1 1>+        16.33%    9.57%
  6  1     6    1  |1 1>+         3.69%    8.85%
  7  1     7    1  |1 1>+        13.05%    5.19%
  8  1     8    1  |1 1>+         4.45%    1.92%
  9  1     9    1  |1 1>+         0.00%    0.00%
 10  1    10    1  |1 1>+         0.00%    0.00%
 11  1    11    1  |1 1>+         0.00%    0.00%
 12  1    12    1  |1 1>+         0.00%    0.00%
 13  1     1    1  |1 0>          0.00%    0.00%
 14  1     2    1  |1 0>          0.00%    0.00%
 15  1     3    1  |1 0>          0.00%    0.00%
 16  1     4    1  |1 0>          3.68%    8.89%
 17  1     5    1  |1 0>         10.13%    9.03%
 18  1     6    1  |1 0>          1.24%    3.49%
 19  1     7    1  |1 0>          4.39%    2.60%
 20  1     8    1  |1 0>          0.93%    0.85%
 21  1     9    1  |1 0>          0.00%    0.00%
 22  1    10    1  |1 0>          0.00%    0.00%
 23  1    11    1  |1 0>          0.00%    0.00%
 24  1    12    1  |1 0>          0.00%    0.00%
 25  1     1    1  |1 1>-         0.00%    0.00%
 26  1     2    1  |1 1>-         0.00%    0.00%
 27  1     3    1  |1 1>-         0.00%    0.00%
 28  1     4    1  |1 1>-        10.84%   10.66%
 29  1     5    1  |1 1>-         7.28%    6.04%
 30  1     6    1  |1 1>-         8.25%   13.07%
 31  1     7    1  |1 1>-         3.65%    8.91%
 32  1     8    1  |1 1>-         1.35%    2.82%
 33  1     9    1  |1 1>-         0.00%    0.00%
 34  1    10    1  |1 1>-         0.00%    0.00%
 35  1    11    1  |1 1>-         0.00%    0.00%
 36  1    12    1  |1 1>-         0.00%    0.00%
 37  1     1    1  |0 0>          0.00%    0.00%
 38  1     2    1  |0 0>          0.00%    0.00%
 39  1     3    1  |0 0>          0.00%    0.00%
 40  1     4    1  |0 0>          0.00%    0.00%
 41  1     5    1  |0 0>          0.00%    0.00%
 42  1     6    1  |0 0>          0.00%    0.00%


 No matrix element <i|DMZ|i> larger than 5E-7
 No matrix element <i|DMZ|1> larger than 5E-7


 **********************************************************************************************************************************
 DATASETS  * FILE   NREC   LENGTH (MB)   RECORD NAMES
              1      24     1955.50       500      610      700      900      950      970     1000      129      960     1700   
                                          VAR    BASINP    GEOM    SYMINP    ZMAT    AOBASIS   BASIS     P2S    ABASIS    OPER   
                                         1101     1401     1411     1412     1650     1100     1400     1410     1200     1210   
                                          SR      EKINR    POTR     PVPR    MOLCAS      S      EKIN      POT      H0       H01  
                                         1080     1600     1380     1700(1)
                                         AOSYM     SMH     JKOP     OPER   

              2       7     2735.78       700     1000      520     2100     2140     5201     5101   
                                         GEOM     BASIS   MCVARS     RHF     MCSCF    MRCI     MRCI   

 PROGRAMS   *        TOTAL        CI     LSINT        CI        CI     MULTI   RHF-SCF       INT
 CPU TIMES  *     81794.07  61959.98    122.85   4258.97  15419.45     22.51      0.52      9.44
 REAL TIME  *     83061.94 SEC
 DISK USED  *         2.93 GB (local),       52.84 GB (total)
 SF USED    *        21.85 GB
 GA USED    *         0.00 MB       (max)       0.00 MB       (current)
 **********************************************************************************************************************************

 CI/aug-cc-pWCVQZ-DK3 energy= -20885.229535517679

              CI              CI           MULTI         RHF-SCF
 -20885.28512227 -20885.16865628 -20884.25671715 -20884.37350176
 **********************************************************************************************************************************
 Molpro calculation terminated with 1 warning(s)
