
 Working directory              : /wrk/irikura/molpro.6SxI1A7FOs/
 Global scratch directory       : /wrk/irikura/molpro.6SxI1A7FOs/
 Wavefunction directory         : /home/irikura/wfu/
 Main file repository           : /wrk/irikura/molpro.6SxI1A7FOs/

 id        : nistki

 Nodes            nprocs
 pn112695.nist.gov   16
 GA implementation: MPI file
 GA implementation (serial work in mppx): MPI file

 Using customized tuning parameters: mindgm=1; mindgv=20; mindgc=4; mindgr=1; noblas=0; minvec=7
 default implementation of scratch files=sf  


 Variables initialized (1040), CPU time= 0.01 sec
 ***,Pb SO-CI
 memory,3000,M;
 
 gprint,orbitals,civector;
 gprint,basis
 
 symmetry,xyz
 geometry={Pb};
 
 basis={
 ecp,pb,ECP60MDF;
 spdfghi,pb,aug-cc-pwCV5Z-PP;C; spdf,1,even,nprim=1,ratio=3.0;
 }
 
                                                                                 ! spherical anion orbitals (4S)
 {rhf; wf,charge=-1,sym=2,spin=3}
 
 NTRIP=12
 NSING=15
 
 {multi
     closed,7,3
     occ,7,9
     wf,charge=0,sym=1,spin=2;state,NTRIP;
     wf,charge=0,sym=1,spin=0;state,NSING;
     expec2,lxx,lyy,lzz;
 }
 table, energy, ll
 title, Energies and &lt;L**2&gt; values
 
 core,0,0
 
 {ci;wf,sym=1,spin=2;state,NTRIP; save,5201.2}
 hlsdiag = energd4
 {ci;wf,sym=1,spin=0;state,NSING; save,5101.2}
 hlsdiag(NTRIP+1) = energd4
 
 table,hlsdiag
 
 {ci;hlsmat,ecp,5201.2,5101.2;print,vls=0,hls=0}                                 !compute and diagonalize SO matrix
 Commands initialized (846), CPU time= 0.01 sec, 717 directives.
 Default parameters read. Elapsed time= 0.21 sec

 Checking input...
 Passed
1


                                         ***  PROGRAM SYSTEM MOLPRO  ***
                                       Copyright, TTI GmbH Stuttgart, 2015
                                    Version 2023.2 linked Fri Sep 22 03:27:09 2023


 **********************************************************************************************************************************
 LABEL *   Pb SO-CI                                                                                                                                                      
  (32 PROC) 64 bit mpp version                                                           DATE: 13-Feb-25          TIME: 10:44:42  
 **********************************************************************************************************************************

 SHA1:             3c61bfe44d37c8635c785372c339f5cbdd4e4b59
 **********************************************************************************************************************************

 Memory per process:      3000 MW
 Total memory per node:  48000 MW

 GA preallocation disabled
 GA check disabled

 Variable memory set to 3000.0 MW



 ZSYMEL=XYZ

 SETTING BASIS          =    USERDEF


 Recomputing integrals since basis changed


 Using spherical harmonics

 Library entry Pb   ECP ECP60MDF                 selected for group  1
 Library entry PB     S AUG-CC-PWCV5Z-PP     selected for orbital group  1
 Even tempered Pb S diffuse               selected for group 1    nprim= 1    centre=  0.006    ratio= 3.000    dratio= 1.000
 Library entry PB     P AUG-CC-PWCV5Z-PP     selected for orbital group  1
 Even tempered Pb P diffuse               selected for group 1    nprim= 1    centre=  0.004    ratio= 3.000    dratio= 1.000
 Library entry PB     D AUG-CC-PWCV5Z-PP     selected for orbital group  1
 Even tempered Pb D diffuse               selected for group 1    nprim= 1    centre=  0.010    ratio= 3.000    dratio= 1.000
 Library entry PB     F AUG-CC-PWCV5Z-PP     selected for orbital group  1
 Even tempered Pb F diffuse               selected for group 1    nprim= 1    centre=  0.019    ratio= 3.000    dratio= 1.000
 Library entry PB     G AUG-CC-PWCV5Z-PP     selected for orbital group  1
 Library entry PB     H AUG-CC-PWCV5Z-PP     selected for orbital group  1
 Library entry PB     I AUG-CC-PWCV5Z-PP     selected for orbital group  1


 PROGRAM * SEWARD (Integral evaluation for generally contracted gaussian basis sets)     Author: Roland Lindh, 1990

 Geometry written to block  1 of record 700

 Orientation using atomic masses  
 Molecule type: Atom
 User-specified symmetry elements: XYZ
 Symmetry elements: XYZ
 Rotational constants:       0.0000000      0.0000000      0.0000000 GHz  (calculated with average atomic masses)

 Point group  Ci  



 ATOMIC COORDINATES

 NR  ATOM    CHARGE       X              Y              Z

   1  PB     22.00    0.000000000    0.000000000    0.000000000


          PB  CORE POTENTIAL

          h POTENTIAL

 POWERS             2
 EXPONENTIALS   1.000000    
 COEFFICIENTS   0.000000    

          s - h POTENTIAL

 POWERS             2              2
 EXPONENTIALS   12.29630       8.632634    
 COEFFICIENTS   281.2855       62.52022    

          p - h POTENTIAL

 POWERS             2              2              2              2
 EXPONENTIALS   10.24179       8.924176       6.581342       6.255403    
 COEFFICIENTS   72.27690       144.5911       4.758693       9.940621    

          d - h POTENTIAL

 POWERS             2              2              2              2
 EXPONENTIALS   7.754336       7.720281       4.970264       4.563789    
 COEFFICIENTS   35.84851       53.72434       10.11526       14.83373    

          f - h POTENTIAL

 POWERS             2              2
 EXPONENTIALS   3.887512       3.811963    
 COEFFICIENTS   12.20989       16.19029    

          g - h POTENTIAL

 POWERS             2              2
 EXPONENTIALS   5.691577       5.715567    
 COEFFICIENTS  -9.096665      -11.53200    


          PB  SPIN-ORBIT POTENTIAL

          p POTENTIAL

 POWERS             2              2              2              2
 EXPONENTIALS   10.24179       8.924176       6.581342       6.255403    
 COEFFICIENTS  -144.5538       144.5911      -9.517385       9.940621    

          d POTENTIAL

 POWERS             2              2              2              2
 EXPONENTIALS   7.754336       7.720281       4.970264       4.563789    
 COEFFICIENTS  -35.84851       35.81623      -10.11526       9.889154    

          f POTENTIAL

 POWERS             2              2
 EXPONENTIALS   3.887512       3.811963    
 COEFFICIENTS  -8.139928       8.095145    

          g POTENTIAL

 POWERS             2              2
 EXPONENTIALS   5.691577       5.715567    
 COEFFICIENTS   4.548332      -4.612798    


 BASIS DATA

   Nr Sym  Nuc  Type         Exponents   Contraction coefficients

    1.1 Ag    1  1s       24689.500000     0.000004    0.000000    0.000000    0.000000    0.000000    0.000000
                                           0.000000
    2.1 Ag                 4473.230000     0.000023    0.000000    0.000000    0.000000    0.000000    0.000000
                                           0.000000
    3.1 Ag                 1061.660000     0.000114    0.000000    0.000000    0.000000    0.000000    0.000000
                                           0.000000
    4.1 Ag                  279.239000     0.000368    0.000000    0.000000    0.000000    0.000000    0.000000
                                           0.000000
    5.1 Ag                   34.754200     0.023086    0.000000    0.000000    0.000000    0.000000    0.000000
                                           0.000000
    6.1 Ag                   21.709700    -0.204498    0.000000    0.000000    0.000000    0.000000    0.000000
                                           0.000000
    7.1 Ag                   13.563700     0.712561    1.000000    0.000000    0.000000    0.000000    0.000000
                                           0.000000
                              8.473470    -0.653960    0.000000    0.000000    0.000000    0.000000    0.000000
                                           0.000000
                              5.119560    -0.601024    0.000000    0.000000    0.000000    0.000000    0.000000
                                           0.000000
                              2.119960     0.586466    0.000000    0.000000    0.000000    0.000000    0.000000
                                           0.000000
                              1.255290     0.657512    0.000000    0.000000    0.000000    0.000000    0.000000
                                           0.000000
                              0.720284     0.237746    0.000000    1.000000    0.000000    0.000000    0.000000
                                           0.000000
                              0.377802     0.021597    0.000000    0.000000    1.000000    0.000000    0.000000
                                           0.000000
                              0.197699    -0.000066    0.000000    0.000000    0.000000    1.000000    0.000000
                                           0.000000
                              0.098623     0.000212    0.000000    0.000000    0.000000    0.000000    1.000000
                                           0.000000
                              0.047037    -0.000025    0.000000    0.000000    0.000000    0.000000    0.000000
                                           1.000000
    8.1 Ag    1  1s           6.347500     1.000000
    9.1 Ag    1  1s           3.964500     1.000000
   10.1 Ag    1  1s           2.476100     1.000000
   11.1 Ag    1  1s           1.546500     1.000000
   12.1 Ag    1  1s           0.019000     1.000000
   13.1 Ag    1  1s           0.006333     1.000000
   14.1 Ag    1  3d0        345.372000     0.000009
                            117.644000     0.000065
                             46.165300     0.000337
                             12.561400     0.011443
                              6.710330    -0.075307
                              2.582300     0.180008
                              1.572080     0.298518
                              0.939445     0.321561
                              0.541633     0.242277
                              0.300588     0.115501
                              0.159712     0.028593
                              0.072600     0.002184
   15.1 Ag    1  3d2-       345.372000     0.000009
                            117.644000     0.000065
                             46.165300     0.000337
                             12.561400     0.011443
                              6.710330    -0.075307
                              2.582300     0.180008
                              1.572080     0.298518
                              0.939445     0.321561
                              0.541633     0.242277
                              0.300588     0.115501
                              0.159712     0.028593
                              0.072600     0.002184
   16.1 Ag    1  3d1+       345.372000     0.000009
                            117.644000     0.000065
                             46.165300     0.000337
                             12.561400     0.011443
                              6.710330    -0.075307
                              2.582300     0.180008
                              1.572080     0.298518
                              0.939445     0.321561
                              0.541633     0.242277
                              0.300588     0.115501
                              0.159712     0.028593
                              0.072600     0.002184
   17.1 Ag    1  3d2+       345.372000     0.000009
                            117.644000     0.000065
                             46.165300     0.000337
                             12.561400     0.011443
                              6.710330    -0.075307
                              2.582300     0.180008
                              1.572080     0.298518
                              0.939445     0.321561
                              0.541633     0.242277
                              0.300588     0.115501
                              0.159712     0.028593
                              0.072600     0.002184
   18.1 Ag    1  3d1-       345.372000     0.000009
                            117.644000     0.000065
                             46.165300     0.000337
                             12.561400     0.011443
                              6.710330    -0.075307
                              2.582300     0.180008
                              1.572080     0.298518
                              0.939445     0.321561
                              0.541633     0.242277
                              0.300588     0.115501
                              0.159712     0.028593
                              0.072600     0.002184
   19.1 Ag    1  3d0        345.372000     0.000000
                            117.644000     0.000000
                             46.165300     0.000000
                             12.561400     0.000000
                              6.710330     0.000000
                              2.582300     0.000000
                              1.572080     0.000000
                              0.939445     0.000000
                              0.541633     1.000000
                              0.300588     0.000000
                              0.159712     0.000000
                              0.072600     0.000000
   20.1 Ag    1  3d2-       345.372000     0.000000
                            117.644000     0.000000
                             46.165300     0.000000
                             12.561400     0.000000
                              6.710330     0.000000
                              2.582300     0.000000
                              1.572080     0.000000
                              0.939445     0.000000
                              0.541633     1.000000
                              0.300588     0.000000
                              0.159712     0.000000
                              0.072600     0.000000
   21.1 Ag    1  3d1+       345.372000     0.000000
                            117.644000     0.000000
                             46.165300     0.000000
                             12.561400     0.000000
                              6.710330     0.000000
                              2.582300     0.000000
                              1.572080     0.000000
                              0.939445     0.000000
                              0.541633     1.000000
                              0.300588     0.000000
                              0.159712     0.000000
                              0.072600     0.000000
   22.1 Ag    1  3d2+       345.372000     0.000000
                            117.644000     0.000000
                             46.165300     0.000000
                             12.561400     0.000000
                              6.710330     0.000000
                              2.582300     0.000000
                              1.572080     0.000000
                              0.939445     0.000000
                              0.541633     1.000000
                              0.300588     0.000000
                              0.159712     0.000000
                              0.072600     0.000000
   23.1 Ag    1  3d1-       345.372000     0.000000
                            117.644000     0.000000
                             46.165300     0.000000
                             12.561400     0.000000
                              6.710330     0.000000
                              2.582300     0.000000
                              1.572080     0.000000
                              0.939445     0.000000
                              0.541633     1.000000
                              0.300588     0.000000
                              0.159712     0.000000
                              0.072600     0.000000
   24.1 Ag    1  3d0        345.372000     0.000000
                            117.644000     0.000000
                             46.165300     0.000000
                             12.561400     0.000000
                              6.710330     0.000000
                              2.582300     0.000000
                              1.572080     0.000000
                              0.939445     0.000000
                              0.541633     0.000000
                              0.300588     1.000000
                              0.159712     0.000000
                              0.072600     0.000000
   25.1 Ag    1  3d2-       345.372000     0.000000
                            117.644000     0.000000
                             46.165300     0.000000
                             12.561400     0.000000
                              6.710330     0.000000
                              2.582300     0.000000
                              1.572080     0.000000
                              0.939445     0.000000
                              0.541633     0.000000
                              0.300588     1.000000
                              0.159712     0.000000
                              0.072600     0.000000
   26.1 Ag    1  3d1+       345.372000     0.000000
                            117.644000     0.000000
                             46.165300     0.000000
                             12.561400     0.000000
                              6.710330     0.000000
                              2.582300     0.000000
                              1.572080     0.000000
                              0.939445     0.000000
                              0.541633     0.000000
                              0.300588     1.000000
                              0.159712     0.000000
                              0.072600     0.000000
   27.1 Ag    1  3d2+       345.372000     0.000000
                            117.644000     0.000000
                             46.165300     0.000000
                             12.561400     0.000000
                              6.710330     0.000000
                              2.582300     0.000000
                              1.572080     0.000000
                              0.939445     0.000000
                              0.541633     0.000000
                              0.300588     1.000000
                              0.159712     0.000000
                              0.072600     0.000000
   28.1 Ag    1  3d1-       345.372000     0.000000
                            117.644000     0.000000
                             46.165300     0.000000
                             12.561400     0.000000
                              6.710330     0.000000
                              2.582300     0.000000
                              1.572080     0.000000
                              0.939445     0.000000
                              0.541633     0.000000
                              0.300588     1.000000
                              0.159712     0.000000
                              0.072600     0.000000
   29.1 Ag    1  3d0        345.372000     0.000000
                            117.644000     0.000000
                             46.165300     0.000000
                             12.561400     0.000000
                              6.710330     0.000000
                              2.582300     0.000000
                              1.572080     0.000000
                              0.939445     0.000000
                              0.541633     0.000000
                              0.300588     0.000000
                              0.159712     1.000000
                              0.072600     0.000000
   30.1 Ag    1  3d2-       345.372000     0.000000
                            117.644000     0.000000
                             46.165300     0.000000
                             12.561400     0.000000
                              6.710330     0.000000
                              2.582300     0.000000
                              1.572080     0.000000
                              0.939445     0.000000
                              0.541633     0.000000
                              0.300588     0.000000
                              0.159712     1.000000
                              0.072600     0.000000
   31.1 Ag    1  3d1+       345.372000     0.000000
                            117.644000     0.000000
                             46.165300     0.000000
                             12.561400     0.000000
                              6.710330     0.000000
                              2.582300     0.000000
                              1.572080     0.000000
                              0.939445     0.000000
                              0.541633     0.000000
                              0.300588     0.000000
                              0.159712     1.000000
                              0.072600     0.000000
   32.1 Ag    1  3d2+       345.372000     0.000000
                            117.644000     0.000000
                             46.165300     0.000000
                             12.561400     0.000000
                              6.710330     0.000000
                              2.582300     0.000000
                              1.572080     0.000000
                              0.939445     0.000000
                              0.541633     0.000000
                              0.300588     0.000000
                              0.159712     1.000000
                              0.072600     0.000000
   33.1 Ag    1  3d1-       345.372000     0.000000
                            117.644000     0.000000
                             46.165300     0.000000
                             12.561400     0.000000
                              6.710330     0.000000
                              2.582300     0.000000
                              1.572080     0.000000
                              0.939445     0.000000
                              0.541633     0.000000
                              0.300588     0.000000
                              0.159712     1.000000
                              0.072600     0.000000
   34.1 Ag    1  3d0        345.372000     0.000000
                            117.644000     0.000000
                             46.165300     0.000000
                             12.561400     0.000000
                              6.710330     0.000000
                              2.582300     0.000000
                              1.572080     0.000000
                              0.939445     0.000000
                              0.541633     0.000000
                              0.300588     0.000000
                              0.159712     0.000000
                              0.072600     1.000000
   35.1 Ag    1  3d2-       345.372000     0.000000
                            117.644000     0.000000
                             46.165300     0.000000
                             12.561400     0.000000
                              6.710330     0.000000
                              2.582300     0.000000
                              1.572080     0.000000
                              0.939445     0.000000
                              0.541633     0.000000
                              0.300588     0.000000
                              0.159712     0.000000
                              0.072600     1.000000
   36.1 Ag    1  3d1+       345.372000     0.000000
                            117.644000     0.000000
                             46.165300     0.000000
                             12.561400     0.000000
                              6.710330     0.000000
                              2.582300     0.000000
                              1.572080     0.000000
                              0.939445     0.000000
                              0.541633     0.000000
                              0.300588     0.000000
                              0.159712     0.000000
                              0.072600     1.000000
   37.1 Ag    1  3d2+       345.372000     0.000000
                            117.644000     0.000000
                             46.165300     0.000000
                             12.561400     0.000000
                              6.710330     0.000000
                              2.582300     0.000000
                              1.572080     0.000000
                              0.939445     0.000000
                              0.541633     0.000000
                              0.300588     0.000000
                              0.159712     0.000000
                              0.072600     1.000000
   38.1 Ag    1  3d1-       345.372000     0.000000
                            117.644000     0.000000
                             46.165300     0.000000
                             12.561400     0.000000
                              6.710330     0.000000
                              2.582300     0.000000
                              1.572080     0.000000
                              0.939445     0.000000
                              0.541633     0.000000
                              0.300588     0.000000
                              0.159712     0.000000
                              0.072600     1.000000
   39.1 Ag    1  3d0          6.752400     1.000000
   40.1 Ag    1  3d2-         6.752400     1.000000
   41.1 Ag    1  3d1+         6.752400     1.000000
   42.1 Ag    1  3d2+         6.752400     1.000000
   43.1 Ag    1  3d1-         6.752400     1.000000
   44.1 Ag    1  3d0          3.783000     1.000000
   45.1 Ag    1  3d2-         3.783000     1.000000
   46.1 Ag    1  3d1+         3.783000     1.000000
   47.1 Ag    1  3d2+         3.783000     1.000000
   48.1 Ag    1  3d1-         3.783000     1.000000
   49.1 Ag    1  3d0          2.119400     1.000000
   50.1 Ag    1  3d2-         2.119400     1.000000
   51.1 Ag    1  3d1+         2.119400     1.000000
   52.1 Ag    1  3d2+         2.119400     1.000000
   53.1 Ag    1  3d1-         2.119400     1.000000
   54.1 Ag    1  3d0          1.187400     1.000000
   55.1 Ag    1  3d2-         1.187400     1.000000
   56.1 Ag    1  3d1+         1.187400     1.000000
   57.1 Ag    1  3d2+         1.187400     1.000000
   58.1 Ag    1  3d1-         1.187400     1.000000
   59.1 Ag    1  3d0          0.029400     1.000000
   60.1 Ag    1  3d2-         0.029400     1.000000
   61.1 Ag    1  3d1+         0.029400     1.000000
   62.1 Ag    1  3d2+         0.029400     1.000000
   63.1 Ag    1  3d1-         0.029400     1.000000
   64.1 Ag    1  3d0          0.009800     1.000000
   65.1 Ag    1  3d2-         0.009800     1.000000
   66.1 Ag    1  3d1+         0.009800     1.000000
   67.1 Ag    1  3d2+         0.009800     1.000000
   68.1 Ag    1  3d1-         0.009800     1.000000
   69.1 Ag    1  5g0          0.536800     1.000000
   70.1 Ag    1  5g2-         0.536800     1.000000
   71.1 Ag    1  5g1+         0.536800     1.000000
   72.1 Ag    1  5g4+         0.536800     1.000000
   73.1 Ag    1  5g1-         0.536800     1.000000
   74.1 Ag    1  5g2+         0.536800     1.000000
   75.1 Ag    1  5g4-         0.536800     1.000000
   76.1 Ag    1  5g3+         0.536800     1.000000
   77.1 Ag    1  5g3-         0.536800     1.000000
   78.1 Ag    1  5g0          0.255000     1.000000
   79.1 Ag    1  5g2-         0.255000     1.000000
   80.1 Ag    1  5g1+         0.255000     1.000000
   81.1 Ag    1  5g4+         0.255000     1.000000
   82.1 Ag    1  5g1-         0.255000     1.000000
   83.1 Ag    1  5g2+         0.255000     1.000000
   84.1 Ag    1  5g4-         0.255000     1.000000
   85.1 Ag    1  5g3+         0.255000     1.000000
   86.1 Ag    1  5g3-         0.255000     1.000000
   87.1 Ag    1  5g0          4.077400     1.000000
   88.1 Ag    1  5g2-         4.077400     1.000000
   89.1 Ag    1  5g1+         4.077400     1.000000
   90.1 Ag    1  5g4+         4.077400     1.000000
   91.1 Ag    1  5g1-         4.077400     1.000000
   92.1 Ag    1  5g2+         4.077400     1.000000
   93.1 Ag    1  5g4-         4.077400     1.000000
   94.1 Ag    1  5g3+         4.077400     1.000000
   95.1 Ag    1  5g3-         4.077400     1.000000
   96.1 Ag    1  5g0          2.158500     1.000000
   97.1 Ag    1  5g2-         2.158500     1.000000
   98.1 Ag    1  5g1+         2.158500     1.000000
   99.1 Ag    1  5g4+         2.158500     1.000000
  100.1 Ag    1  5g1-         2.158500     1.000000
  101.1 Ag    1  5g2+         2.158500     1.000000
  102.1 Ag    1  5g4-         2.158500     1.000000
  103.1 Ag    1  5g3+         2.158500     1.000000
  104.1 Ag    1  5g3-         2.158500     1.000000
  105.1 Ag    1  5g0          1.142700     1.000000
  106.1 Ag    1  5g2-         1.142700     1.000000
  107.1 Ag    1  5g1+         1.142700     1.000000
  108.1 Ag    1  5g4+         1.142700     1.000000
  109.1 Ag    1  5g1-         1.142700     1.000000
  110.1 Ag    1  5g2+         1.142700     1.000000
  111.1 Ag    1  5g4-         1.142700     1.000000
  112.1 Ag    1  5g3+         1.142700     1.000000
  113.1 Ag    1  5g3-         1.142700     1.000000
  114.1 Ag    1  5g0          0.115600     1.000000
  115.1 Ag    1  5g2-         0.115600     1.000000
  116.1 Ag    1  5g1+         0.115600     1.000000
  117.1 Ag    1  5g4+         0.115600     1.000000
  118.1 Ag    1  5g1-         0.115600     1.000000
  119.1 Ag    1  5g2+         0.115600     1.000000
  120.1 Ag    1  5g4-         0.115600     1.000000
  121.1 Ag    1  5g3+         0.115600     1.000000
  122.1 Ag    1  5g3-         0.115600     1.000000
  123.1 Ag    1  7i6+         1.151500     1.000000
  124.1 Ag    1  7i2-         1.151500     1.000000
  125.1 Ag    1  7i5+         1.151500     1.000000
  126.1 Ag    1  7i4+         1.151500     1.000000
  127.1 Ag    1  7i5-         1.151500     1.000000
  128.1 Ag    1  7i2+         1.151500     1.000000
  129.1 Ag    1  7i6-         1.151500     1.000000
  130.1 Ag    1  7i3+         1.151500     1.000000
  131.1 Ag    1  7i4-         1.151500     1.000000
  132.1 Ag    1  7i0          1.151500     1.000000
  133.1 Ag    1  7i3-         1.151500     1.000000
  134.1 Ag    1  7i1-         1.151500     1.000000
  135.1 Ag    1  7i1+         1.151500     1.000000
    1.2 Au    1  2px        240.589000     0.000070
                             39.776800     0.001564
                             20.427900    -0.026493
                             12.740500     0.158841
                              7.551900    -0.327408
                              4.720030    -0.105749
                              2.371520     0.419243
                              1.298240     0.539719
                              0.681070     0.246492
                              0.317650     0.030981
                              0.151398     0.000337
                              0.070310     0.000671
                              0.031845    -0.000084
    2.2 Au    1  2py        240.589000     0.000070
                             39.776800     0.001564
                             20.427900    -0.026493
                             12.740500     0.158841
                              7.551900    -0.327408
                              4.720030    -0.105749
                              2.371520     0.419243
                              1.298240     0.539719
                              0.681070     0.246492
                              0.317650     0.030981
                              0.151398     0.000337
                              0.070310     0.000671
                              0.031845    -0.000084
    3.2 Au    1  2pz        240.589000     0.000070
                             39.776800     0.001564
                             20.427900    -0.026493
                             12.740500     0.158841
                              7.551900    -0.327408
                              4.720030    -0.105749
                              2.371520     0.419243
                              1.298240     0.539719
                              0.681070     0.246492
                              0.317650     0.030981
                              0.151398     0.000337
                              0.070310     0.000671
                              0.031845    -0.000084
    4.2 Au    1  2px        240.589000     0.000000
                             39.776800     0.000000
                             20.427900     0.000000
                             12.740500     1.000000
                              7.551900     0.000000
                              4.720030     0.000000
                              2.371520     0.000000
                              1.298240     0.000000
                              0.681070     0.000000
                              0.317650     0.000000
                              0.151398     0.000000
                              0.070310     0.000000
                              0.031845     0.000000
    5.2 Au    1  2py        240.589000     0.000000
                             39.776800     0.000000
                             20.427900     0.000000
                             12.740500     1.000000
                              7.551900     0.000000
                              4.720030     0.000000
                              2.371520     0.000000
                              1.298240     0.000000
                              0.681070     0.000000
                              0.317650     0.000000
                              0.151398     0.000000
                              0.070310     0.000000
                              0.031845     0.000000
    6.2 Au    1  2pz        240.589000     0.000000
                             39.776800     0.000000
                             20.427900     0.000000
                             12.740500     1.000000
                              7.551900     0.000000
                              4.720030     0.000000
                              2.371520     0.000000
                              1.298240     0.000000
                              0.681070     0.000000
                              0.317650     0.000000
                              0.151398     0.000000
                              0.070310     0.000000
                              0.031845     0.000000
    7.2 Au    1  2px        240.589000     0.000000
                             39.776800     0.000000
                             20.427900     0.000000
                             12.740500     0.000000
                              7.551900     0.000000
                              4.720030     0.000000
                              2.371520     0.000000
                              1.298240     0.000000
                              0.681070     1.000000
                              0.317650     0.000000
                              0.151398     0.000000
                              0.070310     0.000000
                              0.031845     0.000000
    8.2 Au    1  2py        240.589000     0.000000
                             39.776800     0.000000
                             20.427900     0.000000
                             12.740500     0.000000
                              7.551900     0.000000
                              4.720030     0.000000
                              2.371520     0.000000
                              1.298240     0.000000
                              0.681070     1.000000
                              0.317650     0.000000
                              0.151398     0.000000
                              0.070310     0.000000
                              0.031845     0.000000
    9.2 Au    1  2pz        240.589000     0.000000
                             39.776800     0.000000
                             20.427900     0.000000
                             12.740500     0.000000
                              7.551900     0.000000
                              4.720030     0.000000
                              2.371520     0.000000
                              1.298240     0.000000
                              0.681070     1.000000
                              0.317650     0.000000
                              0.151398     0.000000
                              0.070310     0.000000
                              0.031845     0.000000
   10.2 Au    1  2px        240.589000     0.000000
                             39.776800     0.000000
                             20.427900     0.000000
                             12.740500     0.000000
                              7.551900     0.000000
                              4.720030     0.000000
                              2.371520     0.000000
                              1.298240     0.000000
                              0.681070     0.000000
                              0.317650     1.000000
                              0.151398     0.000000
                              0.070310     0.000000
                              0.031845     0.000000
   11.2 Au    1  2py        240.589000     0.000000
                             39.776800     0.000000
                             20.427900     0.000000
                             12.740500     0.000000
                              7.551900     0.000000
                              4.720030     0.000000
                              2.371520     0.000000
                              1.298240     0.000000
                              0.681070     0.000000
                              0.317650     1.000000
                              0.151398     0.000000
                              0.070310     0.000000
                              0.031845     0.000000
   12.2 Au    1  2pz        240.589000     0.000000
                             39.776800     0.000000
                             20.427900     0.000000
                             12.740500     0.000000
                              7.551900     0.000000
                              4.720030     0.000000
                              2.371520     0.000000
                              1.298240     0.000000
                              0.681070     0.000000
                              0.317650     1.000000
                              0.151398     0.000000
                              0.070310     0.000000
                              0.031845     0.000000
   13.2 Au    1  2px        240.589000     0.000000
                             39.776800     0.000000
                             20.427900     0.000000
                             12.740500     0.000000
                              7.551900     0.000000
                              4.720030     0.000000
                              2.371520     0.000000
                              1.298240     0.000000
                              0.681070     0.000000
                              0.317650     0.000000
                              0.151398     1.000000
                              0.070310     0.000000
                              0.031845     0.000000
   14.2 Au    1  2py        240.589000     0.000000
                             39.776800     0.000000
                             20.427900     0.000000
                             12.740500     0.000000
                              7.551900     0.000000
                              4.720030     0.000000
                              2.371520     0.000000
                              1.298240     0.000000
                              0.681070     0.000000
                              0.317650     0.000000
                              0.151398     1.000000
                              0.070310     0.000000
                              0.031845     0.000000
   15.2 Au    1  2pz        240.589000     0.000000
                             39.776800     0.000000
                             20.427900     0.000000
                             12.740500     0.000000
                              7.551900     0.000000
                              4.720030     0.000000
                              2.371520     0.000000
                              1.298240     0.000000
                              0.681070     0.000000
                              0.317650     0.000000
                              0.151398     1.000000
                              0.070310     0.000000
                              0.031845     0.000000
   16.2 Au    1  2px        240.589000     0.000000
                             39.776800     0.000000
                             20.427900     0.000000
                             12.740500     0.000000
                              7.551900     0.000000
                              4.720030     0.000000
                              2.371520     0.000000
                              1.298240     0.000000
                              0.681070     0.000000
                              0.317650     0.000000
                              0.151398     0.000000
                              0.070310     1.000000
                              0.031845     0.000000
   17.2 Au    1  2py        240.589000     0.000000
                             39.776800     0.000000
                             20.427900     0.000000
                             12.740500     0.000000
                              7.551900     0.000000
                              4.720030     0.000000
                              2.371520     0.000000
                              1.298240     0.000000
                              0.681070     0.000000
                              0.317650     0.000000
                              0.151398     0.000000
                              0.070310     1.000000
                              0.031845     0.000000
   18.2 Au    1  2pz        240.589000     0.000000
                             39.776800     0.000000
                             20.427900     0.000000
                             12.740500     0.000000
                              7.551900     0.000000
                              4.720030     0.000000
                              2.371520     0.000000
                              1.298240     0.000000
                              0.681070     0.000000
                              0.317650     0.000000
                              0.151398     0.000000
                              0.070310     1.000000
                              0.031845     0.000000
   19.2 Au    1  2px        240.589000     0.000000
                             39.776800     0.000000
                             20.427900     0.000000
                             12.740500     0.000000
                              7.551900     0.000000
                              4.720030     0.000000
                              2.371520     0.000000
                              1.298240     0.000000
                              0.681070     0.000000
                              0.317650     0.000000
                              0.151398     0.000000
                              0.070310     0.000000
                              0.031845     1.000000
   20.2 Au    1  2py        240.589000     0.000000
                             39.776800     0.000000
                             20.427900     0.000000
                             12.740500     0.000000
                              7.551900     0.000000
                              4.720030     0.000000
                              2.371520     0.000000
                              1.298240     0.000000
                              0.681070     0.000000
                              0.317650     0.000000
                              0.151398     0.000000
                              0.070310     0.000000
                              0.031845     1.000000
   21.2 Au    1  2pz        240.589000     0.000000
                             39.776800     0.000000
                             20.427900     0.000000
                             12.740500     0.000000
                              7.551900     0.000000
                              4.720030     0.000000
                              2.371520     0.000000
                              1.298240     0.000000
                              0.681070     0.000000
                              0.317650     0.000000
                              0.151398     0.000000
                              0.070310     0.000000
                              0.031845     1.000000
   22.2 Au    1  2px          6.662600     1.000000
   23.2 Au    1  2py          6.662600     1.000000
   24.2 Au    1  2pz          6.662600     1.000000
   25.2 Au    1  2px          3.852100     1.000000
   26.2 Au    1  2py          3.852100     1.000000
   27.2 Au    1  2pz          3.852100     1.000000
   28.2 Au    1  2px          2.227200     1.000000
   29.2 Au    1  2py          2.227200     1.000000
   30.2 Au    1  2pz          2.227200     1.000000
   31.2 Au    1  2px          1.287700     1.000000
   32.2 Au    1  2py          1.287700     1.000000
   33.2 Au    1  2pz          1.287700     1.000000
   34.2 Au    1  2px          0.013000     1.000000
   35.2 Au    1  2py          0.013000     1.000000
   36.2 Au    1  2pz          0.013000     1.000000
   37.2 Au    1  2px          0.004333     1.000000
   38.2 Au    1  2py          0.004333     1.000000
   39.2 Au    1  2pz          0.004333     1.000000
   40.2 Au    1  4f1+         0.532900     1.000000
   41.2 Au    1  4f1-         0.532900     1.000000
   42.2 Au    1  4f0          0.532900     1.000000
   43.2 Au    1  4f3+         0.532900     1.000000
   44.2 Au    1  4f2-         0.532900     1.000000
   45.2 Au    1  4f3-         0.532900     1.000000
   46.2 Au    1  4f2+         0.532900     1.000000
   47.2 Au    1  4f1+         0.267700     1.000000
   48.2 Au    1  4f1-         0.267700     1.000000
   49.2 Au    1  4f0          0.267700     1.000000
   50.2 Au    1  4f3+         0.267700     1.000000
   51.2 Au    1  4f2-         0.267700     1.000000
   52.2 Au    1  4f3-         0.267700     1.000000
   53.2 Au    1  4f2+         0.267700     1.000000
   54.2 Au    1  4f1+         0.134500     1.000000
   55.2 Au    1  4f1-         0.134500     1.000000
   56.2 Au    1  4f0          0.134500     1.000000
   57.2 Au    1  4f3+         0.134500     1.000000
   58.2 Au    1  4f2-         0.134500     1.000000
   59.2 Au    1  4f3-         0.134500     1.000000
   60.2 Au    1  4f2+         0.134500     1.000000
   61.2 Au    1  4f1+         5.435300     1.000000
   62.2 Au    1  4f1-         5.435300     1.000000
   63.2 Au    1  4f0          5.435300     1.000000
   64.2 Au    1  4f3+         5.435300     1.000000
   65.2 Au    1  4f2-         5.435300     1.000000
   66.2 Au    1  4f3-         5.435300     1.000000
   67.2 Au    1  4f2+         5.435300     1.000000
   68.2 Au    1  4f1+         3.153900     1.000000
   69.2 Au    1  4f1-         3.153900     1.000000
   70.2 Au    1  4f0          3.153900     1.000000
   71.2 Au    1  4f3+         3.153900     1.000000
   72.2 Au    1  4f2-         3.153900     1.000000
   73.2 Au    1  4f3-         3.153900     1.000000
   74.2 Au    1  4f2+         3.153900     1.000000
   75.2 Au    1  4f1+         1.830000     1.000000
   76.2 Au    1  4f1-         1.830000     1.000000
   77.2 Au    1  4f0          1.830000     1.000000
   78.2 Au    1  4f3+         1.830000     1.000000
   79.2 Au    1  4f2-         1.830000     1.000000
   80.2 Au    1  4f3-         1.830000     1.000000
   81.2 Au    1  4f2+         1.830000     1.000000
   82.2 Au    1  4f1+         1.061900     1.000000
   83.2 Au    1  4f1-         1.061900     1.000000
   84.2 Au    1  4f0          1.061900     1.000000
   85.2 Au    1  4f3+         1.061900     1.000000
   86.2 Au    1  4f2-         1.061900     1.000000
   87.2 Au    1  4f3-         1.061900     1.000000
   88.2 Au    1  4f2+         1.061900     1.000000
   89.2 Au    1  4f1+         0.058500     1.000000
   90.2 Au    1  4f1-         0.058500     1.000000
   91.2 Au    1  4f0          0.058500     1.000000
   92.2 Au    1  4f3+         0.058500     1.000000
   93.2 Au    1  4f2-         0.058500     1.000000
   94.2 Au    1  4f3-         0.058500     1.000000
   95.2 Au    1  4f2+         0.058500     1.000000
   96.2 Au    1  4f1+         0.019500     1.000000
   97.2 Au    1  4f1-         0.019500     1.000000
   98.2 Au    1  4f0          0.019500     1.000000
   99.2 Au    1  4f3+         0.019500     1.000000
  100.2 Au    1  4f2-         0.019500     1.000000
  101.2 Au    1  4f3-         0.019500     1.000000
  102.2 Au    1  4f2+         0.019500     1.000000
  103.2 Au    1  6h1+         0.483100     1.000000
  104.2 Au    1  6h1-         0.483100     1.000000
  105.2 Au    1  6h2+         0.483100     1.000000
  106.2 Au    1  6h3+         0.483100     1.000000
  107.2 Au    1  6h4-         0.483100     1.000000
  108.2 Au    1  6h3-         0.483100     1.000000
  109.2 Au    1  6h4+         0.483100     1.000000
  110.2 Au    1  6h5-         0.483100     1.000000
  111.2 Au    1  6h0          0.483100     1.000000
  112.2 Au    1  6h5+         0.483100     1.000000
  113.2 Au    1  6h2-         0.483100     1.000000
  114.2 Au    1  6h1+         3.565800     1.000000
  115.2 Au    1  6h1-         3.565800     1.000000
  116.2 Au    1  6h2+         3.565800     1.000000
  117.2 Au    1  6h3+         3.565800     1.000000
  118.2 Au    1  6h4-         3.565800     1.000000
  119.2 Au    1  6h3-         3.565800     1.000000
  120.2 Au    1  6h4+         3.565800     1.000000
  121.2 Au    1  6h5-         3.565800     1.000000
  122.2 Au    1  6h0          3.565800     1.000000
  123.2 Au    1  6h5+         3.565800     1.000000
  124.2 Au    1  6h2-         3.565800     1.000000
  125.2 Au    1  6h1+         1.216900     1.000000
  126.2 Au    1  6h1-         1.216900     1.000000
  127.2 Au    1  6h2+         1.216900     1.000000
  128.2 Au    1  6h3+         1.216900     1.000000
  129.2 Au    1  6h4-         1.216900     1.000000
  130.2 Au    1  6h3-         1.216900     1.000000
  131.2 Au    1  6h4+         1.216900     1.000000
  132.2 Au    1  6h5-         1.216900     1.000000
  133.2 Au    1  6h0          1.216900     1.000000
  134.2 Au    1  6h5+         1.216900     1.000000
  135.2 Au    1  6h2-         1.216900     1.000000
  136.2 Au    1  6h1+         0.259300     1.000000
  137.2 Au    1  6h1-         0.259300     1.000000
  138.2 Au    1  6h2+         0.259300     1.000000
  139.2 Au    1  6h3+         0.259300     1.000000
  140.2 Au    1  6h4-         0.259300     1.000000
  141.2 Au    1  6h3-         0.259300     1.000000
  142.2 Au    1  6h4+         0.259300     1.000000
  143.2 Au    1  6h5-         0.259300     1.000000
  144.2 Au    1  6h0          0.259300     1.000000
  145.2 Au    1  6h5+         0.259300     1.000000
  146.2 Au    1  6h2-         0.259300     1.000000

 NUCLEAR CHARGE:                   22
 NUMBER OF PRIMITIVE AOS:         479
 NUMBER OF SYMMETRY AOS:          343
 NUMBER OF CONTRACTIONS:          281   (  135Ag  +  146Au  )
 NUMBER OF INNER CORE ORBITALS:     0   (    0Ag  +    0Au  )
 NUMBER OF OUTER CORE ORBITALS:     9   (    6Ag  +    3Au  )
 NUMBER OF VALENCE ORBITALS:        4   (    1Ag  +    3Au  )


 LX: Ag           LY: Ag           LZ: Ag 


 NUCLEAR REPULSION ENERGY    0.00000000

 EXTRA SYMMETRY OF AOS IN SYMMETRY 1:   1 1 1 1 1 1 1 1 1 1   1 1 1 2 3 4 5 6 2 3   4 5 6 2 3 4 5 6 2 3   4 5 6 2 3 4 5 6 2 3
                                        4 5 6 2 3 4 5 6 2 3   4 5 6 2 3 4 5 6 2 3   4 5 6 2 3 4 5 6 7 8   9101112131415 7 8 9
                                       101112131415 7 8 910  1112131415 7 8 91011  12131415 7 8 9101112  131415 7 8 910111213
                                       14151617181920212223  2425262728
 EXTRA SYMMETRY OF AOS IN SYMMETRY 2:   1 2 3 1 2 3 1 2 3 1   2 3 1 2 3 1 2 3 1 2   3 1 2 3 1 2 3 1 2 3   1 2 3 1 2 3 1 2 3 4
                                        5 6 7 8 910 4 5 6 7   8 910 4 5 6 7 8 910   4 5 6 7 8 910 4 5 6   7 8 910 4 5 6 7 8 9
                                       10 4 5 6 7 8 910 4 5   6 7 8 910 4 5 6 7 8   9101112131415161718  19202111121314151617
                                       18192021111213141516  17181920211112131415  161718192021


 Eigenvalues of metric

         1 0.180E-04 0.213E-04 0.213E-04 0.213E-04 0.213E-04 0.213E-04 0.414E-04 0.269E-03
         2 0.228E-05 0.228E-05 0.228E-05 0.342E-03 0.342E-03 0.342E-03 0.256E-02 0.256E-02


 Contracted 2-electron integrals neglected if value below      1.0D-12
 AO integral compression algorithm  1   Integral accuracy      1.0D-12

     693.633 MB (compressed) written to integral file ( 13.4%)

     Node minimum: 31.719 MB, node maximum: 55.050 MB


 NUMBER OF SORTED TWO-ELECTRON INTEGRALS:   24679576.     BUFFER LENGTH:  32768
 NUMBER OF SEGMENTS:   2  SEGMENT LENGTH:   15976936      RECORD LENGTH: 524288

 Memory used in sort:      16.53 MW

 SORT1 READ   646821870. AND WROTE     4259351. INTEGRALS IN     14 RECORDS. CPU TIME:     3.13 SEC, REAL TIME:     3.22 SEC
 SORT2 READ    68065179. AND WROTE   395255076. INTEGRALS IN   2704 RECORDS. CPU TIME:     0.49 SEC, REAL TIME:     0.56 SEC

 Node minimum:    24675847.  Node maximum:    24720811. integrals

 OPERATOR DM      FOR CENTER  0  COORDINATES:    0.000000    0.000000    0.000000


 **********************************************************************************************************************************
 DATASETS  * FILE   NREC   LENGTH (MB)   RECORD NAMES
              1      19       30.69       500      610      700      900      950      970     1000      129      960     1100   
                                          VAR    BASINP    GEOM    SYMINP    ZMAT    AOBASIS   BASIS     P2S    ABASIS      S 
                                         1400     1410     1420     1200     1210     1080     1700     1600     1650   
                                           T        V       ECP      H0       H01     AOSYM    OPER      SMH    MOLCAS    

 PROGRAMS   *        TOTAL       INT
 CPU TIMES  *        10.38     10.03
 REAL TIME  *        12.45 SEC
 DISK USED  *        31.11 MB (local),        1.87 GB (total)
 GA USED    *         0.00 MB       (max)       0.00 MB       (current)
 **********************************************************************************************************************************


 Program * Restricted Hartree-Fock


   Atom=PB basis=cc-pVTZ-PP        lmin=0  lmax=2

 Orbital guess generated from atomic densities.

 Initial alpha occupancy:   7   6
 Initial beta  occupancy:   7   3

 NELEC=   23   SYM=2   MS2= 3   THRE=1.0D-08   THRD=3.2D-06   THRG=3.2D-06  HFMA2=F  DIIS_START=2   DIIS_MAX=10   DIIS_INCORE=F

 Level shifts:    0.00 (CLOSED)    0.00 (OPEN)    0.30 (GAP_MIN)

 ITER           ETOT              DE          GRAD        DDIFF     DIIS  NEXP   TIME(IT)  TIME(TOT)  DIAG
   1     -191.86191643    -191.86191643     0.00D+00     0.45D-01     0     0       0.15      0.28    start
   2     -191.86409114      -0.00217471     0.71D-03     0.10D-02     1     0       0.16      0.44    diag2
   3     -191.86432421      -0.00023307     0.40D-03     0.24D-03     2     0       0.15      0.59    diag2
   4     -191.86438565      -0.00006144     0.96D-04     0.17D-03     3     0       0.15      0.74    diag2
   5     -191.86439370      -0.00000806     0.26D-04     0.51D-04     4     0       0.16      0.90    diag2
   6     -191.86439607      -0.00000236     0.79D-05     0.30D-04     5     0       0.15      1.05    diag2
   7     -191.86439715      -0.00000108     0.40D-05     0.27D-04     6     0       0.16      1.21    diag2
   8     -191.86439739      -0.00000024     0.18D-05     0.94D-05     7     0       0.15      1.36    fixocc
   9     -191.86439741      -0.00000003     0.60D-06     0.36D-05     8     0       0.15      1.51    diag2
  10     -191.86439742      -0.00000000     0.23D-06     0.29D-05     9     0       0.16      1.67    diag2/orth
  11     -191.86439742      -0.00000000     0.89D-07     0.25D-06     0     0       0.15      1.82    diag

 Final alpha occupancy:   7   6
 Final beta  occupancy:   7   3

 !RHF STATE 1.2 Energy               -191.864397416889
  RHF One-electron energy            -340.681635591097
  RHF Two-electron energy             148.817238174208
  RHF Kinetic energy                   62.712667464931
  RHF Nuclear energy                    0.000000000000
  RHF Virial quotient                  -3.059420132690

 !RHF STATE 1.2 Dipole moment           0.00000000     0.00000000     0.00000000
 Dipole moment /Debye                   0.00000000     0.00000000     0.00000000

 ELECTRON ORBITALS
 =================

  Orbital  Occupation    Energy    Cen Mu Typ  Coefficients
    1.1     2.00000    -5.94946     1  1  s    1.00000
    2.1     2.00000    -0.84962     1  1  d1+  0.45385    1  1  d2+ -0.44684    1  1  d1-  0.74576
    3.1     2.00000    -0.84962     1  1  d2- -0.48472    1  1  d1+  0.67796    1  1  d2+  0.54727
    4.1     2.00000    -0.84962     1  1  d2-  0.59125    1  1  d2+  0.68865    1  1  d1-  0.37719
    5.1     2.00000    -0.84962     1  1  d2-  0.61837    1  1  d1+  0.55441    1  1  d1- -0.54636
    6.1     2.00000    -0.84962     1  1  d0   0.99159
    7.1     2.00000    -0.35280     1  1  s   -0.38141    1  5  s    0.52229    1  6  s    0.42702    1 11  s   -0.25484
    1.2     2.00000    -3.63192     1  1  py   0.70731    1  1  pz   0.70712
    2.2     2.00000    -3.63192     1  1  px   0.99958
    3.2     2.00000    -3.63192     1  1  py   0.70712    1  1  pz  -0.70663
    4.2     1.00000    -0.05164     1  5  pz   0.26014    1  6  py   0.25695    1  6  pz   0.27418
    5.2     1.00000    -0.05164     1  5  py   0.26013    1  6  py   0.27417    1  6  pz  -0.25695
    6.2     1.00000    -0.05164     1  5  px   0.35652    1  6  px   0.37576    1  7  px   0.25530


 HOMO      6.2    -0.051636 =      -1.4051eV
 LUMO      7.2     0.064305 =       1.7498eV
 LUMO-HOMO         0.115940 =       3.1549eV

 Orbitals saved in record  2100.2


 **********************************************************************************************************************************
 DATASETS  * FILE   NREC   LENGTH (MB)   RECORD NAMES
              1      19       30.69       500      610      700      900      950      970     1000      129      960     1100   
                                          VAR    BASINP    GEOM    SYMINP    ZMAT    AOBASIS   BASIS     P2S    ABASIS      S 
                                         1400     1410     1420     1200     1210     1080     1700     1600     1650   
                                           T        V       ECP      H0       H01     AOSYM    OPER      SMH    MOLCAS    

              2       4        1.64       700     1000      520     2100   
                                         GEOM     BASIS   MCVARS     RHF  

 PROGRAMS   *        TOTAL   RHF-SCF       INT
 CPU TIMES  *        12.20      1.82     10.03
 REAL TIME  *        14.36 SEC
 DISK USED  *        37.93 MB (local),        1.98 GB (total)
 GA USED    *         0.00 MB       (max)       0.00 MB       (current)
 **********************************************************************************************************************************
 SETTING NTRIP          =        12.00000000                                  
 SETTING NSING          =        15.00000000                                  

 PROGRAM * MULTI (Direct Multiconfiguration SCF)       Authors: P.J. Knowles, H.-J. Werner (1984)
                                                                D.A. Kreplin, P.J. Knowles, H.-J. Werner (2019)

 Number of closed-shell orbitals:  10 (    7    3)
 Number of active  orbitals:        6 (    0    6)
 Number of external orbitals:     265 (  128  137)

 State symmetry 1

 Number of active electrons:   2    Spin symmetry=Triplet   Space symmetry=1
 Number of states:            12
 Number of CSFs:              15   (15 determinants, 15 intermediate states)

 State symmetry 2

 Number of active electrons:   2    Spin symmetry=Singlet   Space symmetry=1
 Number of states:            15
 Number of CSFs:              21   (36 determinants, 36 intermediate states)

 Molecular orbitals read from record     2100.2  Type=RHF/CANONICAL  
 *** IN SYMMETRY 1 ORBITAL  2 SYMMETRY CONTAMINATION OF 0.607D+00 HAS BEEN REMOVED
 *** IN SYMMETRY 1 ORBITAL  3 SYMMETRY CONTAMINATION OF 0.624D+00 HAS BEEN REMOVED
 *** IN SYMMETRY 1 ORBITAL  4 SYMMETRY CONTAMINATION OF 0.638D+00 HAS BEEN REMOVED
 *** IN SYMMETRY 1 ORBITAL  5 SYMMETRY CONTAMINATION OF 0.662D+00 HAS BEEN REMOVED
 *** IN SYMMETRY 1 ORBITAL  6 SYMMETRY CONTAMINATION OF 0.140D+00 HAS BEEN REMOVED

 EXTRA SYMMETRY OF MOS IN SYMMETRY 1:   1 6 4 5 3 2 1 1 2 4   6 3 5 1 2 4 6 3 5 1   2 6 4 5 31514 81213  10 7 911 1 6 4 2 5 3
                                       1310 71415 812 911 2   4 6 5 3 1 71310 812   9111415 2 4 6 3 5 1   71310 8121514 91125
                                       20181721232426192827  2216 6 4 3 5 2 7 812  13101514 911 1 6 4 3   5 2 712 81514131011
                                        9 1 6 5 3 4 2 1 5 6   3 4 2 1 1
 *** IN SYMMETRY 2 ORBITAL  1 SYMMETRY CONTAMINATION OF 0.505D+00 HAS BEEN REMOVED
 *** IN SYMMETRY 2 ORBITAL  2 SYMMETRY CONTAMINATION OF 0.460D-01 HAS BEEN REMOVED
 *** IN SYMMETRY 2 ORBITAL  3 SYMMETRY CONTAMINATION OF 0.512D+00 HAS BEEN REMOVED
 *** IN SYMMETRY 2 ORBITAL  4 SYMMETRY CONTAMINATION OF 0.485D+00 HAS BEEN REMOVED
 *** IN SYMMETRY 2 ORBITAL  5 SYMMETRY CONTAMINATION OF 0.485D+00 HAS BEEN REMOVED
 *** IN SYMMETRY 2 ORBITAL  6 SYMMETRY CONTAMINATION OF 0.414D-02 HAS BEEN REMOVED
 *** IN SYMMETRY 2 ORBITAL  8 SYMMETRY CONTAMINATION OF 0.483D-04 HAS BEEN REMOVED
 *** IN SYMMETRY 2 ORBITAL  9 SYMMETRY CONTAMINATION OF 0.483D-04 HAS BEEN REMOVED
 EXTRA SYMMETRY OF MOS IN SYMMETRY 2:   2 1 3 3 2 1 1 2 3 2   1 3 5 4 6 7 910 8 2   1 3 6 4 5 9 7 810 3   1 2 6 4 5 9 7 810 6
                                        9 7 810 4 5 3 1 216  14191517132112111820  10 8 6 4 5 9 7161413  2115172018111219 3 2
                                        110 8 6 4 5 7 91614  211317151820191112 8  10 6 4 5 7 9 3 2 1 8  10 7 9 4 5 615171321
                                       20181614191211 3 2 1   4 5 6 810 7 9 2 1 3   2 1 3 2 1 3

 Wavefunction dump at record             2140.2

 Convergence thresholds  0.10E-04 (gradient)  0.10E-05 (energy)

 Weight factors for state symmetry  1:    0.03704   0.03704   0.03704   0.03704   0.03704   0.03704   0.03704   0.03704
                                          0.03704   0.03704   0.03704   0.03704
 Weight factors for state symmetry  2:    0.03704   0.03704   0.03704   0.03704   0.03704   0.03704   0.03704   0.03704
                                          0.03704   0.03704   0.03704   0.03704   0.03704   0.03704   0.03704
 
 Number of orbital rotations:  2147  ( 18 closed/active, 1307 closed/virtual, 0 active/active, 822 active/virtual )
 Total number of variables:    2867
 
 Second-order MCSCF: L-BFGS accelerated
 
 ITER  MIC  NCI  NEG     ENERGY(VAR)    ENERGY(PROJ) ENERGY CHANGE       GRAD(0)  GRAD(ORB)   GRAD(CI)      STEP      TIME
   1    9   16    3   -191.65532491    -191.70334457   -0.04801966    0.17405052 0.00003567 0.00000000  0.15E+01      2.42
   2    5    8    0   -191.70311160    -191.70331589   -0.00020429    0.01075869 0.00000048 0.00000000  0.10E+00      4.98
   3    7   14    0   -191.70331592    -191.70331592   -0.00000000    0.00002354 0.00000000 0.00000000  0.11E-03      7.37
   4    2    4    0   -191.70331592    -191.70331592    0.00000000    0.00000000 0.00000000 0.00000000  0.17E-07      9.23

 CONVERGENCE REACHED!  Final gradient:    0.00000000 ( 0.21E-08)
                       Final energy:   -191.70331592
 
 Results for state 1.1 Triplet
 =============================
 !MCSCF STATE 1.1 Triplet Energy              -191.828359411593
 Nuclear energy                                  0.00000000
 Kinetic energy                                 62.90563295
 One electron energy                          -336.49295406
 Two electron energy                           144.66459465
 Virial ratio                                    4.04946235
 
 !MCSCF STATE 1.1 Triplet Dipole moment          0.00000000     0.00000000     0.00000000
 Dipole moment /Debye                            0.00000000     0.00000000     0.00000000
 
 Results for state 2.1 Triplet
 =============================
 !MCSCF STATE 2.1 Triplet Energy              -191.828359411535
 Nuclear energy                                  0.00000000
 Kinetic energy                                 62.90563295
 One electron energy                          -336.49295406
 Two electron energy                           144.66459465
 Virial ratio                                    4.04946235
 
 !MCSCF STATE 2.1 Triplet Dipole moment          0.00000000     0.00000000     0.00000000
 Dipole moment /Debye                            0.00000000     0.00000000     0.00000000
 
 Results for state 3.1 Triplet
 =============================
 !MCSCF STATE 3.1 Triplet Energy              -191.828359411474
 Nuclear energy                                  0.00000000
 Kinetic energy                                 62.90563295
 One electron energy                          -336.49295407
 Two electron energy                           144.66459466
 Virial ratio                                    4.04946235
 
 !MCSCF STATE 3.1 Triplet Dipole moment          0.00000000     0.00000000     0.00000000
 Dipole moment /Debye                            0.00000000     0.00000000     0.00000000
 
 Results for state 4.1 Triplet
 =============================
 !MCSCF STATE 4.1 Triplet Energy              -191.658789129766
 Nuclear energy                                  0.00000000
 Kinetic energy                                 62.39506780
 One electron energy                          -331.57455616
 Two electron energy                           139.91576703
 Virial ratio                                    4.07169775
 
 !MCSCF STATE 4.1 Triplet Dipole moment          0.00000000     0.00000000     0.00000000
 Dipole moment /Debye                            0.00000000     0.00000000     0.00000000
 
 Results for state 5.1 Triplet
 =============================
 !MCSCF STATE 5.1 Triplet Energy              -191.658789129754
 Nuclear energy                                  0.00000000
 Kinetic energy                                 62.39506780
 One electron energy                          -331.57455616
 Two electron energy                           139.91576703
 Virial ratio                                    4.07169775
 
 !MCSCF STATE 5.1 Triplet Dipole moment          0.00000000     0.00000000     0.00000000
 Dipole moment /Debye                            0.00000000     0.00000000     0.00000000
 
 Results for state 6.1 Triplet
 =============================
 !MCSCF STATE 6.1 Triplet Energy              -191.658789129669
 Nuclear energy                                  0.00000000
 Kinetic energy                                 62.39506780
 One electron energy                          -331.57455615
 Two electron energy                           139.91576702
 Virial ratio                                    4.07169775
 
 !MCSCF STATE 6.1 Triplet Dipole moment          0.00000000     0.00000000     0.00000000
 Dipole moment /Debye                            0.00000000     0.00000000     0.00000000
 
 Results for state 7.1 Triplet
 =============================
 !MCSCF STATE 7.1 Triplet Energy              -191.658789129592
 Nuclear energy                                  0.00000000
 Kinetic energy                                 62.39506779
 One electron energy                          -331.57455614
 Two electron energy                           139.91576701
 Virial ratio                                    4.07169775
 
 !MCSCF STATE 7.1 Triplet Dipole moment          0.00000000     0.00000000     0.00000000
 Dipole moment /Debye                            0.00000000     0.00000000     0.00000000
 
 Results for state 8.1 Triplet
 =============================
 !MCSCF STATE 8.1 Triplet Energy              -191.658789129578
 Nuclear energy                                  0.00000000
 Kinetic energy                                 62.39506779
 One electron energy                          -331.57455614
 Two electron energy                           139.91576701
 Virial ratio                                    4.07169775
 
 !MCSCF STATE 8.1 Triplet Dipole moment          0.00000000     0.00000000     0.00000000
 Dipole moment /Debye                            0.00000000     0.00000000     0.00000000
 
 Results for state 9.1 Triplet
 =============================
 !MCSCF STATE 9.1 Triplet Energy              -191.656948002818
 Nuclear energy                                  0.00000000
 Kinetic energy                                 62.44109024
 One electron energy                          -331.80610750
 Two electron energy                           140.14915950
 Virial ratio                                    4.06940425
 
 !MCSCF STATE 9.1 Triplet Dipole moment          0.00000000     0.00000000     0.00000000
 Dipole moment /Debye                            0.00000000     0.00000000     0.00000000
 
 Results for state 10.1 Triplet
 ==============================
 !MCSCF STATE 10.1 Triplet Energy             -191.656948002788
 Nuclear energy                                  0.00000000
 Kinetic energy                                 62.44109024
 One electron energy                          -331.80610749
 Two electron energy                           140.14915948
 Virial ratio                                    4.06940425
 
 !MCSCF STATE 10.1 Triplet Dipole moment         0.00000000     0.00000000     0.00000000
 Dipole moment /Debye                            0.00000000     0.00000000     0.00000000
 
 Results for state 11.1 Triplet
 ==============================
 !MCSCF STATE 11.1 Triplet Energy             -191.656948002761
 Nuclear energy                                  0.00000000
 Kinetic energy                                 62.44109024
 One electron energy                          -331.80610747
 Two electron energy                           140.14915947
 Virial ratio                                    4.06940425
 
 !MCSCF STATE 11.1 Triplet Dipole moment         0.00000000     0.00000000     0.00000000
 Dipole moment /Debye                            0.00000000     0.00000000     0.00000000
 
 Results for state 12.1 Triplet
 ==============================
 !MCSCF STATE 12.1 Triplet Energy             -191.653520830535
 Nuclear energy                                  0.00000000
 Kinetic energy                                 62.39506780
 One electron energy                          -331.57455615
 Two electron energy                           139.92103532
 Virial ratio                                    4.07161331
 
 !MCSCF STATE 12.1 Triplet Dipole moment         0.00000000     0.00000000     0.00000000
 Dipole moment /Debye                            0.00000000     0.00000000     0.00000000
 
 Results for state 1.1 Singlet
 =============================
 !MCSCF STATE 1.1 Singlet Energy              -191.793579567398
 Nuclear energy                                  0.00000000
 Kinetic energy                                 62.87845229
 One electron energy                          -336.33549799
 Two electron energy                           144.54191842
 Virial ratio                                    4.05022742
 
 !MCSCF STATE 1.1 Singlet Dipole moment          0.00000000     0.00000000     0.00000000
 Dipole moment /Debye                            0.00000000     0.00000000     0.00000000
 
 Results for state 2.1 Singlet
 =============================
 !MCSCF STATE 2.1 Singlet Energy              -191.793579567385
 Nuclear energy                                  0.00000000
 Kinetic energy                                 62.87845229
 One electron energy                          -336.33549799
 Two electron energy                           144.54191842
 Virial ratio                                    4.05022742
 
 !MCSCF STATE 2.1 Singlet Dipole moment          0.00000000     0.00000000     0.00000000
 Dipole moment /Debye                            0.00000000     0.00000000     0.00000000
 
 Results for state 3.1 Singlet
 =============================
 !MCSCF STATE 3.1 Singlet Energy              -191.793579567315
 Nuclear energy                                  0.00000000
 Kinetic energy                                 62.87845229
 One electron energy                          -336.33549799
 Two electron energy                           144.54191842
 Virial ratio                                    4.05022742
 
 !MCSCF STATE 3.1 Singlet Dipole moment          0.00000000     0.00000000     0.00000000
 Dipole moment /Debye                            0.00000000     0.00000000     0.00000000
 
 Results for state 4.1 Singlet
 =============================
 !MCSCF STATE 4.1 Singlet Energy              -191.793579567241
 Nuclear energy                                  0.00000000
 Kinetic energy                                 62.87845229
 One electron energy                          -336.33549799
 Two electron energy                           144.54191843
 Virial ratio                                    4.05022742
 
 !MCSCF STATE 4.1 Singlet Dipole moment          0.00000000     0.00000000     0.00000000
 Dipole moment /Debye                            0.00000000     0.00000000     0.00000000
 
 Results for state 5.1 Singlet
 =============================
 !MCSCF STATE 5.1 Singlet Energy              -191.793579567231
 Nuclear energy                                  0.00000000
 Kinetic energy                                 62.87845229
 One electron energy                          -336.33549799
 Two electron energy                           144.54191843
 Virial ratio                                    4.05022742
 
 !MCSCF STATE 5.1 Singlet Dipole moment          0.00000000     0.00000000     0.00000000
 Dipole moment /Debye                            0.00000000     0.00000000     0.00000000
 
 Results for state 6.1 Singlet
 =============================
 !MCSCF STATE 6.1 Singlet Energy              -191.743998683598
 Nuclear energy                                  0.00000000
 Kinetic energy                                 62.80341065
 One electron energy                          -335.85207951
 Two electron energy                           144.10808083
 Virial ratio                                    4.05308257
 
 !MCSCF STATE 6.1 Singlet Dipole moment          0.00000000     0.00000000     0.00000000
 Dipole moment /Debye                            0.00000000     0.00000000     0.00000000
 
 Results for state 7.1 Singlet
 =============================
 !MCSCF STATE 7.1 Singlet Energy              -191.662301329190
 Nuclear energy                                  0.00000000
 Kinetic energy                                 62.39506780
 One electron energy                          -331.57455616
 Two electron energy                           139.91225483
 Virial ratio                                    4.07175404
 
 !MCSCF STATE 7.1 Singlet Dipole moment          0.00000000     0.00000000     0.00000000
 Dipole moment /Debye                            0.00000000     0.00000000     0.00000000
 
 Results for state 8.1 Singlet
 =============================
 !MCSCF STATE 8.1 Singlet Energy              -191.662301329094
 Nuclear energy                                  0.00000000
 Kinetic energy                                 62.39506780
 One electron energy                          -331.57455615
 Two electron energy                           139.91225482
 Virial ratio                                    4.07175404
 
 !MCSCF STATE 8.1 Singlet Dipole moment          0.00000000     0.00000000     0.00000000
 Dipole moment /Debye                            0.00000000     0.00000000     0.00000000
 
 Results for state 9.1 Singlet
 =============================
 !MCSCF STATE 9.1 Singlet Energy              -191.662301329006
 Nuclear energy                                  0.00000000
 Kinetic energy                                 62.39506779
 One electron energy                          -331.57455614
 Two electron energy                           139.91225481
 Virial ratio                                    4.07175404
 
 !MCSCF STATE 9.1 Singlet Dipole moment          0.00000000     0.00000000     0.00000000
 Dipole moment /Debye                            0.00000000     0.00000000     0.00000000
 
 Results for state 10.1 Singlet
 ==============================
 !MCSCF STATE 10.1 Singlet Energy             -191.650043399847
 Nuclear energy                                  0.00000000
 Kinetic energy                                 62.46981800
 One electron energy                          -331.97014774
 Two electron energy                           140.32010434
 Virial ratio                                    4.06788221
 
 !MCSCF STATE 10.1 Singlet Dipole moment         0.00000000     0.00000000     0.00000000
 Dipole moment /Debye                            0.00000000     0.00000000     0.00000000
 
 Results for state 11.1 Singlet
 ==============================
 !MCSCF STATE 11.1 Singlet Energy             -191.650043399845
 Nuclear energy                                  0.00000000
 Kinetic energy                                 62.46981800
 One electron energy                          -331.97014774
 Two electron energy                           140.32010434
 Virial ratio                                    4.06788221
 
 !MCSCF STATE 11.1 Singlet Dipole moment         0.00000000     0.00000000     0.00000000
 Dipole moment /Debye                            0.00000000     0.00000000     0.00000000
 
 Results for state 12.1 Singlet
 ==============================
 !MCSCF STATE 12.1 Singlet Energy             -191.650043399826
 Nuclear energy                                  0.00000000
 Kinetic energy                                 62.46981800
 One electron energy                          -331.97014776
 Two electron energy                           140.32010436
 Virial ratio                                    4.06788221
 
 !MCSCF STATE 12.1 Singlet Dipole moment         0.00000000     0.00000000     0.00000000
 Dipole moment /Debye                            0.00000000     0.00000000     0.00000000
 
 Results for state 13.1 Singlet
 ==============================
 !MCSCF STATE 13.1 Singlet Energy             -191.650043399804
 Nuclear energy                                  0.00000000
 Kinetic energy                                 62.46981800
 One electron energy                          -331.97014777
 Two electron energy                           140.32010437
 Virial ratio                                    4.06788221
 
 !MCSCF STATE 13.1 Singlet Dipole moment         0.00000000     0.00000000     0.00000000
 Dipole moment /Debye                            0.00000000     0.00000000     0.00000000
 
 Results for state 14.1 Singlet
 ==============================
 !MCSCF STATE 14.1 Singlet Energy             -191.650043399800
 Nuclear energy                                  0.00000000
 Kinetic energy                                 62.46981800
 One electron energy                          -331.97014777
 Two electron energy                           140.32010437
 Virial ratio                                    4.06788221
 
 !MCSCF STATE 14.1 Singlet Dipole moment         0.00000000     0.00000000     0.00000000
 Dipole moment /Debye                            0.00000000     0.00000000     0.00000000
 
 Results for state 15.1 Singlet
 ==============================
 !MCSCF STATE 15.1 Singlet Energy             -191.637123728352
 Nuclear energy                                  0.00000000
 Kinetic energy                                 62.54696365
 One electron energy                          -332.46224144
 Two electron energy                           140.82511771
[...]
 10  1    10    1  |1 1>+         0.00%    8.73%    0.00%    0.00%    0.00%   16.15%    0.00%    0.00%
 11  1    11    1  |1 1>+         0.00%    0.00%    0.00%    0.00%    0.00%    0.00%    8.17%   18.77%
 12  1    12    1  |1 1>+         0.00%    0.00%    0.00%    0.00%    0.11%    0.00%    0.00%    0.00%
 13  1     1    1  |1 0>          0.00%    0.01%    0.00%    0.00%    0.00%    0.05%    0.00%    0.00%
 14  1     2    1  |1 0>          0.01%    0.00%    0.00%    0.00%    0.05%    0.00%    0.00%    0.00%
 15  1     3    1  |1 0>          0.00%    0.00%    0.00%    0.00%    0.00%    0.00%    0.02%    0.00%
 16  1     4    1  |1 0>          0.00%    0.00%   16.00%    3.84%    0.00%    0.00%    0.00%    0.00%
 17  1     5    1  |1 0>          8.91%    0.00%    0.00%    0.00%    5.23%    0.00%    0.00%    0.00%
 18  1     6    1  |1 0>          0.00%    0.00%    0.00%    0.00%    0.00%    0.00%    0.10%   28.67%
 19  1     7    1  |1 0>          0.00%    8.91%    0.00%    0.00%    0.00%    5.23%    0.00%    0.00%
 20  1     8    1  |1 0>          0.00%    0.00%   19.65%    3.13%    0.00%    0.00%    0.00%    0.00%
 21  1     9    1  |1 0>          8.73%    0.00%    0.00%    0.00%   16.15%    0.00%    0.00%    0.00%
 22  1    10    1  |1 0>          0.00%    0.00%    0.00%    0.00%    0.00%    0.00%   26.84%    0.10%
 23  1    11    1  |1 0>          0.00%    8.73%    0.00%    0.00%    0.00%   16.15%    0.00%    0.00%
 24  1    12    1  |1 0>          0.00%    0.00%    0.00%    0.11%    0.00%    0.00%    0.00%    0.00%
 25  1     1    1  |1 1>-         0.00%    0.00%    0.01%    0.05%    0.00%    0.00%    0.00%    0.00%
 26  1     2    1  |1 1>-         0.00%    0.00%    0.00%    0.00%    0.00%    0.00%    0.00%    0.01%
 27  1     3    1  |1 1>-         0.01%    0.00%    0.00%    0.00%    0.05%    0.00%    0.00%    0.00%
 28  1     4    1  |1 1>-         0.00%   34.09%    0.00%    0.00%    0.00%    0.30%    0.00%    0.00%
 29  1     5    1  |1 1>-         0.00%    0.00%    0.00%    0.00%    0.00%    0.00%   23.01%    5.76%
 30  1     6    1  |1 1>-         8.91%    0.00%    0.00%    0.00%    5.23%    0.00%    0.00%    0.00%
 31  1     7    1  |1 1>-         0.00%    0.00%    8.91%    5.23%    0.00%    0.00%    0.00%    0.00%
 32  1     8    1  |1 1>-         0.00%    1.56%    0.00%    0.00%    0.00%    6.67%    0.00%    0.00%
 33  1     9    1  |1 1>-         0.00%    0.00%    0.00%    0.00%    0.00%    0.00%    5.40%   21.54%
 34  1    10    1  |1 1>-         8.73%    0.00%    0.00%    0.00%   16.15%    0.00%    0.00%    0.00%
 35  1    11    1  |1 1>-         0.00%    0.00%    8.73%   16.15%    0.00%    0.00%    0.00%    0.00%
 36  1    12    1  |1 1>-         0.00%    0.00%    0.00%    0.00%    0.00%    0.11%    0.00%    0.00%
 37  1     1    1  |0 0>          0.13%    0.00%    0.00%    0.00%    0.00%    0.00%    0.00%    0.00%
 38  1     2    1  |0 0>          0.00%    0.00%    0.13%    0.00%    0.00%    0.00%    0.00%    0.00%
 39  1     3    1  |0 0>          0.00%    0.13%    0.00%    0.00%    0.00%    0.00%    0.00%    0.00%
 40  1     4    1  |0 0>          0.00%    0.00%    0.00%    0.00%    0.00%    0.00%    0.17%    0.02%
 41  1     5    1  |0 0>          0.00%    0.00%    0.00%    0.00%    0.00%    0.00%    0.02%    0.17%
 42  1     6    1  |0 0>          0.00%    0.00%    0.00%    0.00%    0.00%    0.00%    0.00%    0.00%
 43  1     7    1  |0 0>          0.00%    0.00%    0.00%    0.00%    0.00%   50.05%    0.00%    0.00%
 44  1     8    1  |0 0>          0.00%    0.00%    0.00%   50.05%    0.00%    0.00%    0.00%    0.00%
 45  1     9    1  |0 0>          0.00%    0.00%    0.00%    0.00%   50.05%    0.00%    0.00%    0.00%
 46  1    10    1  |0 0>          0.00%    0.00%    0.00%    0.00%    0.00%    0.00%   16.21%    0.01%
 47  1    11    1  |0 0>          0.00%    0.00%    0.00%    0.00%    0.00%    0.00%    0.01%   16.21%
 48  1    12    1  |0 0>          0.00%    0.00%   28.91%    0.00%    0.00%    0.00%    0.00%    0.00%
 49  1    13    1  |0 0>          0.00%   28.91%    0.00%    0.00%    0.00%    0.00%    0.00%    0.00%
 50  1    14    1  |0 0>         28.91%    0.00%    0.00%    0.00%    0.00%    0.00%    0.00%    0.00%
 51  1    15    1  |0 0>          0.00%    0.00%    0.00%    0.00%    0.00%    0.00%    0.00%    0.00%

   Total
 Nr Sym  State Sym Spin / Nr.     33       34       35       36       37       38       39       40

  1  1     1    1  |1 1>+         0.00%    0.00%    0.00%    0.00%    0.00%    0.00%    0.00%    0.00%
  2  1     2    1  |1 1>+         0.00%    0.00%    0.01%    0.00%    0.00%    0.00%    0.00%    0.00%
  3  1     3    1  |1 1>+         0.01%    0.00%    0.00%    0.00%    0.00%    0.00%    0.00%    0.00%
  4  1     4    1  |1 1>+         0.00%    2.73%    0.00%    0.00%   19.04%    0.00%    0.00%   38.43%
  5  1     5    1  |1 1>+         0.00%    0.00%    7.19%   23.83%    0.00%    0.00%    0.00%    0.00%
  6  1     6    1  |1 1>+         7.19%    0.00%    0.00%    0.00%    0.00%   19.91%    0.00%    0.00%
  7  1     7    1  |1 1>+         0.00%    0.00%    0.00%    0.00%    0.00%    0.00%   33.33%    0.00%
  8  1     8    1  |1 1>+         0.00%   26.05%    0.00%    0.00%   17.90%    0.00%    0.00%   17.96%
  9  1     9    1  |1 1>+         0.00%    0.00%   20.20%    0.00%    0.00%    0.00%    0.00%    0.00%
 10  1    10    1  |1 1>+        20.20%    0.00%    0.00%    0.00%    0.00%    0.00%    0.00%    0.00%
 11  1    11    1  |1 1>+         0.00%    0.00%    0.00%    0.00%    0.00%    0.00%    0.00%    0.00%
 12  1    12    1  |1 1>+         0.00%    0.00%    0.00%    0.00%    0.00%    0.00%    0.00%    0.00%
 13  1     1    1  |1 0>          0.01%    0.00%    0.00%    0.00%    0.00%    0.00%    0.00%    0.00%
 14  1     2    1  |1 0>          0.00%    0.01%    0.00%    0.00%    0.00%    0.00%    0.00%    0.00%
 15  1     3    1  |1 0>          0.00%    0.00%    0.00%    0.00%    0.00%    0.00%    0.00%    0.00%
 16  1     4    1  |1 0>          0.00%    0.00%   12.92%   36.21%    0.00%    0.00%    0.00%    0.00%
 17  1     5    1  |1 0>          0.00%    7.19%    0.00%    0.00%   49.19%    0.00%    0.00%    4.14%
 18  1     6    1  |1 0>          0.00%    0.00%    0.00%    0.00%    0.00%    0.00%   33.33%    0.00%
 19  1     7    1  |1 0>          7.19%    0.00%    0.00%    0.00%    0.00%   45.07%    0.00%    0.00%
 20  1     8    1  |1 0>          0.00%    0.00%   15.86%   23.65%    0.00%    0.00%    0.00%    0.00%
 21  1     9    1  |1 0>          0.00%   20.20%    0.00%    0.00%    0.00%    0.00%    0.00%    0.00%
 22  1    10    1  |1 0>          0.00%    0.00%    0.00%    0.00%    0.00%    0.00%    0.00%    0.00%
 23  1    11    1  |1 0>         20.20%    0.00%    0.00%    0.00%    0.00%    0.00%    0.00%    0.00%
 24  1    12    1  |1 0>          0.00%    0.00%    0.00%    0.00%    0.00%    0.00%    0.00%    0.00%
 25  1     1    1  |1 1>-         0.00%    0.00%    0.01%    0.00%    0.00%    0.00%    0.00%    0.00%
 26  1     2    1  |1 1>-         0.00%    0.00%    0.00%    0.00%    0.00%    0.00%    0.00%    0.00%
 27  1     3    1  |1 1>-         0.00%    0.01%    0.00%    0.00%    0.00%    0.00%    0.00%    0.00%
 28  1     4    1  |1 1>-        27.52%    0.00%    0.00%    0.00%    0.00%   25.57%    0.00%    0.00%
 29  1     5    1  |1 1>-         0.00%    0.00%    0.00%    0.00%    0.00%    0.00%   33.33%    0.00%
 30  1     6    1  |1 1>-         0.00%    7.19%    0.00%    0.00%   13.87%    0.00%    0.00%   39.46%
 31  1     7    1  |1 1>-         0.00%    0.00%    7.19%   16.31%    0.00%    0.00%    0.00%    0.00%
 32  1     8    1  |1 1>-         1.26%    0.00%    0.00%    0.00%    0.00%    9.45%    0.00%    0.00%
 33  1     9    1  |1 1>-         0.00%    0.00%    0.00%    0.00%    0.00%    0.00%    0.00%    0.00%
 34  1    10    1  |1 1>-         0.00%   20.20%    0.00%    0.00%    0.00%    0.00%    0.00%    0.00%
 35  1    11    1  |1 1>-         0.00%    0.00%   20.20%    0.00%    0.00%    0.00%    0.00%    0.00%
 36  1    12    1  |1 1>-         0.00%    0.00%    0.00%    0.00%    0.00%    0.00%    0.00%    0.00%
 37  1     1    1  |0 0>          0.00%    0.19%    0.00%    0.00%    0.00%    0.00%    0.00%    0.00%
 38  1     2    1  |0 0>          0.00%    0.00%    0.19%    0.00%    0.00%    0.00%    0.00%    0.00%
 39  1     3    1  |0 0>          0.19%    0.00%    0.00%    0.00%    0.00%    0.00%    0.00%    0.00%
 40  1     4    1  |0 0>          0.00%    0.00%    0.00%    0.00%    0.00%    0.00%    0.00%    0.00%
 41  1     5    1  |0 0>          0.00%    0.00%    0.00%    0.00%    0.00%    0.00%    0.00%    0.00%
 42  1     6    1  |0 0>          0.00%    0.00%    0.00%    0.00%    0.00%    0.00%    0.00%    0.00%
 43  1     7    1  |0 0>          0.00%    0.00%    0.00%    0.00%    0.00%    0.00%    0.00%    0.00%
 44  1     8    1  |0 0>          0.00%    0.00%    0.00%    0.00%    0.00%    0.00%    0.00%    0.00%
 45  1     9    1  |0 0>          0.00%    0.00%    0.00%    0.00%    0.00%    0.00%    0.00%    0.00%
 46  1    10    1  |0 0>          0.00%    0.00%    0.00%    0.00%    0.00%    0.00%    0.00%    0.00%
 47  1    11    1  |0 0>          0.00%    0.00%    0.00%    0.00%    0.00%    0.00%    0.00%    0.00%
 48  1    12    1  |0 0>          0.00%    0.00%   16.22%    0.00%    0.00%    0.00%    0.00%    0.00%
 49  1    13    1  |0 0>         16.22%    0.00%    0.00%    0.00%    0.00%    0.00%    0.00%    0.00%
 50  1    14    1  |0 0>          0.00%   16.22%    0.00%    0.00%    0.00%    0.00%    0.00%    0.00%
 51  1    15    1  |0 0>          0.00%    0.00%    0.00%    0.00%    0.00%    0.00%    0.00%    0.00%

   Total
 Nr Sym  State Sym Spin / Nr.     41       42       43       44       45       46       47       48

  1  1     1    1  |1 1>+         0.00%    0.00%    0.00%    0.00%    0.00%    0.02%    0.06%    0.00%
  2  1     2    1  |1 1>+         0.00%    0.00%    0.00%    0.00%    0.03%    0.00%    0.00%    0.00%
  3  1     3    1  |1 1>+         0.00%    0.00%    0.03%    0.00%    0.00%    0.00%    0.00%    0.00%
  4  1     4    1  |1 1>+         0.00%    0.00%    0.00%    0.03%    0.00%    0.00%    0.00%    0.19%
  5  1     5    1  |1 1>+         0.00%   29.50%    0.00%    0.00%    0.03%    0.00%    0.00%    0.00%
  6  1     6    1  |1 1>+        33.42%    0.00%    0.03%    0.00%    0.00%    0.00%    0.00%    0.00%
  7  1     7    1  |1 1>+         0.00%    0.00%    0.00%    0.00%    0.00%    1.43%    0.58%    0.00%
  8  1     8    1  |1 1>+         0.00%    0.00%    0.00%    0.00%    0.00%    0.00%    0.00%    1.82%
  9  1     9    1  |1 1>+         0.00%    0.00%    0.00%    0.00%    8.40%    0.00%    0.00%    0.00%
 10  1    10    1  |1 1>+         0.00%    0.00%    8.40%    0.00%    0.00%    0.00%    0.00%    0.00%
 11  1    11    1  |1 1>+         0.00%    0.00%    0.00%    0.00%    0.00%    8.05%   20.00%    0.00%
 12  1    12    1  |1 1>+         0.00%    0.00%    0.00%   70.64%    0.00%    0.00%    0.00%    0.00%
 13  1     1    1  |1 0>          0.00%    0.00%    0.03%    0.00%    0.00%    0.00%    0.00%    0.00%
 14  1     2    1  |1 0>          0.00%    0.00%    0.00%    0.03%    0.00%    0.00%    0.00%    0.06%
 15  1     3    1  |1 0>          0.00%    0.00%    0.00%    0.00%    0.00%    0.08%    0.00%    0.00%
 16  1     4    1  |1 0>          0.00%   11.82%    0.00%    0.00%    0.02%    0.00%    0.00%    0.00%
 17  1     5    1  |1 0>          0.00%    0.00%    0.00%    0.03%    0.00%    0.00%    0.00%    0.50%
 18  1     6    1  |1 0>          0.00%    0.00%    0.00%    0.00%    0.00%    0.00%    2.00%    0.00%
 19  1     7    1  |1 0>          8.27%    0.00%    0.03%    0.00%    0.00%    0.00%    0.00%    0.00%
 20  1     8    1  |1 0>          0.00%   21.66%    0.00%    0.00%    0.02%    0.00%    0.00%    0.00%
 21  1     9    1  |1 0>          0.00%    0.00%    0.00%    8.40%    0.00%    0.00%    0.00%   21.03%
 22  1    10    1  |1 0>          0.00%    0.00%    0.00%    0.00%    0.00%   27.99%    0.05%    0.00%
 23  1    11    1  |1 0>          0.00%    0.00%    8.40%    0.00%    0.00%    0.00%    0.00%    0.00%
 24  1    12    1  |1 0>          0.00%    0.00%    0.00%    0.00%   70.64%    0.00%    0.00%    0.00%
 25  1     1    1  |1 1>-         0.00%    0.00%    0.00%    0.00%    0.03%    0.00%    0.00%    0.00%
 26  1     2    1  |1 1>-         0.00%    0.00%    0.00%    0.00%    0.00%    0.02%    0.06%    0.00%
 27  1     3    1  |1 1>-         0.00%    0.00%    0.00%    0.03%    0.00%    0.00%    0.00%    0.06%
 28  1     4    1  |1 1>-         8.93%    0.00%    0.00%    0.00%    0.00%    0.00%    0.00%    0.00%
 29  1     5    1  |1 1>-         0.00%    0.00%    0.00%    0.00%    0.00%    1.58%    0.43%    0.00%
 30  1     6    1  |1 1>-         0.00%    0.00%    0.00%    0.03%    0.00%    0.00%    0.00%    0.50%
 31  1     7    1  |1 1>-         0.00%   37.02%    0.00%    0.00%    0.03%    0.00%    0.00%    0.00%
 32  1     8    1  |1 1>-        49.38%    0.00%    0.04%    0.00%    0.00%    0.00%    0.00%    0.00%
 33  1     9    1  |1 1>-         0.00%    0.00%    0.00%    0.00%    0.00%    6.02%   22.02%    0.00%
 34  1    10    1  |1 1>-         0.00%    0.00%    0.00%    8.40%    0.00%    0.00%    0.00%   21.03%
 35  1    11    1  |1 1>-         0.00%    0.00%    0.00%    0.00%    8.40%    0.00%    0.00%    0.00%
 36  1    12    1  |1 1>-         0.00%    0.00%   70.64%    0.00%    0.00%    0.00%    0.00%    0.00%
 37  1     1    1  |0 0>          0.00%    0.00%    0.00%    0.00%    0.00%    0.00%    0.00%    0.01%
 38  1     2    1  |0 0>          0.00%    0.00%    0.00%    0.00%    0.00%    0.00%    0.00%    0.00%
 39  1     3    1  |0 0>          0.00%    0.00%    0.00%    0.00%    0.00%    0.00%    0.00%    0.00%
 40  1     4    1  |0 0>          0.00%    0.00%    0.00%    0.00%    0.00%    0.01%    0.00%    0.00%
 41  1     5    1  |0 0>          0.00%    0.00%    0.00%    0.00%    0.00%    0.00%    0.01%    0.00%
 42  1     6    1  |0 0>          0.00%    0.00%    0.00%    0.00%    0.00%    0.00%    0.00%    0.00%
 43  1     7    1  |0 0>          0.00%    0.00%   12.40%    0.00%    0.00%    0.00%    0.00%    0.00%
 44  1     8    1  |0 0>          0.00%    0.00%    0.00%    0.00%   12.40%    0.00%    0.00%    0.00%
 45  1     9    1  |0 0>          0.00%    0.00%    0.00%   12.40%    0.00%    0.00%    0.00%    0.00%
 46  1    10    1  |0 0>          0.00%    0.00%    0.00%    0.00%    0.00%   54.79%    0.01%    0.00%
 47  1    11    1  |0 0>          0.00%    0.00%    0.00%    0.00%    0.00%    0.01%   54.79%    0.00%
 48  1    12    1  |0 0>          0.00%    0.00%    0.00%    0.00%    0.00%    0.00%    0.00%    0.00%
 49  1    13    1  |0 0>          0.00%    0.00%    0.00%    0.00%    0.00%    0.00%    0.00%    0.00%
 50  1    14    1  |0 0>          0.00%    0.00%    0.00%    0.00%    0.00%    0.00%    0.00%   54.80%
 51  1    15    1  |0 0>          0.00%    0.00%    0.00%    0.00%    0.00%    0.00%    0.00%    0.00%

   Total
 Nr Sym  State Sym Spin / Nr.     49       50       51

  1  1     1    1  |1 1>+         0.00%    0.00%    0.05%
  2  1     2    1  |1 1>+         0.00%    0.06%    0.00%
  3  1     3    1  |1 1>+         0.06%    0.00%    0.00%
  4  1     4    1  |1 1>+         0.00%    0.00%    0.00%
  5  1     5    1  |1 1>+         0.00%    0.50%    0.00%
  6  1     6    1  |1 1>+         0.50%    0.00%    0.00%
  7  1     7    1  |1 1>+         0.00%    0.00%    0.00%
  8  1     8    1  |1 1>+         0.00%    0.00%    0.00%
  9  1     9    1  |1 1>+         0.00%   21.03%    0.00%
 10  1    10    1  |1 1>+        21.03%    0.00%    0.00%
 11  1    11    1  |1 1>+         0.00%    0.00%    8.20%
 12  1    12    1  |1 1>+         0.00%    0.00%    0.00%
 13  1     1    1  |1 0>          0.06%    0.00%    0.00%
 14  1     2    1  |1 0>          0.00%    0.00%    0.00%
 15  1     3    1  |1 0>          0.00%    0.00%    0.05%
 16  1     4    1  |1 0>          0.00%    0.90%    0.00%
 17  1     5    1  |1 0>          0.00%    0.00%    0.00%
 18  1     6    1  |1 0>          0.00%    0.00%    0.00%
 19  1     7    1  |1 0>          0.50%    0.00%    0.00%
 20  1     8    1  |1 0>          0.00%    1.11%    0.00%
 21  1     9    1  |1 0>          0.00%    0.00%    0.00%
 22  1    10    1  |1 0>          0.00%    0.00%    8.20%
 23  1    11    1  |1 0>         21.03%    0.00%    0.00%
 24  1    12    1  |1 0>          0.00%    0.00%    0.00%
 25  1     1    1  |1 1>-         0.00%    0.06%    0.00%
 26  1     2    1  |1 1>-         0.00%    0.00%    0.05%
 27  1     3    1  |1 1>-         0.00%    0.00%    0.00%
 28  1     4    1  |1 1>-         1.92%    0.00%    0.00%
 29  1     5    1  |1 1>-         0.00%    0.00%    0.00%
 30  1     6    1  |1 1>-         0.00%    0.00%    0.00%
 31  1     7    1  |1 1>-         0.00%    0.50%    0.00%
 32  1     8    1  |1 1>-         0.09%    0.00%    0.00%
 33  1     9    1  |1 1>-         0.00%    0.00%    8.20%
 34  1    10    1  |1 1>-         0.00%    0.00%    0.00%
 35  1    11    1  |1 1>-         0.00%   21.03%    0.00%
 36  1    12    1  |1 1>-         0.00%    0.00%    0.00%
 37  1     1    1  |0 0>          0.00%    0.00%    0.00%
 38  1     2    1  |0 0>          0.00%    0.01%    0.00%
 39  1     3    1  |0 0>          0.01%    0.00%    0.00%
 40  1     4    1  |0 0>          0.00%    0.00%    0.00%
 41  1     5    1  |0 0>          0.00%    0.00%    0.00%
 42  1     6    1  |0 0>          0.00%    0.00%    0.07%
 43  1     7    1  |0 0>          0.00%    0.00%    0.00%
 44  1     8    1  |0 0>          0.00%    0.00%    0.00%
 45  1     9    1  |0 0>          0.00%    0.00%    0.00%
 46  1    10    1  |0 0>          0.00%    0.00%    0.00%
 47  1    11    1  |0 0>          0.00%    0.00%    0.00%
 48  1    12    1  |0 0>          0.00%   54.80%    0.00%
 49  1    13    1  |0 0>         54.80%    0.00%    0.00%
 50  1    14    1  |0 0>          0.00%    0.00%    0.00%
 51  1    15    1  |0 0>          0.00%    0.00%   75.19%



 **********************************************************************************************************************************
 DATASETS  * FILE   NREC   LENGTH (MB)   RECORD NAMES
              1      21       94.20       500      610      700      900      950      970     1000      129      960     1100   
                                          VAR    BASINP    GEOM    SYMINP    ZMAT    AOBASIS   BASIS     P2S    ABASIS      S 
                                         1400     1410     1420     1200     1210     1080     1700     1600     1650     1380   
                                           T        V       ECP      H0       H01     AOSYM    OPER      SMH    MOLCAS    JKOP   
                                         1700(1)
                                         OPER   

              2       7     5707.94       700     1000      520     2100     2140     5201     5101   
                                         GEOM     BASIS   MCVARS     RHF     MCSCF    MRCI     MRCI   

 PROGRAMS   *        TOTAL        CI        CI        CI     MULTI   RHF-SCF       INT
 CPU TIMES  *     26081.55  20357.54   3451.46   2250.25     10.06      1.82     10.03
 REAL TIME  *     27315.69 SEC
 DISK USED  *         5.67 GB (local),       92.05 GB (total)
 SF USED    *        31.80 GB
 GA USED    *         0.00 MB       (max)       0.00 MB       (current)
 **********************************************************************************************************************************

 CI/USERDEF energy=   -192.478401028869

              CI              CI           MULTI         RHF-SCF
   -192.42275322   -192.43392399   -191.65004340   -191.86439742
 **********************************************************************************************************************************
 Molpro calculation terminated with 1 warning(s)
