
 Working directory              : /wrk/irikura/molpro.rz3TVhAFMJ/
 Global scratch directory       : /wrk/irikura/molpro.rz3TVhAFMJ/
 Wavefunction directory         : /home/irikura/wfu/
 Main file repository           : /wrk/irikura/molpro.rz3TVhAFMJ/

 id        : nistki

 Nodes            nprocs
 pn112695.nist.gov    8
 GA implementation: MPI file
 GA implementation (serial work in mppx): MPI file

 Using customized tuning parameters: mindgm=1; mindgv=20; mindgc=4; mindgr=1; noblas=0; minvec=7
 default implementation of scratch files=sf  


 Variables initialized (1040), CPU time= 0.00 sec
 ***,Pb SO-CI
 memory,1500,M;
 
 gprint,orbitals,civector;
 
 symmetry,xyz
 geometry={Pb};
 
 basis=aug-cc-pwCV5Z-PP
 
                                                                                 ! spherical anion orbitals (4S)
 {rhf; wf,charge=-1,sym=2,spin=3}
 
 NTRIP=12
 NSING=9
 
 {multi
     closed,6,3
     occ,7,9
     wf,charge=0,sym=1,spin=2;state,NTRIP;
     wf,charge=0,sym=1,spin=0;state,NSING;
     expec2,lxx,lyy,lzz;
 }
 table, energy, ll
 title, Energies and &lt;L**2&gt; values
 
 core,0,0
 
 {ci;wf,sym=1,spin=2;state,NTRIP; save,5201.2}
 hlsdiag = energd4
 {ci;wf,sym=1,spin=0;state,NSING; save,5203.2}
 hlsdiag(NTRIP+1) = energd4
 
 table,hlsdiag
 
 {ci;hlsmat,ecp,5201.2,5203.2;print,vls=0,hls=0}                                 !compute and diagonalize SO matrix
 Commands initialized (846), CPU time= 0.01 sec, 717 directives.
 Default parameters read. Elapsed time= 0.11 sec

 Checking input...
 Passed
1


                                         ***  PROGRAM SYSTEM MOLPRO  ***
                                       Copyright, TTI GmbH Stuttgart, 2015
                                    Version 2023.2 linked Fri Sep 22 03:27:09 2023


 **********************************************************************************************************************************
 LABEL *   Pb SO-CI                                                                                                                                                      
  (32 PROC) 64 bit mpp version                                                           DATE: 27-Nov-24          TIME: 16:41:02  
 **********************************************************************************************************************************

 SHA1:             3c61bfe44d37c8635c785372c339f5cbdd4e4b59
 **********************************************************************************************************************************

 Memory per process:      1500 MW
 Total memory per node:  12000 MW

 GA preallocation disabled
 GA check disabled

 Variable memory set to 1500.0 MW


 ZSYMEL=XYZ

 SETTING BASIS          =    AUG-CC-PWCV5Z-PP


 Recomputing integrals since basis changed


 Using spherical harmonics

 Library entry Pb   ECP ECP60MDF                 selected for group  1
 Library entry PB     S aug-cc-pwCV5Z-PP     selected for orbital group  1
 Library entry PB     P aug-cc-pwCV5Z-PP     selected for orbital group  1
 Library entry PB     D aug-cc-pwCV5Z-PP     selected for orbital group  1
 Library entry PB     F aug-cc-pwCV5Z-PP     selected for orbital group  1
 Library entry PB     G aug-cc-pwCV5Z-PP     selected for orbital group  1
 Library entry PB     H aug-cc-pwCV5Z-PP     selected for orbital group  1
 Library entry PB     I aug-cc-pwCV5Z-PP     selected for orbital group  1


 PROGRAM * SEWARD (Integral evaluation for generally contracted gaussian basis sets)     Author: Roland Lindh, 1990

 Geometry written to block  1 of record 700

 Orientation using atomic masses  
 Molecule type: Atom
 User-specified symmetry elements: XYZ
 Symmetry elements: XYZ
 Rotational constants:       0.0000000      0.0000000      0.0000000 GHz  (calculated with average atomic masses)

 Point group  Ci  



 ATOMIC COORDINATES

 NR  ATOM    CHARGE       X              Y              Z

   1  PB     22.00    0.000000000    0.000000000    0.000000000

 NUCLEAR CHARGE:                   22
 NUMBER OF PRIMITIVE AOS:         459
 NUMBER OF SYMMETRY AOS:          327
 NUMBER OF CONTRACTIONS:          265   (  129Ag  +  136Au  )
 NUMBER OF INNER CORE ORBITALS:     0   (    0Ag  +    0Au  )
 NUMBER OF OUTER CORE ORBITALS:     9   (    6Ag  +    3Au  )
 NUMBER OF VALENCE ORBITALS:        4   (    1Ag  +    3Au  )


 LX: Ag           LY: Ag           LZ: Ag 


 NUCLEAR REPULSION ENERGY    0.00000000

 EXTRA SYMMETRY OF AOS IN SYMMETRY 1:   1 1 1 1 1 1 1 1 1 1   1 1 2 3 4 5 6 2 3 4   5 6 2 3 4 5 6 2 3 4   5 6 2 3 4 5 6 2 3 4
                                        5 6 2 3 4 5 6 2 3 4   5 6 2 3 4 5 6 2 3 4   5 6 7 8 91011121314  15 7 8 9101112131415
                                        7 8 9101112131415 7   8 9101112131415 7 8   9101112131415 7 8 9  10111213141516171819
                                       202122232425262728
 EXTRA SYMMETRY OF AOS IN SYMMETRY 2:   1 2 3 1 2 3 1 2 3 1   2 3 1 2 3 1 2 3 1 2   3 1 2 3 1 2 3 1 2 3   1 2 3 1 2 3 4 5 6 7
                                        8 910 4 5 6 7 8 910   4 5 6 7 8 910 4 5 6   7 8 910 4 5 6 7 8 9  10 4 5 6 7 8 910 4 5
                                        6 7 8 910 4 5 6 7 8   9101112131415161718  19202111121314151617  18192021111213141516
                                       17181920211112131415  161718192021


 Eigenvalues of metric

         1 0.182E-04 0.215E-04 0.215E-04 0.215E-04 0.215E-04 0.215E-04 0.416E-04 0.287E-03
         2 0.228E-05 0.228E-05 0.228E-05 0.344E-03 0.344E-03 0.344E-03 0.263E-02 0.263E-02


 Contracted 2-electron integrals neglected if value below      1.0D-12
 AO integral compression algorithm  1   Integral accuracy      1.0D-12

     560.988 MB (compressed) written to integral file ( 13.7%)

     Node minimum: 59.507 MB, node maximum: 84.148 MB


 NUMBER OF SORTED TWO-ELECTRON INTEGRALS:   39102068.     BUFFER LENGTH:  32768
 NUMBER OF SEGMENTS:   3  SEGMENT LENGTH:   15998580      RECORD LENGTH: 524288

 Memory used in sort:      16.56 MW

 SORT1 READ   511790813. AND WROTE     6708865. INTEGRALS IN     21 RECORDS. CPU TIME:     1.83 SEC, REAL TIME:     1.92 SEC
 SORT2 READ    53582235. AND WROTE   312900871. INTEGRALS IN   2104 RECORDS. CPU TIME:     0.70 SEC, REAL TIME:     0.78 SEC

 Node minimum:    39095432.  Node maximum:    39129437. integrals

 OPERATOR DM      FOR CENTER  0  COORDINATES:    0.000000    0.000000    0.000000


 **********************************************************************************************************************************
 DATASETS  * FILE   NREC   LENGTH (MB)   RECORD NAMES
              1      19       30.46       500      610      700      900      950      970     1000      129      960     1100   
                                          VAR    BASINP    GEOM    SYMINP    ZMAT    AOBASIS   BASIS     P2S    ABASIS      S 
                                         1400     1410     1420     1200     1210     1080     1700     1600     1650   
                                           T        V       ECP      H0       H01     AOSYM    OPER      SMH    MOLCAS    

 PROGRAMS   *        TOTAL       INT
 CPU TIMES  *         9.10      8.91
 REAL TIME  *        10.27 SEC
 DISK USED  *        30.87 MB (local),        1.33 GB (total)
 GA USED    *         0.00 MB       (max)       0.00 MB       (current)
 **********************************************************************************************************************************


 Program * Restricted Hartree-Fock

 Orbital guess generated from atomic densities. Full valence occupancy:    7   6

 Initial alpha occupancy:   6   7
 Initial beta  occupancy:   4   6

 NELEC=   23   SYM=2   MS2= 3   THRE=1.0D-08   THRD=3.2D-06   THRG=3.2D-06  HFMA2=F  DIIS_START=2   DIIS_MAX=10   DIIS_INCORE=F

 Level shifts:    0.00 (CLOSED)    0.00 (OPEN)    0.30 (GAP_MIN)

 ITER           ETOT              DE          GRAD        DDIFF     DIIS  NEXP   TIME(IT)  TIME(TOT)  DIAG
   1     -140.99982922    -140.99982922     0.00D+00     0.17D+00     0     0       0.18      0.34    start
   2     -179.13724883     -38.13741961     0.12D+00     0.20D+00     1     0       0.20      0.54    diag2
   3     -187.65821793      -8.52096910     0.12D+00     0.69D-01     2     0       0.20      0.74    diag2
   4     -191.43589977      -3.77768184     0.56D-01     0.52D-01     3     0       0.19      0.93    diag2
   5     -191.76236040      -0.32646063     0.11D-01     0.20D-01     4     0       0.20      1.13    diag2
   6     -191.85259294      -0.09023254     0.35D-02     0.59D-02     5     0       0.19      1.32    diag2
   7     -191.86165799      -0.00906506     0.11D-02     0.19D-02     6     0       0.19      1.51    diag2
   8     -191.86377777      -0.00211978     0.51D-03     0.75D-03     7     0       0.20      1.71    fixocc
   9     -191.86430757      -0.00052980     0.17D-03     0.68D-03     8     0       0.19      1.90    diag2
  10     -191.86437455      -0.00006697     0.11D-03     0.20D-03     9     0       0.19      2.09    diag2/orth
  11     -191.86439091      -0.00001636     0.22D-04     0.95D-04     9     0       0.21      2.30    diag2
  12     -191.86439559      -0.00000469     0.11D-04     0.40D-04     9     0       0.19      2.49    diag2
  13     -191.86439698      -0.00000139     0.46D-05     0.33D-04     9     0       0.21      2.70    diag2
  14     -191.86439720      -0.00000022     0.18D-05     0.15D-04     9     0       0.19      2.89    diag2
  15     -191.86439723      -0.00000003     0.71D-06     0.54D-05     9     0       0.20      3.09    diag2
  16     -191.86439724      -0.00000001     0.30D-06     0.32D-05     9     0       0.19      3.28    diag2
  17     -191.86439724      -0.00000000     0.10D-06     0.35D-06     0     0       0.20      3.48    diag

 Final alpha occupancy:   7   6
 Final beta  occupancy:   7   3

 !RHF STATE 1.2 Energy               -191.864397240740
  RHF One-electron energy            -340.681776747350
  RHF Two-electron energy             148.817379506610
  RHF Kinetic energy                   62.712671790019
  RHF Nuclear energy                    0.000000000000
  RHF Virial quotient                  -3.059419918883

 !RHF STATE 1.2 Dipole moment           0.00000000     0.00000000     0.00000000
 Dipole moment /Debye                   0.00000000     0.00000000     0.00000000

 ELECTRON ORBITALS
 =================

  Orbital  Occupation    Energy    Cen Mu Typ  Coefficients
    1.1     2.00000    -5.94945     1  1  s    1.00000
    2.1     2.00000    -0.84962     1  1  d0  -0.51226    1  1  d2+  0.85799
    3.1     2.00000    -0.84962     1  1  d1+  0.99935
    4.1     2.00000    -0.84962     1  1  d2-  0.99921
    5.1     2.00000    -0.84962     1  1  d1-  0.99935
    6.1     2.00000    -0.84962     1  1  d0   0.85814    1  1  d2+  0.51212
    7.1     2.00000    -0.35280     1  1  s   -0.38141    1  5  s    0.52245    1  6  s    0.42682    1 11  s   -0.25488
    1.2     2.00000    -3.63192     1  1  px   1.00018
    2.2     2.00000    -3.63191     1  1  pz   1.00025
    3.2     2.00000    -3.63191     1  1  py   1.00018
    4.2     1.00000    -0.05163     1  5  py   0.35609    1  6  py   0.37649    1  7  py   0.25408
    5.2     1.00000    -0.05163     1  5  pz   0.35611    1  6  pz   0.37651    1  7  pz   0.25410
    6.2     1.00000    -0.05163     1  5  px   0.35609    1  6  px   0.37647    1  7  px   0.25412


 HOMO      6.2    -0.051631 =      -1.4050eV
 LUMO      7.2     0.120361 =       3.2752eV
 LUMO-HOMO         0.171992 =       4.6801eV

 Orbitals saved in record  2100.2


 **********************************************************************************************************************************
 DATASETS  * FILE   NREC   LENGTH (MB)   RECORD NAMES
              1      19       30.46       500      610      700      900      950      970     1000      129      960     1100   
                                          VAR    BASINP    GEOM    SYMINP    ZMAT    AOBASIS   BASIS     P2S    ABASIS      S 
                                         1400     1410     1420     1200     1210     1080     1700     1600     1650   
                                           T        V       ECP      H0       H01     AOSYM    OPER      SMH    MOLCAS    

              2       4        1.51       700     1000      520     2100   
                                         GEOM     BASIS   MCVARS     RHF  

 PROGRAMS   *        TOTAL   RHF-SCF       INT
 CPU TIMES  *        12.66      3.56      8.91
 REAL TIME  *        14.50 SEC
 DISK USED  *        36.95 MB (local),        1.38 GB (total)
 GA USED    *         0.00 MB       (max)       0.00 MB       (current)
 **********************************************************************************************************************************
 SETTING NTRIP          =        12.00000000                                  
 SETTING NSING          =         9.00000000                                  

 PROGRAM * MULTI (Direct Multiconfiguration SCF)       Authors: P.J. Knowles, H.-J. Werner (1984)
                                                                D.A. Kreplin, P.J. Knowles, H.-J. Werner (2019)

 Number of closed-shell orbitals:   9 (    6    3)
 Number of active  orbitals:        7 (    1    6)
 Number of external orbitals:     249 (  122  127)

 State symmetry 1

 Number of active electrons:   4    Spin symmetry=Triplet   Space symmetry=1
 Number of states:            12
 Number of CSFs:             120   (135 determinants, 245 intermediate states)

 State symmetry 2

 Number of active electrons:   4    Spin symmetry=Singlet   Space symmetry=1
 Number of states:             9
 Number of CSFs:             126   (261 determinants, 441 intermediate states)

 Molecular orbitals read from record     2100.2  Type=RHF/CANONICAL  
 *** IN SYMMETRY 1 ORBITAL  2 SYMMETRY CONTAMINATION OF 0.383D+00 HAS BEEN REMOVED
 *** IN SYMMETRY 1 ORBITAL  3 SYMMETRY CONTAMINATION OF 0.154D-01 HAS BEEN REMOVED
 *** IN SYMMETRY 1 ORBITAL  4 SYMMETRY CONTAMINATION OF 0.234D-01 HAS BEEN REMOVED
 *** IN SYMMETRY 1 ORBITAL  5 SYMMETRY CONTAMINATION OF 0.165D-01 HAS BEEN REMOVED
 *** IN SYMMETRY 1 ORBITAL  6 SYMMETRY CONTAMINATION OF 0.381D+00 HAS BEEN REMOVED

 EXTRA SYMMETRY OF MOS IN SYMMETRY 1:   1 5 4 3 6 2 1 1 5 4   3 2 6 1 5 3 4 2 6 7  11 8141015 91312 1 2   6 4 3 510 91315 714
                                        81211 6 2 4 3 5 110   91315 7 8141211 5 4   3 6 2 110 91315 7 8  14121116282220211824
                                       261917232527 5 4 3 6   210 91315 714 81211   1 5 4 3 6 210 91315   714 81211 1 5 4 3 6
                                        2 1 5 4 3 6 2 1 1
 *** IN SYMMETRY 2 ORBITAL  1 SYMMETRY CONTAMINATION OF 0.128D-01 HAS BEEN REMOVED
 *** IN SYMMETRY 2 ORBITAL  2 SYMMETRY CONTAMINATION OF 0.165D-02 HAS BEEN REMOVED
 *** IN SYMMETRY 2 ORBITAL  3 SYMMETRY CONTAMINATION OF 0.112D-01 HAS BEEN REMOVED
 *** IN SYMMETRY 2 ORBITAL  4 SYMMETRY CONTAMINATION OF 0.116D-01 HAS BEEN REMOVED
 *** IN SYMMETRY 2 ORBITAL  5 SYMMETRY CONTAMINATION OF 0.217D-02 HAS BEEN REMOVED
 *** IN SYMMETRY 2 ORBITAL  6 SYMMETRY CONTAMINATION OF 0.125D-01 HAS BEEN REMOVED
 *** IN SYMMETRY 2 ORBITAL  7 SYMMETRY CONTAMINATION OF 0.112D-01 HAS BEEN REMOVED
 *** IN SYMMETRY 2 ORBITAL  8 SYMMETRY CONTAMINATION OF 0.183D-02 HAS BEEN REMOVED
 *** IN SYMMETRY 2 ORBITAL  9 SYMMETRY CONTAMINATION OF 0.125D-01 HAS BEEN REMOVED
 EXTRA SYMMETRY OF MOS IN SYMMETRY 2:   1 3 2 2 3 1 2 3 1 2   3 1 710 9 4 8 5 6 3   2 1 5 6 4 810 9 7 7  10 9 8 4 6 5 3 2 120
                                       13181511171614211912   710 9 8 4 6 5 1 3 2  20131815111617142119  12 710 9 8 4 6 52013
                                       181511171621141912 7  10 9 8 4 6 5 1 3 2 7  10 9 8 4 6 511131815  20171621141912 1 3 2
                                        710 9 8 4 5 6 1 3 2   1 2 3 1 2 3

 Wavefunction dump at record             2140.2

 Convergence thresholds  0.10E-04 (gradient)  0.10E-05 (energy)

 Weight factors for state symmetry  1:    0.04762   0.04762   0.04762   0.04762   0.04762   0.04762   0.04762   0.04762
                                          0.04762   0.04762   0.04762   0.04762
 Weight factors for state symmetry  2:    0.04762   0.04762   0.04762   0.04762   0.04762   0.04762   0.04762   0.04762
                                          0.04762
 
 Number of orbital rotations:  2021  ( 24 closed/active, 1113 closed/virtual, 0 active/active, 884 active/virtual )
 Total number of variables:    5990
 
 Second-order MCSCF: L-BFGS accelerated
 
 ITER  MIC  NCI  NEG     ENERGY(VAR)    ENERGY(PROJ) ENERGY CHANGE       GRAD(0)  GRAD(ORB)   GRAD(CI)      STEP      TIME
   1   13   18    0   -191.69204363    -191.72818770   -0.03614407    0.15987576 0.00145158 0.00000000  0.88E+00      2.13
   2    6   10    0   -191.72775416    -191.72954779   -0.00179363    0.10294231 0.00005542 0.00000000  0.11E+00      4.05
   3    5   10    0   -191.72955312    -191.72955318   -0.00000006    0.00055659 0.00000011 0.00000000  0.40E-03      5.81
   4    3    6    0   -191.72955318    -191.72955318    0.00000000    0.00000003 0.00000000 0.00000000  0.44E-07      7.35

 CONVERGENCE REACHED!  Final gradient:    0.00000000 ( 0.37E-08)
                       Final energy:   -191.72955318
 
 Results for state 1.1 Triplet
 =============================
 !MCSCF STATE 1.1 Triplet Energy              -191.835571489786
 Nuclear energy                                  0.00000000
 Kinetic energy                                 62.87772632
 One electron energy                          -336.36499954
 Two electron energy                           144.52942805
 Virial ratio                                    4.05093048
 
 !MCSCF STATE 1.1 Triplet Dipole moment          0.00000000     0.00000000     0.00000000
 Dipole moment /Debye                            0.00000000     0.00000000     0.00000000
 
 Results for state 2.1 Triplet
 =============================
 !MCSCF STATE 2.1 Triplet Energy              -191.835571489285
 Nuclear energy                                  0.00000000
 Kinetic energy                                 62.87772633
 One electron energy                          -336.36499957
 Two electron energy                           144.52942808
 Virial ratio                                    4.05093048
 
 !MCSCF STATE 2.1 Triplet Dipole moment          0.00000000     0.00000000     0.00000000
 Dipole moment /Debye                            0.00000000     0.00000000     0.00000000
 
 Results for state 3.1 Triplet
 =============================
 !MCSCF STATE 3.1 Triplet Energy              -191.835571489163
 Nuclear energy                                  0.00000000
 Kinetic energy                                 62.87772634
 One electron energy                          -336.36499958
 Two electron energy                           144.52942809
 Virial ratio                                    4.05093048
 
 !MCSCF STATE 3.1 Triplet Dipole moment          0.00000000     0.00000000     0.00000000
 Dipole moment /Debye                            0.00000000     0.00000000     0.00000000
 
 Results for state 4.1 Triplet
 =============================
 !MCSCF STATE 4.1 Triplet Energy              -191.670651208683
 Nuclear energy                                  0.00000000
 Kinetic energy                                 62.41197353
 One electron energy                          -331.84232831
 Two electron energy                           140.17167710
 Virial ratio                                    4.07105577
 
 !MCSCF STATE 4.1 Triplet Dipole moment          0.00000000     0.00000000     0.00000000
 Dipole moment /Debye                            0.00000000     0.00000000     0.00000000
 
 Results for state 5.1 Triplet
 =============================
 !MCSCF STATE 5.1 Triplet Energy              -191.670651208639
 Nuclear energy                                  0.00000000
 Kinetic energy                                 62.41197353
 One electron energy                          -331.84232831
 Two electron energy                           140.17167710
 Virial ratio                                    4.07105577
 
 !MCSCF STATE 5.1 Triplet Dipole moment          0.00000000     0.00000000     0.00000000
 Dipole moment /Debye                            0.00000000     0.00000000     0.00000000
 
 Results for state 6.1 Triplet
 =============================
 !MCSCF STATE 6.1 Triplet Energy              -191.670651208602
 Nuclear energy                                  0.00000000
 Kinetic energy                                 62.41197353
 One electron energy                          -331.84232830
 Two electron energy                           140.17167709
 Virial ratio                                    4.07105577
 
 !MCSCF STATE 6.1 Triplet Dipole moment          0.00000000     0.00000000     0.00000000
 Dipole moment /Debye                            0.00000000     0.00000000     0.00000000
 
 Results for state 7.1 Triplet
 =============================
 !MCSCF STATE 7.1 Triplet Energy              -191.670651208441
 Nuclear energy                                  0.00000000
 Kinetic energy                                 62.41197352
 One electron energy                          -331.84232829
 Two electron energy                           140.17167708
 Virial ratio                                    4.07105577
 
 !MCSCF STATE 7.1 Triplet Dipole moment          0.00000000     0.00000000     0.00000000
 Dipole moment /Debye                            0.00000000     0.00000000     0.00000000
 
 Results for state 8.1 Triplet
 =============================
 !MCSCF STATE 8.1 Triplet Energy              -191.670651208440
 Nuclear energy                                  0.00000000
 Kinetic energy                                 62.41197352
 One electron energy                          -331.84232829
 Two electron energy                           140.17167708
 Virial ratio                                    4.07105577
 
 !MCSCF STATE 8.1 Triplet Dipole moment          0.00000000     0.00000000     0.00000000
 Dipole moment /Debye                            0.00000000     0.00000000     0.00000000
 
 Results for state 9.1 Triplet
 =============================
 !MCSCF STATE 9.1 Triplet Energy              -191.665517221985
 Nuclear energy                                  0.00000000
 Kinetic energy                                 62.49469710
 One electron energy                          -332.25088110
 Two electron energy                           140.58536387
 Virial ratio                                    4.06690849
 
 !MCSCF STATE 9.1 Triplet Dipole moment          0.00000000     0.00000000     0.00000000
 Dipole moment /Debye                            0.00000000     0.00000000     0.00000000
 
 Results for state 10.1 Triplet
 ==============================
 !MCSCF STATE 10.1 Triplet Energy             -191.665517221980
 Nuclear energy                                  0.00000000
 Kinetic energy                                 62.49469710
 One electron energy                          -332.25088109
 Two electron energy                           140.58536387
 Virial ratio                                    4.06690849
 
 !MCSCF STATE 10.1 Triplet Dipole moment         0.00000000     0.00000000     0.00000000
 Dipole moment /Debye                            0.00000000     0.00000000     0.00000000
 
 Results for state 11.1 Triplet
 ==============================
 !MCSCF STATE 11.1 Triplet Energy             -191.665517221881
 Nuclear energy                                  0.00000000
 Kinetic energy                                 62.49469709
 One electron energy                          -332.25088108
 Two electron energy                           140.58536385
 Virial ratio                                    4.06690849
 
 !MCSCF STATE 11.1 Triplet Dipole moment         0.00000000     0.00000000     0.00000000
 Dipole moment /Debye                            0.00000000     0.00000000     0.00000000
 
 Results for state 12.1 Triplet
 ==============================
 !MCSCF STATE 12.1 Triplet Energy             -191.664118623329
 Nuclear energy                                  0.00000000
 Kinetic energy                                 62.41182777
 One electron energy                          -331.84117366
 Two electron energy                           140.17705503
 Virial ratio                                    4.07095827
 
 !MCSCF STATE 12.1 Triplet Dipole moment         0.00000000     0.00000000     0.00000000
 Dipole moment /Debye                            0.00000000     0.00000000     0.00000000
 
 Results for state 1.1 Singlet
 =============================
 !MCSCF STATE 1.1 Singlet Energy              -191.801455859598
 Nuclear energy                                  0.00000000
 Kinetic energy                                 62.83252097
 One electron energy                          -336.10926318
 Two electron energy                           144.30780732
 Virial ratio                                    4.05258253
 
 !MCSCF STATE 1.1 Singlet Dipole moment          0.00000000     0.00000000     0.00000000
 Dipole moment /Debye                            0.00000000     0.00000000     0.00000000
 
 Results for state 2.1 Singlet
 =============================
 !MCSCF STATE 2.1 Singlet Energy              -191.801455859589
 Nuclear energy                                  0.00000000
 Kinetic energy                                 62.83252097
 One electron energy                          -336.10926318
 Two electron energy                           144.30780732
 Virial ratio                                    4.05258253
 
 !MCSCF STATE 2.1 Singlet Dipole moment          0.00000000     0.00000000     0.00000000
 Dipole moment /Debye                            0.00000000     0.00000000     0.00000000
 
 Results for state 3.1 Singlet
 =============================
 !MCSCF STATE 3.1 Singlet Energy              -191.801455859012
 Nuclear energy                                  0.00000000
 Kinetic energy                                 62.83252098
 One electron energy                          -336.10926321
 Two electron energy                           144.30780735
 Virial ratio                                    4.05258253
 
 !MCSCF STATE 3.1 Singlet Dipole moment          0.00000000     0.00000000     0.00000000
 Dipole moment /Debye                            0.00000000     0.00000000     0.00000000
 
 Results for state 4.1 Singlet
 =============================
 !MCSCF STATE 4.1 Singlet Energy              -191.801455858874
 Nuclear energy                                  0.00000000
 Kinetic energy                                 62.83252098
 One electron energy                          -336.10926321
 Two electron energy                           144.30780735
 Virial ratio                                    4.05258253
 
 !MCSCF STATE 4.1 Singlet Dipole moment          0.00000000     0.00000000     0.00000000
 Dipole moment /Debye                            0.00000000     0.00000000     0.00000000
 
 Results for state 5.1 Singlet
 =============================
 !MCSCF STATE 5.1 Singlet Energy              -191.801455858721
 Nuclear energy                                  0.00000000
 Kinetic energy                                 62.83252098
 One electron energy                          -336.10926322
 Two electron energy                           144.30780736
 Virial ratio                                    4.05258253
 
 !MCSCF STATE 5.1 Singlet Dipole moment          0.00000000     0.00000000     0.00000000
 Dipole moment /Debye                            0.00000000     0.00000000     0.00000000
 
 Results for state 6.1 Singlet
 =============================
 !MCSCF STATE 6.1 Singlet Energy              -191.767671332878
 Nuclear energy                                  0.00000000
 Kinetic energy                                 62.76469807
 One electron energy                          -335.68354365
 Two electron energy                           143.91587231
 Virial ratio                                    4.05534285
 
 !MCSCF STATE 6.1 Singlet Dipole moment          0.00000000     0.00000000     0.00000000
 Dipole moment /Debye                            0.00000000     0.00000000     0.00000000
 
 Results for state 7.1 Singlet
 =============================
 !MCSCF STATE 7.1 Singlet Energy              -191.675008450851
 Nuclear energy                                  0.00000000
 Kinetic energy                                 62.41206606
 One electron energy                          -331.84306246
 Two electron energy                           140.16805401
 Virial ratio                                    4.07112103
 
 !MCSCF STATE 7.1 Singlet Dipole moment          0.00000000     0.00000000     0.00000000
 Dipole moment /Debye                            0.00000000     0.00000000     0.00000000
 
 Results for state 8.1 Singlet
 =============================
 !MCSCF STATE 8.1 Singlet Energy              -191.675008450822
 Nuclear energy                                  0.00000000
 Kinetic energy                                 62.41206606
 One electron energy                          -331.84306246
 Two electron energy                           140.16805401
 Virial ratio                                    4.07112103
 
 !MCSCF STATE 8.1 Singlet Dipole moment          0.00000000     0.00000000     0.00000000
 Dipole moment /Debye                            0.00000000     0.00000000     0.00000000
 
 Results for state 9.1 Singlet
 =============================
 !MCSCF STATE 9.1 Singlet Energy              -191.675008450708
 Nuclear energy                                  0.00000000
 Kinetic energy                                 62.41206606
 One electron energy                          -331.84306245
 Two electron energy                           140.16805400
 Virial ratio                                    4.07112103
 
 !MCSCF STATE 9.1 Singlet Dipole moment          0.00000000     0.00000000     0.00000000
 Dipole moment /Debye                            0.00000000     0.00000000     0.00000000
 
 State-averaged charge density matrix saved on record 2140.2 (density set 1)
 
 No non-zero expectation values
 
 Expectation values for two-electron operators:
 
 ? Warning
 ? Transition properties are only calculated between states of the same symmetry
 ? The problem occurs in mu_properties_expec2

 !MCSCF expec      <1.1 Triplet|LXLX|1.1 Triplet>     1.000000000000
 !MCSCF expec      <2.1 Triplet|LXLX|2.1 Triplet>     1.000000000000
 !MCSCF expec      <3.1 Triplet|LXLX|3.1 Triplet>    -0.000000000000
 !MCSCF expec      <4.1 Triplet|LXLX|4.1 Triplet>     3.284110249843
 !MCSCF expec      <5.1 Triplet|LXLX|5.1 Triplet>     3.999999999986
 !MCSCF expec      <6.1 Triplet|LXLX|6.1 Triplet>     1.000000003394
 !MCSCF expec      <7.1 Triplet|LXLX|7.1 Triplet>     0.999998928145
 !MCSCF expec      <8.1 Triplet|LXLX|8.1 Triplet>     0.715883371356
 !MCSCF expec      <9.1 Triplet|LXLX|9.1 Triplet>    -0.000000000000
 !MCSCF expec    <10.1 Triplet|LXLX|10.1 Triplet>     0.999999999898
 !MCSCF expec    <11.1 Triplet|LXLX|11.1 Triplet>     1.000000000000
 !MCSCF expec    <12.1 Triplet|LXLX|12.1 Triplet>    -0.000000000000
 !MCSCF expec      <1.1 Singlet|LXLX|1.1 Singlet>     0.701389687800
 !MCSCF expec      <2.1 Singlet|LXLX|2.1 Singlet>     1.000000000000
 !MCSCF expec      <3.1 Singlet|LXLX|3.1 Singlet>     1.000000000000
 !MCSCF expec      <4.1 Singlet|LXLX|4.1 Singlet>     4.000000000000
 !MCSCF expec      <5.1 Singlet|LXLX|5.1 Singlet>     3.298610550833
 !MCSCF expec      <6.1 Singlet|LXLX|6.1 Singlet>    -0.000000000000
 !MCSCF expec      <7.1 Singlet|LXLX|7.1 Singlet>    -0.000000000000
 !MCSCF expec      <8.1 Singlet|LXLX|8.1 Singlet>     0.999999999987
 !MCSCF expec      <9.1 Singlet|LXLX|9.1 Singlet>     1.000000000000
 
 !MCSCF expec      <1.1 Triplet|LYLY|1.1 Triplet>     0.999999999973
 !MCSCF expec      <2.1 Triplet|LYLY|2.1 Triplet>     0.000000000020
 !MCSCF expec      <3.1 Triplet|LYLY|3.1 Triplet>     1.000000000000
 !MCSCF expec      <4.1 Triplet|LYLY|4.1 Triplet>     2.685836303903
 !MCSCF expec      <5.1 Triplet|LYLY|5.1 Triplet>     1.000000000017
 !MCSCF expec      <6.1 Triplet|LYLY|6.1 Triplet>     3.999999996779
 !MCSCF expec      <7.1 Triplet|LYLY|7.1 Triplet>     1.000001189811
 !MCSCF expec      <8.1 Triplet|LYLY|8.1 Triplet>     1.314171793678
 !MCSCF expec      <9.1 Triplet|LYLY|9.1 Triplet>     1.000000000000
 !MCSCF expec    <10.1 Triplet|LYLY|10.1 Triplet>     0.000000000117
 !MCSCF expec    <11.1 Triplet|LYLY|11.1 Triplet>     0.999999999986
 !MCSCF expec    <12.1 Triplet|LYLY|12.1 Triplet>    -0.000000000000
 !MCSCF expec      <1.1 Singlet|LYLY|1.1 Singlet>     1.332032047445
 !MCSCF expec      <2.1 Singlet|LYLY|2.1 Singlet>     1.000000000032
 !MCSCF expec      <3.1 Singlet|LYLY|3.1 Singlet>     3.999999999999
 !MCSCF expec      <4.1 Singlet|LYLY|4.1 Singlet>     1.000000000000
 !MCSCF expec      <5.1 Singlet|LYLY|5.1 Singlet>     2.667967656781
 !MCSCF expec      <6.1 Singlet|LYLY|6.1 Singlet>    -0.000000000000
 !MCSCF expec      <7.1 Singlet|LYLY|7.1 Singlet>     1.000000000000
 !MCSCF expec      <8.1 Singlet|LYLY|8.1 Singlet>     0.000000000015
 !MCSCF expec      <9.1 Singlet|LYLY|9.1 Singlet>     0.999999999998
 
 !MCSCF expec      <1.1 Triplet|LZLZ|1.1 Triplet>     0.000000000027
 !MCSCF expec      <2.1 Triplet|LZLZ|2.1 Triplet>     0.999999999980
 !MCSCF expec      <3.1 Triplet|LZLZ|3.1 Triplet>     1.000000000000
 !MCSCF expec      <4.1 Triplet|LZLZ|4.1 Triplet>     0.030053446253
 !MCSCF expec      <5.1 Triplet|LZLZ|5.1 Triplet>     0.999999999997
 !MCSCF expec      <6.1 Triplet|LZLZ|6.1 Triplet>     0.999999999828
 !MCSCF expec      <7.1 Triplet|LZLZ|7.1 Triplet>     3.999999882044
 !MCSCF expec      <8.1 Triplet|LZLZ|8.1 Triplet>     3.969944834966
 !MCSCF expec      <9.1 Triplet|LZLZ|9.1 Triplet>     1.000000000000
 !MCSCF expec    <10.1 Triplet|LZLZ|10.1 Triplet>     0.999999999985
 !MCSCF expec    <11.1 Triplet|LZLZ|11.1 Triplet>     0.000000000014
 !MCSCF expec    <12.1 Triplet|LZLZ|12.1 Triplet>    -0.000000000000
 !MCSCF expec      <1.1 Singlet|LZLZ|1.1 Singlet>     3.966578264755
 !MCSCF expec      <2.1 Singlet|LZLZ|2.1 Singlet>     3.999999999968
 !MCSCF expec      <3.1 Singlet|LZLZ|3.1 Singlet>     1.000000000001
 !MCSCF expec      <4.1 Singlet|LZLZ|4.1 Singlet>     1.000000000000
 !MCSCF expec      <5.1 Singlet|LZLZ|5.1 Singlet>     0.033421792386
 !MCSCF expec      <6.1 Singlet|LZLZ|6.1 Singlet>    -0.000000000000
 !MCSCF expec      <7.1 Singlet|LZLZ|7.1 Singlet>     1.000000000000
 !MCSCF expec      <8.1 Singlet|LZLZ|8.1 Singlet>     0.999999999998
 !MCSCF expec      <9.1 Singlet|LZLZ|9.1 Singlet>     0.000000000002
 
 !MCSCF expec      <1.1 Triplet|L**2|1.1 Triplet>     2.000000000000
 !MCSCF expec      <2.1 Triplet|L**2|2.1 Triplet>     2.000000000000
 !MCSCF expec      <3.1 Triplet|L**2|3.1 Triplet>     2.000000000000
 !MCSCF expec      <4.1 Triplet|L**2|4.1 Triplet>     6.000000000000
 !MCSCF expec      <5.1 Triplet|L**2|5.1 Triplet>     6.000000000000
 !MCSCF expec      <6.1 Triplet|L**2|6.1 Triplet>     6.000000000000
 !MCSCF expec      <7.1 Triplet|L**2|7.1 Triplet>     6.000000000000
 !MCSCF expec      <8.1 Triplet|L**2|8.1 Triplet>     6.000000000000
 !MCSCF expec      <9.1 Triplet|L**2|9.1 Triplet>     2.000000000000
 !MCSCF expec    <10.1 Triplet|L**2|10.1 Triplet>     2.000000000000
 !MCSCF expec    <11.1 Triplet|L**2|11.1 Triplet>     2.000000000000
 !MCSCF expec    <12.1 Triplet|L**2|12.1 Triplet>    -0.000000000000
 !MCSCF expec      <1.1 Singlet|L**2|1.1 Singlet>     6.000000000000
 !MCSCF expec      <2.1 Singlet|L**2|2.1 Singlet>     6.000000000000
 !MCSCF expec      <3.1 Singlet|L**2|3.1 Singlet>     6.000000000000
 !MCSCF expec      <4.1 Singlet|L**2|4.1 Singlet>     6.000000000000
 !MCSCF expec      <5.1 Singlet|L**2|5.1 Singlet>     6.000000000000
 !MCSCF expec      <6.1 Singlet|L**2|6.1 Singlet>    -0.000000000000
 !MCSCF expec      <7.1 Singlet|L**2|7.1 Singlet>     2.000000000000
 !MCSCF expec      <8.1 Singlet|L**2|8.1 Singlet>     2.000000000000
 !MCSCF expec      <9.1 Singlet|L**2|9.1 Singlet>     2.000000000000
 
 EXTRA SYMMETRY OF MOS IN SYMMETRY 1:   1 6 3 5 2 4 1 1 6 3   5 2 4 1 6 5 3 2 411  13101415 812 7 9 1 6   5 3 2 41113101415 8
                                       12 7 9 6 5 3 2 4 111  13101415 812 7 9 6 3   5 2 4 11113101514 8  12 7 927221620182419
                                       232617212528 6 3 5 2   4111013151412 8 7 9   1 6 2 3 5 411101314  1512 8 7 9 1 2 3 5 6
                                        4 1 2 5 3 6 4 1 1
 EXTRA SYMMETRY OF MOS IN SYMMETRY 2:   2 3 1 1 3 2 1 3 2 2   3 1 5 9 7 810 6 4 2   3 1 5 9 7 810 6 4 5   9 7 810 6 4 2 3 112
                                       18201517141621131911   5 9 710 8 6 4 2 3 1  12201815171614211319  11 5 9 7 810 6 41220
                                       181517161421131911 5   9 7 810 6 4 2 3 1 5   9 710 8 6 412182015  17141621131911 2 3 1
                                        5 9 710 8 6 4 2 1 3   2 1 3 2 1 3
 
  NATURAL ORBITALS (STATE AVERAGED)
  =================================

  Orbital  Occupation    Energy    Cen Mu Typ  Coefficients
    1.1     2.00000    -6.26979     1  1  s    0.99854
    2.1     2.00000    -1.17022     1  1  d1-  1.00137
    3.1     2.00000    -1.17022     1  1  d2-  1.00137
    4.1     2.00000    -1.17022     1  1  d2+  1.00137
    5.1     2.00000    -1.17022     1  1  d0   1.00137
    6.1     2.00000    -1.17022     1  1  d1+  1.00137
    7.1     1.97261    -0.63924     1  1  s   -0.40408    1  5  s    0.62307    1  6  s    0.43577    1 11  s   -0.26986
    1.2     2.00000    -3.95250     1  1  py   0.99973
    2.2     2.00000    -3.95250     1  1  pz   0.99973
    3.2     2.00000    -3.95250     1  1  px   0.99973
    4.2     0.48290    -0.10713     1  1  px  -0.26090    1  5  px   0.47921    1  6  px   0.38053
    5.2     0.48290    -0.10713     1  1  pz  -0.26090    1  5  pz   0.47921    1  6  pz   0.38053
    6.2     0.48290    -0.10713     1  1  py  -0.26090    1  5  py   0.47921    1  6  py   0.38053
    7.2     0.19290     0.02930     1  5  px  -0.26094    1 12  px   0.99166
    8.2     0.19290     0.02930     1  5  pz  -0.26094    1 12  pz   0.99166
    9.2     0.19290     0.02930     1  5  py  -0.26094    1 12  py   0.99166
 
 Natural orbital dump (state averaged) at molpro section 2140.2 (Orbital set 2)
 
 Transform the CI vectors
 
 CI Coefficients of symmetry 1 (Triplet)
 =======================================

 State:              1               2               3               4               5               6               7
 2 0aa000      -0.00000002      0.00000001      0.99497976      0.00000000     -0.00000000     -0.00000000     -0.00000000
 2 aa0000      -0.00000518      0.99497976     -0.00000001     -0.00000000     -0.00000000      0.00000000     -0.00000000
 2 a0a000       0.99497976      0.00000518      0.00000002     -0.00000000     -0.00000000      0.00000000      0.00000000
 2 0a00a0       0.00000000     -0.00000000     -0.00000000      0.80726342      0.00000397      0.00001960      0.00013882
 2 a00a00      -0.00000000     -0.00000000      0.00000000     -0.34280408     -0.00000205     -0.00000137     -0.00140441
 2 0a0a00       0.00000002     -0.00379725      0.00000000     -0.00001764     -0.00000107      0.70175184     -0.00000718
 2 0a000a      -0.00000000      0.00000000      0.00379725     -0.00000342      0.70175184      0.00000107      0.00000015
 2 00a0a0       0.00000000     -0.00000000     -0.00379725     -0.00000342      0.70175184      0.00000107      0.00000015
 2 a000a0      -0.00000002      0.00379725     -0.00000000     -0.00001764     -0.00000107      0.70175184     -0.00000718
 2 00aa00      -0.00379725     -0.00000002     -0.00000000     -0.00000406     -0.00000015      0.00000719      0.70175056
 2 a0000a       0.00379725      0.00000002      0.00000000     -0.00000406     -0.00000015      0.00000719      0.70175056
 2 00a00a       0.00000000     -0.00000000      0.00000000     -0.46445928     -0.00000192     -0.00001823      0.00126559
 2 0000aa       0.00000000     -0.00000000     -0.01668039      0.00000000     -0.00000000      0.00000000      0.00000000
 2 000aa0       0.00000009     -0.01668039      0.00000000     -0.00000000      0.00000000      0.00000000     -0.00000000
 2 000a0a      -0.01668039     -0.00000009     -0.00000000      0.00000000     -0.00000000     -0.00000000      0.00000000
 0 a2a000      -0.08932750     -0.00000047     -0.00000000      0.00000000      0.00000000     -0.00000000     -0.00000000
 0 aa2000       0.00000047     -0.08932750      0.00000000      0.00000000     -0.00000000     -0.00000000      0.00000000
 0 2aa000       0.00000000     -0.00000000     -0.08932750     -0.00000000      0.00000000      0.00000000     -0.00000000
 0 2a00a0      -0.00000000      0.00000000     -0.00000000     -0.06681894     -0.00000033     -0.00000163     -0.00001076
 0 0a20a0      -0.00000000     -0.00000000      0.00000000     -0.06675265     -0.00000033     -0.00000162     -0.00001221
 0 a20a00      -0.00000000      0.00000000     -0.00000000      0.02801408      0.00000017      0.00000010      0.00011650
 0 a02a00       0.00000000     -0.00000000     -0.00000000      0.02870704      0.00000017      0.00000012      0.00011588
 0 0a2a00       0.00000001     -0.00132723      0.00000000      0.00000146      0.00000009     -0.05824790      0.00000060
 0 2a000a      -0.00000000      0.00000000      0.00132723      0.00000028     -0.05824790     -0.00000009     -0.00000001
 0 20a0a0       0.00000000     -0.00000000     -0.00132723      0.00000028     -0.05824790     -0.00000009     -0.00000001
 0 a020a0      -0.00000001      0.00132723     -0.00000000      0.00000146      0.00000009     -0.05824790      0.00000060
 0 02aa00      -0.00132723     -0.00000001     -0.00000000      0.00000034      0.00000001     -0.00000060     -0.05824779
 0 a2000a       0.00132723      0.00000001      0.00000000      0.00000034      0.00000001     -0.00000060     -0.05824779
 0 02a0a0      -0.00000000      0.00000000      0.01945652      0.00000028     -0.05786551     -0.00000009     -0.00000001
 0 a200a0       0.00000010     -0.01945652      0.00000000      0.00000145      0.00000009     -0.05786551      0.00000059
 0 0a200a       0.00000000     -0.00000000     -0.01945652      0.00000028     -0.05786551     -0.00000009     -0.00000001
 0 2a0a00      -0.00000010      0.01945652     -0.00000000      0.00000145      0.00000009     -0.05786551      0.00000059
 0 20aa00       0.01945652      0.00000010      0.00000000      0.00000033      0.00000001     -0.00000059     -0.05786541
 0 a0200a      -0.01945652     -0.00000010     -0.00000000      0.00000033      0.00000001     -0.00000059     -0.05786541
 0 02a00a      -0.00000000      0.00000000     -0.00000000      0.03811189      0.00000016      0.00000150     -0.00010512
 0 20a00a      -0.00000000      0.00000000      0.00000000      0.03873857      0.00000016      0.00000151     -0.00010428
 
 Energy:     -191.83557149   -191.83557149   -191.83557149   -191.67065121   -191.67065121   -191.67065121   -191.67065121

 State:              8               9              10              11              12
 2 0aa000      -0.00000000     -0.00925343     -0.00000000      0.00000000      0.00000000
 2 aa0000      -0.00000000      0.00000000     -0.00925343      0.00000004      0.00000000
 2 a0a000       0.00000000     -0.00000000     -0.00000004     -0.00925343     -0.00000000
 2 0a00a0      -0.07023753     -0.00000000     -0.00000000      0.00000000      0.57289890
 2 a00a00       0.73422810      0.00000000     -0.00000000      0.00000000      0.57289895
 2 0a0a00      -0.00000694      0.00000000     -0.69575150      0.00000272     -0.00000000
 2 0a000a       0.00000036      0.69575150      0.00000000     -0.00000000     -0.00000000
 2 00a0a0       0.00000036     -0.69575150     -0.00000000     -0.00000000     -0.00000000
 2 a000a0      -0.00000694     -0.00000000      0.69575151     -0.00000272      0.00000000
 2 00aa00       0.00134039      0.00000000     -0.00000272     -0.69575150      0.00000000
 2 a0000a       0.00134039      0.00000000      0.00000272      0.69575151     -0.00000000
 2 00a00a      -0.66399058     -0.00000000     -0.00000000     -0.00000000      0.57289894
 2 0000aa       0.00000000     -0.13152206     -0.00000000     -0.00000000      0.00000000
 2 000aa0      -0.00000000      0.00000000     -0.13152206      0.00000051     -0.00000000
 2 000a0a       0.00000000      0.00000000     -0.00000051     -0.13152206      0.00000000
 0 a2a000      -0.00000000      0.00000000      0.00000002      0.00444561     -0.00000000
 0 aa2000       0.00000000     -0.00000000      0.00444561     -0.00000002      0.00000000
 0 2aa000      -0.00000000      0.00444561      0.00000000     -0.00000000      0.00000000
 0 2a00a0       0.00542988      0.00000000      0.00000000     -0.00000000     -0.04783718
 0 0a20a0       0.00619178      0.00000000      0.00000000     -0.00000000     -0.04783718
 0 a20a00      -0.06090527     -0.00000000      0.00000000     -0.00000000     -0.04783718
 0 a02a00      -0.06058173     -0.00000000      0.00000000     -0.00000000     -0.04783718
 0 0a2a00       0.00000058     -0.00000000      0.05817793     -0.00000023      0.00000000
 0 2a000a      -0.00000003     -0.05817793     -0.00000000      0.00000000      0.00000000
 0 20a0a0      -0.00000003      0.05817793      0.00000000      0.00000000      0.00000000
 0 a020a0       0.00000058      0.00000000     -0.05817793      0.00000023     -0.00000000
 0 02aa00      -0.00011126     -0.00000000      0.00000023      0.05817793     -0.00000000
 0 a2000a      -0.00011126     -0.00000000     -0.00000023     -0.05817793      0.00000000
 0 02a0a0      -0.00000003      0.05629180      0.00000000      0.00000000      0.00000000
 0 a200a0       0.00000057      0.00000000     -0.05629180      0.00000022     -0.00000000
 0 0a200a      -0.00000003     -0.05629180     -0.00000000      0.00000000      0.00000000
 0 2a0a00       0.00000057     -0.00000000      0.05629180     -0.00000022      0.00000000
 0 20aa00      -0.00011053     -0.00000000      0.00000022      0.05629180     -0.00000000
 0 a0200a      -0.00011053     -0.00000000     -0.00000022     -0.05629180      0.00000000
 0 02a00a       0.05515185      0.00000000      0.00000000      0.00000000     -0.04783718
 0 20a00a       0.05471350      0.00000000      0.00000000      0.00000000     -0.04783718
 
 Energy:     -191.67065121   -191.66551722   -191.66551722   -191.66551722   -191.66411862
 
 
 CI Coefficients of symmetry 1 (Singlet)
 =======================================

 State:              1               2               3               4               5               6               7
 2 020000      -0.07403271     -0.00000094      0.00000014     -0.00000000      0.80652378      0.56117586      0.00000000
 2 200000       0.73548645     -0.00000046     -0.00000000      0.00000001     -0.33914769      0.56117584      0.00000000
 2 b0a000      -0.00000085     -0.70140651      0.00000200      0.00000004     -0.00000090      0.00000000     -0.00000000
 2 a0b000       0.00000085      0.70140651     -0.00000200     -0.00000004      0.00000090     -0.00000000      0.00000000
 2 ba0000       0.00000006     -0.00000200     -0.70140651     -0.00000003      0.00000013     -0.00000000      0.00000000
 2 ab0000      -0.00000006      0.00000200      0.70140651      0.00000003     -0.00000013      0.00000000     -0.00000000
 2 0ba000       0.00000001     -0.00000004      0.00000003     -0.70140651     -0.00000000     -0.00000000      0.00000000
 2 0ab000      -0.00000001      0.00000004     -0.00000003      0.70140651      0.00000000      0.00000000     -0.00000000
 2 002000      -0.66145373      0.00000140     -0.00000014     -0.00000001     -0.46737611      0.56117584      0.00000000
 2 00b0a0       0.00000000     -0.00000000      0.00000000     -0.03589885      0.00000000     -0.00000000      0.49625702
 2 00a0b0      -0.00000000      0.00000000     -0.00000000      0.03589885     -0.00000000      0.00000000     -0.49625702
 2 a000b0      -0.00000000      0.00000010      0.03589885      0.00000000     -0.00000001      0.00000000     -0.00000000
 2 b000a0       0.00000000     -0.00000010     -0.03589885     -0.00000000      0.00000001     -0.00000000      0.00000000
 2 00ba00      -0.00000004     -0.03589885      0.00000010      0.00000000     -0.00000005      0.00000000     -0.00000000
 2 00ab00       0.00000004      0.03589885     -0.00000010     -0.00000000      0.00000005     -0.00000000      0.00000000
 2 a0000b       0.00000004      0.03589885     -0.00000010     -0.00000000      0.00000005     -0.00000000      0.00000000
 2 b0000a      -0.00000004     -0.03589885      0.00000010      0.00000000     -0.00000005      0.00000000     -0.00000000
 2 0a0b00      -0.00000000      0.00000010      0.03589885      0.00000000     -0.00000001     -0.00000000      0.00000000
 2 0b0a00       0.00000000     -0.00000010     -0.03589885     -0.00000000      0.00000001      0.00000000     -0.00000000
 2 0b000a       0.00000000     -0.00000000      0.00000000     -0.03589885      0.00000000      0.00000000     -0.49625702
 2 0a000b      -0.00000000      0.00000000     -0.00000000      0.03589885     -0.00000000     -0.00000000      0.49625702
 0 022000       0.06586436     -0.00000004     -0.00000000      0.00000000     -0.03037139     -0.09802206     -0.00000000
 0 220000      -0.05923457      0.00000013     -0.00000001     -0.00000000     -0.04185451     -0.09802206     -0.00000000
 0 202000      -0.00662979     -0.00000008      0.00000001     -0.00000000      0.07222590     -0.09802206     -0.00000000
 0 a2b000      -0.00000008     -0.06281243      0.00000018      0.00000000     -0.00000008      0.00000000     -0.00000000
 0 b2a000       0.00000008      0.06281243     -0.00000018     -0.00000000      0.00000008     -0.00000000      0.00000000
 0 ab2000       0.00000001     -0.00000018     -0.06281243     -0.00000000      0.00000001     -0.00000000      0.00000000
 0 ba2000      -0.00000001      0.00000018      0.06281243      0.00000000     -0.00000001      0.00000000     -0.00000000
 0 2ab000       0.00000000     -0.00000000      0.00000000     -0.06281243      0.00000000      0.00000000      0.00000000
 0 2ba000      -0.00000000      0.00000000     -0.00000000      0.06281243     -0.00000000     -0.00000000     -0.00000000
 2 0a00b0      -0.00378909     -0.00000005      0.00000001     -0.00000000      0.04127888      0.06253366      0.00000000
 2 0b00a0       0.00378909      0.00000005     -0.00000001      0.00000000     -0.04127888     -0.06253366     -0.00000000
 2 00a00b      -0.03385402      0.00000007     -0.00000001     -0.00000000     -0.02392089      0.06253365      0.00000000
 2 00b00a       0.03385402     -0.00000007      0.00000001      0.00000000      0.02392089     -0.06253365     -0.00000000
 2 a00b00       0.03764310     -0.00000002     -0.00000000      0.00000000     -0.01735800      0.06253365      0.00000000
 2 b00a00      -0.03764310      0.00000002      0.00000000     -0.00000000      0.01735800     -0.06253365     -0.00000000
 
 Energy:     -191.80145586   -191.80145586   -191.80145586   -191.80145586   -191.80145586   -191.76767133   -191.67500845

 State:              8               9
 2 020000      -0.00000000      0.00000000
 2 200000      -0.00000000     -0.00000000
 2 b0a000       0.00000000     -0.00000000
 2 a0b000      -0.00000000      0.00000000
 2 ba0000      -0.00000000      0.00000000
 2 ab0000       0.00000000     -0.00000000
 2 0ba000      -0.00000000      0.00000000
 2 0ab000       0.00000000     -0.00000000
 2 002000      -0.00000000     -0.00000000
 2 00b0a0       0.00000000      0.00000000
 2 00a0b0      -0.00000000     -0.00000000
 2 a000b0       0.49625702      0.00000071
 2 b000a0      -0.49625702     -0.00000071
 2 00ba00      -0.00000071      0.49625702
 2 00ab00       0.00000071     -0.49625702
 2 a0000b      -0.00000071      0.49625702
 2 b0000a       0.00000071     -0.49625702
 2 0a0b00      -0.49625702     -0.00000071
 2 0b0a00       0.49625702      0.00000071
 2 0b000a      -0.00000000      0.00000000
 2 0a000b       0.00000000     -0.00000000
 0 022000       0.00000000     -0.00000000
 0 220000       0.00000000     -0.00000000
 0 202000       0.00000000      0.00000000
 0 a2b000       0.00000000     -0.00000000
 0 b2a000      -0.00000000      0.00000000
 0 ab2000      -0.00000000      0.00000000
 0 ba2000       0.00000000     -0.00000000
 0 2ab000      -0.00000000      0.00000000
 0 2ba000       0.00000000     -0.00000000
 2 0a00b0      -0.00000000     -0.00000000
 2 0b00a0       0.00000000      0.00000000
 2 00a00b       0.00000000      0.00000000
 2 00b00a      -0.00000000     -0.00000000
 2 a00b00      -0.00000000      0.00000000
 2 b00a00       0.00000000     -0.00000000
 
 Energy:     -191.67500845   -191.67500845
 


 **********************************************************************************************************************************
 DATASETS  * FILE   NREC   LENGTH (MB)   RECORD NAMES
              1      21       86.94       500      610      700      900      950      970     1000      129      960     1100   
                                          VAR    BASINP    GEOM    SYMINP    ZMAT    AOBASIS   BASIS     P2S    ABASIS      S 
                                         1400     1410     1420     1200     1210     1080     1700     1600     1650     1380   
                                           T        V       ECP      H0       H01     AOSYM    OPER      SMH    MOLCAS    JKOP   
                                         1700(1)
                                         OPER   

              2       5        2.83       700     1000      520     2100     2140   
                                         GEOM     BASIS   MCVARS     RHF     MCSCF   

 PROGRAMS   *        TOTAL     MULTI   RHF-SCF       INT
 CPU TIMES  *        20.38      7.72      3.56      8.91
 REAL TIME  *        23.38 SEC
 DISK USED  *        89.89 MB (local),        1.79 GB (total)
 SF USED    *       148.89 MB
 GA USED    *         0.00 MB       (max)       0.00 MB       (current)
 **********************************************************************************************************************************

 Energies and &lt;L**2&gt; values

         ENERGY     LL
    -191.8355715   2.0
    -191.8355715   2.0
    -191.8355715   2.0
    -191.6706512   6.0
    -191.6706512   6.0
    -191.6706512   6.0
    -191.6706512   6.0
    -191.6706512   6.0
    -191.6655172   2.0
    -191.6655172   2.0
    -191.6655172   2.0
    -191.6641186  -0.0
    -191.8014559   6.0
    -191.8014559   6.0
    -191.8014559   6.0
    -191.8014559   6.0
    -191.8014559   6.0
    -191.7676713  -0.0
    -191.6750085   2.0
    -191.6750085   2.0
    -191.6750085   2.0
                                                  


 PROGRAM * CI (Multireference internally contracted CI)     Authors: H.-J. Werner, P.J. Knowles, 1987


 Convergence thresholds:  THRVAR = 1.00D-08  THRDEN = 1.00D-06

 Number of optimized states: 12  Roots:   1   2   3   4   5   6   7   8   9  10  11  12
 Number of reference states: 12  Roots:   1   2   3   4   5   6   7   8   9  10  11  12

 Reference symmetry:                   1   Triplet 
 Number of electrons:                 22
 Maximum number of shells:             5
 Maximum number of spin couplings:    90

 Reference space:       90 conf      120 CSFs
 N elec internal:    18284 conf    76944 CSFs
 N-1 el internal:    12821 conf    88545 CSFs
 N-2 el internal:     4717 conf    46537 CSFs

 Number of electrons in valence space:                     22
 Maximum number of open shell orbitals in reference space:  4
 Maximum number of open shell orbitals in internal spaces: 10


 Number of closed-shell orbitals:   9 (   6   3 )
 Number of active  orbitals:        7 (   1   6 )
 Number of external orbitals:     249 ( 122 127 )

 Molecular orbitals read from record     2140.2  Type=MCSCF/NATURAL (state averaged)

 Valence orbitals related to previous ones by unitary transformation. Operators transformed.


 Number of p-space configurations:  15

 Reference wavefunction optimized for reference space (refopt=1)

 State     Reference Energy 
     1      -191.83557149
     2      -191.83557149
     3      -191.83557149
     4      -191.67065121
     5      -191.67065121
     6      -191.67065121
     7      -191.67065121
     8      -191.67065121
     9      -191.66551722
    10      -191.66551722
    11      -191.66551722
    12      -191.66411862

 ?WARNING: SMALL EIGENVALUE OF PAIR OVERLAP MATRIX:  0.1050D-06

 ?WARNING: SMALL EIGENVALUE OF PAIR OVERLAP MATRIX:  0.1050D-06

 ?WARNING: SMALL EIGENVALUE OF PAIR OVERLAP MATRIX:  0.1050D-06

 ?WARNING: SMALL EIGENVALUE OF PAIR OVERLAP MATRIX:  0.1050D-06

 ?WARNING: SMALL EIGENVALUE OF PAIR OVERLAP MATRIX:  0.1050D-06

 ?WARNING: SMALL EIGENVALUE OF PAIR OVERLAP MATRIX:  0.1050D-06

 ?WARNING: SMALL EIGENVALUE OF PAIR OVERLAP MATRIX:  0.1270D-06

 ?WARNING: SMALL EIGENVALUE OF PAIR OVERLAP MATRIX:  0.1050D-06

 ?WARNING: SMALL EIGENVALUE OF PAIR OVERLAP MATRIX:  0.1050D-06

 ?WARNING: SMALL EIGENVALUE OF PAIR OVERLAP MATRIX:  0.1050D-06

 ?WARNING: SMALL EIGENVALUE OF PAIR OVERLAP MATRIX:  0.1050D-06

 ?WARNING: SMALL EIGENVALUE OF PAIR OVERLAP MATRIX:  0.1050D-06

 ?WARNING: SMALL EIGENVALUE OF PAIR OVERLAP MATRIX:  0.1050D-06

 ?WARNING: SMALL EIGENVALUE OF PAIR OVERLAP MATRIX:  0.1050D-06

 ?WARNING: SMALL EIGENVALUE OF PAIR OVERLAP MATRIX:  0.1050D-06

 ?WARNING: SMALL EIGENVALUE OF PAIR OVERLAP MATRIX:  0.1050D-06

 ?WARNING: SMALL EIGENVALUE OF PAIR OVERLAP MATRIX:  0.1050D-06

 ?WARNING: SMALL EIGENVALUE OF PAIR OVERLAP MATRIX:  0.1050D-06

 ?WARNING: SMALL EIGENVALUE OF PAIR OVERLAP MATRIX:  0.1050D-06

 Number of blocks in overlap matrix:  1156   Smallest eigenvalue:  0.10D-06
 Number of N-2 electron functions:    2456
 Number of N-1 electron functions:   88545

 Number of internal configurations:                38406
 Number of singly external configurations:      11024685
 Number of doubly external configurations:      38078420
 Total number of contracted configurations:     49141511
 Total number of uncontracted configurations:  731368774

 Diagonal Coupling coefficients finished.               Storage:  25480930 words, CPU-Time:    101.29 seconds.
 Energy denominators for pairs finished in 1 passes.    Storage:   3839182 words, CPU-time:      5.04 seconds.

  ITER. STATE  ROOT     SQ.NORM     CORR.ENERGY   TOTAL ENERGY   ENERGY CHANGE       DEN1      VAR(S)    VAR(P)      TIME
    1     1     1     1.00000000     0.00000000  -191.83557149     0.00000000    -0.95876397  0.50D-01  0.12D+00   128.74
    1     2     2     1.00000000     0.00000000  -191.83557149    -0.00000000    -0.95904401  0.50D-01  0.12D+00   128.74
    1     3     3     1.00000000     0.00000000  -191.83557149     0.00000000    -0.95869235  0.50D-01  0.12D+00   128.74
    1     4     4     1.00000000     0.00000000  -191.67065121     0.00000000    -0.91813628  0.40D-01  0.10D+00   128.74
    1     5     5     1.00000000     0.00000000  -191.67065121     0.00000000    -0.91777731  0.40D-01  0.10D+00   128.74
    1     6     6     1.00000000     0.00000000  -191.67065121     0.00000000    -0.91782445  0.40D-01  0.10D+00   128.74
    1     7     7     1.00000000     0.00000000  -191.67065121    -0.00000000    -0.91777653  0.40D-01  0.10D+00   128.74
    1     8     8     1.00000000     0.00000000  -191.67065121    -0.00000000    -0.91811200  0.40D-01  0.10D+00   128.74
    1     9     9     1.00000000     0.00000000  -191.66551722    -0.00000000    -0.92366391  0.43D-01  0.11D+00   128.74
    1    10    10     1.00000000     0.00000000  -191.66551722     0.00000000    -0.92372762  0.43D-01  0.11D+00   128.74
    1    11    11     1.00000000     0.00000000  -191.66551722    -0.00000000    -0.92372444  0.43D-01  0.11D+00   128.74
    1    12    12     1.00000000     0.00000000  -191.66411862     0.00000000    -0.91899013  0.41D-01  0.11D+00   128.74
    2     1     1     1.10467795    -0.76313920  -192.59871069    -0.76313920    -0.02703669  0.45D-02  0.20D-02  4089.74
    2     2     2     1.10476599    -0.76304699  -192.59861848    -0.76304699    -0.02713368  0.45D-02  0.20D-02  4089.74
    2     3     3     1.10483324    -0.76298974  -192.59856123    -0.76298974    -0.02721539  0.46D-02  0.20D-02  4089.74
    2     4     4     1.09634445    -0.75319855  -192.42384976    -0.75319855    -0.02145363  0.29D-02  0.15D-02  4089.74
    2     5     5     1.09642553    -0.75318756  -192.42383877    -0.75318756    -0.02145860  0.28D-02  0.15D-02  4089.74
    2     6     6     1.09635907    -0.75318482  -192.42383603    -0.75318482    -0.02146536  0.29D-02  0.15D-02  4089.74
    2     7     7     1.09637575    -0.75316555  -192.42381676    -0.75316555    -0.02149091  0.29D-02  0.15D-02  4089.74
    2     8     8     1.09645668    -0.75315088  -192.42380209    -0.75315088    -0.02149878  0.29D-02  0.15D-02  4089.74
    2     9     9     1.09809148    -0.75368592  -192.41920315    -0.75368592    -0.02266705  0.36D-02  0.16D-02  4089.74
    2    10    10     1.09811897    -0.75367159  -192.41918881    -0.75367159    -0.02268050  0.36D-02  0.16D-02  4089.74
    2    11    11     1.09812007    -0.75365506  -192.41917228    -0.75365506    -0.02270352  0.36D-02  0.16D-02  4089.74
    2    12    12     1.09705511    -0.75329122  -192.41740985    -0.75329122    -0.02181050  0.31D-02  0.15D-02  4089.74
    3     1     1     1.09028466    -0.78848059  -192.62405208    -0.02534139    -0.00048800  0.75D-04  0.54D-04  8057.47
    3     2     2     1.09028743    -0.78847982  -192.62405131    -0.02543282    -0.00049051  0.75D-04  0.54D-04  8057.47
    3     3     3     1.09028264    -0.78847589  -192.62404738    -0.02548614    -0.00049224  0.76D-04  0.54D-04  8057.47
    3     4     4     1.08644066    -0.77328906  -192.44394027    -0.02009051    -0.00029718  0.35D-04  0.29D-04  8057.47
    3     5     5     1.08644010    -0.77328847  -192.44393968    -0.02010091    -0.00029803  0.35D-04  0.29D-04  8057.47
    3     6     6     1.08643932    -0.77328822  -192.44393943    -0.02010339    -0.00029791  0.35D-04  0.29D-04  8057.47
    3     7     7     1.08645952    -0.77328717  -192.44393838    -0.02012162    -0.00029980  0.35D-04  0.30D-04  8057.47
    3     8     8     1.08645612    -0.77328606  -192.44393727    -0.02013518    -0.00030055  0.35D-04  0.30D-04  8057.47
    3     9     9     1.08674601    -0.77493720  -192.44045442    -0.02125127    -0.00034296  0.50D-04  0.33D-04  8057.47
    3    10    10     1.08674562    -0.77493676  -192.44045398    -0.02126517    -0.00034371  0.50D-04  0.33D-04  8057.47
    3    11    11     1.08674876    -0.77493602  -192.44045324    -0.02128095    -0.00034394  0.50D-04  0.34D-04  8057.47
    3    12    12     1.08672068    -0.77373415  -192.43785277    -0.02044292    -0.00031131  0.39D-04  0.31D-04  8057.47
    4     1     1     1.08979354    -0.78899148  -192.62456297    -0.00051089    -0.00002254  0.34D-05  0.26D-05 12043.17
    4     2     2     1.08979139    -0.78899104  -192.62456253    -0.00051123    -0.00002283  0.33D-05  0.27D-05 12043.17
    4     3     3     1.08978896    -0.78899079  -192.62456228    -0.00051490    -0.00002304  0.33D-05  0.27D-05 12043.17
    4     4     4     1.08657572    -0.77359557  -192.44424678    -0.00030650    -0.00001134  0.22D-05  0.11D-05 12043.17
    4     5     5     1.08657338    -0.77359556  -192.44424677    -0.00030709    -0.00001157  0.23D-05  0.11D-05 12043.17
    4     6     6     1.08657540    -0.77359541  -192.44424662    -0.00030719    -0.00001141  0.22D-05  0.11D-05 12043.17
    4     7     7     1.08657340    -0.77359535  -192.44424656    -0.00030818    -0.00001162  0.23D-05  0.11D-05 12043.17
    4     8     8     1.08657639    -0.77359534  -192.44424655    -0.00030928    -0.00001135  0.22D-05  0.11D-05 12043.17
    4     9     9     1.08678012    -0.77529289  -192.44081012    -0.00035570    -0.00001445  0.30D-05  0.14D-05 12043.17
    4    10    10     1.08678018    -0.77529277  -192.44080999    -0.00035601    -0.00001446  0.30D-05  0.14D-05 12043.17
    4    11    11     1.08677915    -0.77529268  -192.44080990    -0.00035666    -0.00001455  0.30D-05  0.14D-05 12043.17
    4    12    12     1.08685960    -0.77405487  -192.43817350    -0.00032072    -0.00001223  0.24D-05  0.13D-05 12043.17
    5     1     1     1.08990431    -0.78901650  -192.62458798    -0.00002502    -0.00000091  0.63D-07  0.12D-06 16013.14
    5     2     2     1.08990450    -0.78901645  -192.62458794    -0.00002541    -0.00000094  0.64D-07  0.12D-06 16013.14
    5     3     3     1.08990396    -0.78901644  -192.62458793    -0.00002565    -0.00000095  0.64D-07  0.13D-06 16013.14
    5     4     4     1.08668561    -0.77360861  -192.44425981    -0.00001304    -0.00000043  0.37D-07  0.60D-07 16013.14
    5     5     5     1.08668574    -0.77360846  -192.44425966    -0.00001289    -0.00000044  0.37D-07  0.61D-07 16013.14
    5     6     6     1.08668546    -0.77360839  -192.44425960    -0.00001298    -0.00000042  0.37D-07  0.58D-07 16013.14
    5     7     7     1.08668554    -0.77360832  -192.44425952    -0.00001297    -0.00000043  0.37D-07  0.59D-07 16013.14
    5     8     8     1.08668557    -0.77360817  -192.44425938    -0.00001284    -0.00000043  0.37D-07  0.58D-07 16013.14
    5     9     9     1.08687308    -0.77530888  -192.44082610    -0.00001598    -0.00000061  0.70D-07  0.80D-07 16013.14
    5    10    10     1.08687292    -0.77530879  -192.44082601    -0.00001601    -0.00000062  0.70D-07  0.81D-07 16013.14
    5    11    11     1.08687312    -0.77530878  -192.44082600    -0.00001610    -0.00000062  0.70D-07  0.80D-07 16013.14
    5    12    12     1.08698784    -0.77406872  -192.43818734    -0.00001385    -0.00000048  0.40D-07  0.75D-07 16013.14
    6     1     1     1.08990971    -0.78901750  -192.62458899    -0.00000101    -0.00000005  0.47D-08  0.63D-08 19988.71
    6     2     2     1.08990966    -0.78901750  -192.62458899    -0.00000104    -0.00000005  0.50D-08  0.66D-08 19988.71
    6     3     3     1.08990958    -0.78901750  -192.62458899    -0.00000106    -0.00000005  0.51D-08  0.67D-08 19988.71
    6     4     4     1.08670032    -0.77360909  -192.44426030    -0.00000048    -0.00000002  0.17D-08  0.32D-08 19988.71
    6     5     5     1.08670030    -0.77360894  -192.44426015    -0.00000049    -0.00000002  0.18D-08  0.32D-08 19988.71
    6     6     6     1.08670065    -0.77360887  -192.44426007    -0.00000047    -0.00000002  0.18D-08  0.32D-08 19988.71
    6     7     7     1.08670063    -0.77360880  -192.44426001    -0.00000048    -0.00000002  0.18D-08  0.32D-08 19988.71
    6     8     8     1.08670053    -0.77360865  -192.44425986    -0.00000048    -0.00000002  0.18D-08  0.32D-08 19988.71
    6     9     9     1.08688454    -0.77530954  -192.44082676    -0.00000066    -0.00000003  0.35D-08  0.59D-08 19988.71
    6    10    10     1.08688442    -0.77530946  -192.44082668    -0.00000067    -0.00000004  0.36D-08  0.60D-08 19988.71
    6    11    11     1.08688449    -0.77530944  -192.44082667    -0.00000066    -0.00000003  0.35D-08  0.59D-08 19988.71
    6    12    12     1.08700541    -0.77406927  -192.43818789    -0.00000055    -0.00000002  0.21D-08  0.43D-08 19988.71
    7     1     1     1.08991578    -0.78901756  -192.62458904    -0.00000005    -0.00000000  0.21D-09  0.47D-09 21140.36
    7     2     2     1.08991582    -0.78901755  -192.62458904    -0.00000006    -0.00000000  0.24D-09  0.51D-09 21140.36
    7     3     3     1.08991580    -0.78901755  -192.62458904    -0.00000006    -0.00000000  0.23D-09  0.50D-09 21140.36
    7     4     4     1.08670032    -0.77360909  -192.44426030    -0.00000000    -0.00000002  0.17D-08  0.32D-08 21140.36
    7     5     5     1.08670030    -0.77360894  -192.44426015    -0.00000000    -0.00000002  0.18D-08  0.32D-08 21140.36
    7     6     6     1.08670065    -0.77360887  -192.44426007    -0.00000000    -0.00000002  0.18D-08  0.32D-08 21140.36
    7     7     7     1.08670063    -0.77360880  -192.44426001    -0.00000000    -0.00000002  0.18D-08  0.32D-08 21140.36
    7     8     8     1.08670053    -0.77360865  -192.44425986    -0.00000000    -0.00000002  0.18D-08  0.32D-08 21140.36
    7     9     9     1.08688472    -0.77530954  -192.44082676    -0.00000000    -0.00000003  0.34D-08  0.57D-08 21140.36
    7    10    10     1.08688463    -0.77530946  -192.44082668    -0.00000000    -0.00000003  0.35D-08  0.58D-08 21140.36
    7    11    11     1.08688469    -0.77530945  -192.44082667    -0.00000000    -0.00000003  0.34D-08  0.57D-08 21140.36
    7    12    12     1.08700541    -0.77406927  -192.43818789    -0.00000000    -0.00000002  0.21D-08  0.43D-08 21140.36


 =====================================
 Analysis of CPU times by interactions
 =====================================

       I      S      P

 I   0.2%
 S   0.2%  21.5%
 P   0.2%  24.9%  42.4%

 Initialization:   0.5%
 Other:           10.1%

 Total CPU:    21140.4 seconds
 =====================================



 Wavefunction saved on  5201.2

 Reference coefficients greater than 0.0500000
 =============================================
 2222222222/0/000           0.0153502   0.9530207   0.0164668   0.0000000  -0.0000000  -0.0000000   0.0000001   0.0000000
                           -0.0010244  -0.0316267   0.0060419   0.0000000
 2222222222//0000           0.9529047  -0.0157271   0.0219219  -0.0000000  -0.0000000  -0.0000000   0.0000000  -0.0000000
                           -0.0321928   0.0011213   0.0004116   0.0000000
 22222222220//000          -0.0221875  -0.0161072   0.9528922   0.0000000   0.0000000   0.0000000   0.0000000   0.0000001
                            0.0006144   0.0060247   0.0316406   0.0000000
 222222222200/00/          -0.0000000  -0.0000000  -0.0000000  -0.1146483   0.7696224  -0.0074350   0.0043593  -0.0008368
                           -0.0000000  -0.0000003  -0.0000004   0.5501125
 2222222222/00/00          -0.0000000   0.0000000   0.0000000   0.7238844  -0.2855517   0.0020109  -0.0013522   0.0015051
                           -0.0000000   0.0000002  -0.0000007   0.5500956
 22222222220/000/           0.0005617   0.0004078  -0.0241239  -0.0011772   0.0006013   0.0023169  -0.0037823   0.6739024
                            0.0127230   0.1247576   0.6552033   0.0000004
 222222222200/0/0          -0.0005617  -0.0004078   0.0241239  -0.0011776   0.0006011   0.0023166  -0.0037827   0.6738999
                           -0.0127234  -0.1247579  -0.6552056  -0.0000006
 2222222222/0000/          -0.0003886  -0.0241272  -0.0004169  -0.0002692  -0.0038560  -0.0002780   0.6738983   0.0037865
                           -0.0212117  -0.6549135   0.1251140   0.0000001
 222222222200//00           0.0003886   0.0241272   0.0004169  -0.0002695  -0.0038556  -0.0002778   0.6738921   0.0037863
                            0.0212123   0.6549195  -0.1251157   0.0000001
 22222222220/0/00           0.0241242  -0.0003982   0.0005550   0.0007439   0.0066168   0.6738810   0.0003289  -0.0023193
                            0.6666379  -0.0232202  -0.0085240  -0.0000004
 2222222222/000/0          -0.0241242   0.0003982  -0.0005550   0.0007432   0.0066163   0.6738789   0.0003293  -0.0023196
                           -0.6666400   0.0232200   0.0085238   0.0000001
 22222222220/00/0          -0.0000000  -0.0000000  -0.0000000  -0.6092386  -0.4840992   0.0054247  -0.0030075  -0.0006680
                            0.0000007  -0.0000000  -0.0000002   0.5500902
 2222222222000//0          -0.0108406   0.0001789  -0.0002494   0.0000001   0.0000000   0.0000003  -0.0000000   0.0000000
                            0.1321385  -0.0046026  -0.0016896  -0.0000001
 22222222220000//           0.0002524   0.0001832  -0.0108405  -0.0000000  -0.0000000  -0.0000000  -0.0000000  -0.0000000
                           -0.0025219  -0.0247291  -0.1298727  -0.0000001
 2222222222000/0/          -0.0001746  -0.0108420  -0.0001873  -0.0000000   0.0000000   0.0000000   0.0000001  -0.0000000
                            0.0042045   0.1298155  -0.0247999  -0.0000000
 2222220222/2/000          -0.0012071  -0.0749405  -0.0012949   0.0000000  -0.0000000  -0.0000000  -0.0000006  -0.0000000
                           -0.0000228  -0.0007032   0.0001343   0.0000000
 2222220222//2000          -0.0749313   0.0012367  -0.0017238  -0.0000000  -0.0000000  -0.0000002   0.0000000   0.0000000
                           -0.0007158   0.0000249   0.0000091  -0.0000000
 22222202222//000           0.0017447   0.0012666  -0.0749304  -0.0000000   0.0000000  -0.0000000  -0.0000000  -0.0000001
                            0.0000137   0.0001339   0.0007034  -0.0000000
 222222022220/00/          -0.0000000   0.0000000  -0.0000000   0.0078740  -0.0555104   0.0005367  -0.0003147   0.0000597
                            0.0000000   0.0000000  -0.0000000  -0.0400950
 222222022202/00/          -0.0000000   0.0000000  -0.0000000   0.0086462  -0.0553937   0.0005347  -0.0003136   0.0000609
                            0.0000000   0.0000000   0.0000000  -0.0400955
 2222220222/02/00          -0.0000000   0.0000000   0.0000000  -0.0522975   0.0202073  -0.0001411   0.0000952  -0.0001084
                            0.0000000  -0.0000000   0.0000000  -0.0400928
 2222220222/20/00          -0.0000000  -0.0000000  -0.0000000  -0.0520105   0.0209370  -0.0001485   0.0000995  -0.0001085
                            0.0000000  -0.0000000   0.0000000  -0.0400925

 Coefficients of fixed reference functions:
 ==========================================

 State      Coefficients
 1           0.015403    0.956155   -0.022263    0.000000   -0.000000   -0.000000    0.000000   -0.000000    0.000933    0.040074
             0.000646   -0.000000
 2           0.956271   -0.015781   -0.016162   -0.000000    0.000000   -0.000000    0.000000    0.000000    0.000677   -0.000661
             0.040079   -0.000000
 3           0.016523    0.021997    0.956142   -0.000000    0.000000    0.000000    0.000000    0.000000   -0.040074    0.000922
             0.000693   -0.000000
 4           0.000000   -0.000000    0.000000   -0.695651   -0.001675    0.001058   -0.000383    0.659340    0.000000    0.000000
            -0.000000   -0.000001
 5          -0.000000   -0.000000    0.000000   -0.659291    0.000855    0.009410   -0.005484   -0.695615    0.000000    0.000000
             0.000000   -0.000016
 6          -0.000000   -0.000000    0.000000    0.007241    0.003295    0.958417   -0.000395    0.006110    0.000000    0.000002
             0.000000    0.000000
 7           0.000000    0.000000    0.000000   -0.004044   -0.005380    0.000468    0.958438   -0.003724    0.000000   -0.000000
            -0.000004   -0.000000
 8           0.000000   -0.000000    0.000000   -0.000675    0.958447   -0.003299    0.005385    0.001731    0.000002    0.000000
            -0.000000    0.000000
 9          -0.001307   -0.041071    0.000784    0.000001   -0.000000   -0.000001    0.000000   -0.000000    0.018262    0.956858
             0.030447    0.000000
 10         -0.040349    0.001431    0.007686    0.000000   -0.000000   -0.000000    0.000004    0.000000    0.179071   -0.033329
             0.940033   -0.000000
 11          0.007708    0.000525    0.040367    0.000000   -0.000002   -0.000000   -0.000001   -0.000000    0.940446   -0.012235
            -0.179583   -0.000001
 12          0.000000    0.000000    0.000000   -0.000012   -0.000000   -0.000000    0.000000   -0.000011    0.000001   -0.000000
            -0.000000    0.958333

 Coefficients of rotated reference functions:
 ============================================

 State      Coefficients
 1           0.957377   -0.000000    0.000000   -0.000000    0.000000    0.000000    0.000000   -0.000000   -0.000483    0.000007
            -0.000003    0.000000
 2          -0.000000    0.957377   -0.000000    0.000000   -0.000000   -0.000000    0.000000    0.000000   -0.000008   -0.000476
             0.000083    0.000000
 3           0.000000   -0.000000    0.957377    0.000000    0.000000    0.000000    0.000000    0.000000   -0.000002    0.000083
             0.000476    0.000000
 4          -0.000000    0.000000    0.000000    0.958469    0.000000   -0.000000    0.000000    0.000000   -0.000000    0.000000
            -0.000000    0.000000
 5           0.000000   -0.000000    0.000000    0.000000    0.958469   -0.000000    0.000000   -0.000000   -0.000000   -0.000000
             0.000000    0.000000
 6           0.000000   -0.000000    0.000000   -0.000000   -0.000000    0.958469   -0.000000   -0.000000    0.000000   -0.000000
            -0.000000   -0.000000
 7           0.000000    0.000000    0.000000    0.000000    0.000000   -0.000000    0.958469    0.000000    0.000000    0.000000
            -0.000000    0.000000
 8          -0.000000    0.000000    0.000000    0.000000   -0.000000   -0.000000    0.000000    0.958469    0.000000    0.000000
             0.000000   -0.000000
 9          -0.000483   -0.000008   -0.000002   -0.000000   -0.000000    0.000000    0.000000    0.000000    0.958398   -0.000000
            -0.000000   -0.000000
 10          0.000007   -0.000476    0.000083    0.000000   -0.000000   -0.000000    0.000000    0.000000   -0.000000    0.958398
            -0.000000    0.000000
 11         -0.000003    0.000083    0.000476   -0.000000    0.000000   -0.000000   -0.000000    0.000000   -0.000000   -0.000000
             0.958398    0.000000
 12          0.000000    0.000000    0.000000    0.000000    0.000000   -0.000000    0.000000   -0.000000   -0.000000    0.000000
             0.000000    0.958333


 RESULTS FOR STATE 1.1
 =====================

 Maximum overlap with reference state  2

 Coefficient of reference function:   C(0) = 0.95615459 (fixed)   0.95745306 (relaxed)   0.95737739 (rotated)

 Energy contributions of configuration classes

 CLASS          SQ.NORM        ECORR1        ECORR2
 +++++++++++++++++++++++++++++++++++++++++++++++++++
 Internals    0.00101532   -0.00196262   -0.67055540
 Singles      0.01593528   -0.05822770   -0.06489151
 Pairs        0.07407180    0.00000000   -0.05357064
 Total        1.09102240   -0.06019032   -0.78901756
 +++++++++++++++++++++++++++++++++++++++++++++++++++


 Reference energy                    -191.83526607
 Nuclear energy                         0.00000000
 Kinetic energy                        63.26117705
 One electron energy                 -335.73022713
 Two electron energy                  143.10563808
 Virial quotient                       -3.04490998
 Correlation energy                    -0.78932297
 !MRCI STATE 1.1 Energy              -192.624589044896

 Properties without orbital relaxation:

 !MRCI STATE 1.1 Dipole moment          0.00000000     0.00000000     0.00000000
 Dipole moment /Debye                   0.00000000     0.00000000     0.00000000

 Cluster corrected energies          -192.69643511 (Davidson, fixed reference)
 Cluster corrected energies          -192.69629900 (Davidson, relaxed reference)
 Cluster corrected energies          -192.69643511 (Davidson, rotated reference)

 Cluster corrected energies          -192.69426843 (Pople, fixed reference)
 Cluster corrected energies          -192.69412631 (Pople, relaxed reference)
 Cluster corrected energies          -192.69426843 (Pople, rotated reference)



 RESULTS FOR STATE 2.1
 =====================

 Maximum overlap with reference state  1

 Coefficient of reference function:   C(0) = 0.95627099 (fixed)   0.95745304 (relaxed)   0.95737737 (rotated)

 Energy contributions of configuration classes

 CLASS          SQ.NORM        ECORR1        ECORR2
[...]
 44  1     8    1  |0 0>          0.00%    0.00%    0.00%    0.00%    0.00%    0.00%    0.00%    0.00%
 45  1     9    1  |0 0>          0.00%    0.00%    0.00%    0.00%    0.00%    0.00%    0.00%    0.00%

   Total
 Nr Sym  State Sym Spin / Nr.     17       18       19       20       21       22       23       24

  1  1     1    1  |1 1>+         0.00%    0.00%    0.00%    0.00%    0.00%    0.03%    0.00%    0.03%
  2  1     2    1  |1 1>+         0.00%    0.00%    0.06%    0.01%    0.00%    0.00%    0.00%    0.00%
  3  1     3    1  |1 1>+         0.00%    0.00%    0.01%    0.06%    0.00%    0.00%    0.00%    0.00%
  4  1     4    1  |1 1>+         0.62%    0.00%    0.00%    0.00%    0.09%    0.00%   52.48%    0.13%
  5  1     5    1  |1 1>+        28.11%    0.00%    0.00%    0.00%    4.17%    0.00%    1.17%    0.00%
  6  1     6    1  |1 1>+         0.00%    0.00%    0.00%    0.00%    0.00%    0.00%    0.07%   42.77%
  7  1     7    1  |1 1>+         0.00%    0.00%    2.60%    0.60%    0.00%    0.00%    0.00%    0.00%
  8  1     8    1  |1 1>+         0.00%   21.55%    0.60%    2.60%    0.00%    0.00%    0.00%    0.00%
  9  1     9    1  |1 1>+         0.00%    0.00%    0.01%    0.02%    0.00%   33.21%    0.01%    2.53%
 10  1    10    1  |1 1>+         0.00%    0.00%   16.36%    8.73%    0.00%    0.04%    0.00%    0.00%
 11  1    11    1  |1 1>+         0.00%    0.00%    8.75%   16.37%    0.01%    0.01%    0.00%    0.00%
 12  1    12    1  |1 1>+         3.13%    0.00%    0.00%    0.00%   25.47%    0.00%    0.00%    0.00%
 13  1     1    1  |1 0>          0.00%    0.00%    0.06%    0.01%    0.00%    0.00%    0.00%    0.00%
 14  1     2    1  |1 0>          0.00%    0.00%    0.00%    0.00%    0.00%    0.03%    0.00%    0.04%
 15  1     3    1  |1 0>          0.00%    0.00%    0.00%    0.00%    0.07%    0.00%    0.10%    0.00%
 16  1     4    1  |1 0>          0.00%   17.61%    0.48%    2.14%    0.00%    0.00%    0.00%    0.00%
 17  1     5    1  |1 0>          0.00%   11.12%    0.29%    1.36%    0.00%    0.00%    0.00%    0.00%
 18  1     6    1  |1 0>          0.00%    0.00%    2.63%    0.57%    0.00%    0.00%    0.00%    0.00%
 19  1     7    1  |1 0>          0.00%    0.00%    0.00%    0.00%    0.00%    0.00%    0.14%   37.52%
 20  1     8    1  |1 0>         21.55%    0.00%    0.00%    0.00%    3.20%    0.00%   13.40%    0.05%
 21  1     9    1  |1 0>          0.00%    0.00%   20.50%    4.60%    0.00%    0.03%    0.00%    0.01%
 22  1    10    1  |1 0>          0.00%    0.00%    0.02%    0.01%    0.88%   32.05%    0.40%    3.50%
 23  1    11    1  |1 0>          0.00%    0.00%    0.00%    0.01%   24.24%    1.17%    8.97%    0.26%
 24  1    12    1  |1 0>          0.00%    3.13%    4.67%   20.80%    0.00%    0.00%    0.00%    0.00%
 25  1     1    1  |1 1>-         0.00%    0.00%    0.01%    0.06%    0.00%    0.00%    0.00%    0.00%
 26  1     2    1  |1 1>-         0.00%    0.00%    0.00%    0.00%    0.07%    0.00%    0.10%    0.00%
 27  1     3    1  |1 1>-         0.00%    0.00%    0.00%    0.00%    0.00%    0.03%    0.00%    0.14%
 28  1     4    1  |1 1>-         0.00%    0.00%    3.01%    0.67%    0.00%    0.00%    0.00%    0.00%
 29  1     5    1  |1 1>-         0.00%    0.00%    0.46%    0.12%    0.00%    0.00%    0.00%    0.00%
 30  1     6    1  |1 1>-         0.00%   21.55%    0.59%    2.60%    0.00%    0.00%    0.00%    0.00%
 31  1     7    1  |1 1>-        21.55%    0.00%    0.00%    0.00%    3.20%    0.00%   13.41%    0.03%
 32  1     8    1  |1 1>-         0.00%    0.00%    0.00%    0.00%    0.00%    0.00%    0.00%    0.17%
 33  1     9    1  |1 1>-         0.00%    0.00%    4.61%   20.50%    0.01%    0.01%    0.01%    0.00%
 34  1    10    1  |1 1>-         0.00%    0.00%    0.00%    0.01%   24.24%    1.16%    8.82%    0.66%
 35  1    11    1  |1 1>-         0.00%    0.00%    0.00%    0.00%    0.88%   32.07%    0.56%   11.81%
 36  1    12    1  |1 1>-         0.00%    0.00%   20.80%    4.68%    0.00%    0.00%    0.00%    0.00%
 37  1     1    1  |0 0>          0.00%    0.00%    0.00%    0.00%    0.00%    0.00%    0.00%    0.30%
 38  1     2    1  |0 0>          0.00%    0.00%    0.00%    0.00%    0.00%    0.00%    0.00%    0.00%
 39  1     3    1  |0 0>          0.00%    0.00%    0.00%    0.00%    0.00%    0.00%    0.34%    0.00%
 40  1     4    1  |0 0>          0.00%    0.00%    0.00%    0.00%    0.00%    0.00%    0.00%    0.04%
 41  1     5    1  |0 0>          0.00%    0.00%    0.00%    0.00%    0.00%    0.00%    0.00%    0.00%
 42  1     6    1  |0 0>          0.00%    0.00%    0.00%    0.00%    0.00%    0.17%    0.00%    0.00%
 43  1     7    1  |0 0>          0.00%    0.00%   11.00%    2.47%    0.00%    0.00%    0.00%    0.00%
 44  1     8    1  |0 0>          0.00%   25.02%    2.47%   11.00%    0.00%    0.00%    0.00%    0.00%
 45  1     9    1  |0 0>         25.02%    0.00%    0.00%    0.00%   13.47%    0.00%    0.00%    0.00%

   Total
 Nr Sym  State Sym Spin / Nr.     25       26       27       28       29       30       31       32

  1  1     1    1  |1 1>+         0.00%    0.00%    0.11%    0.00%    0.00%    0.00%    0.00%    0.00%
  2  1     2    1  |1 1>+         0.10%    0.00%    0.00%    0.10%    0.00%    0.00%    0.00%    0.00%
  3  1     3    1  |1 1>+         0.00%    0.10%    0.00%    0.00%    0.10%    0.00%    0.00%    0.00%
  4  1     4    1  |1 1>+         0.00%    0.00%    0.01%    0.00%    0.00%    0.15%    0.00%    0.00%
  5  1     5    1  |1 1>+         0.00%    0.00%    0.00%    0.00%    0.00%    6.67%    0.00%    0.00%
  6  1     6    1  |1 1>+         0.00%    0.00%   10.94%    0.00%    0.00%    0.00%    0.00%    0.00%
  7  1     7    1  |1 1>+        13.16%    0.28%    0.00%    5.11%    0.00%    0.00%    0.32%    0.00%
  8  1     8    1  |1 1>+         0.28%   13.16%    0.00%    0.00%    5.11%    0.00%    0.00%    0.02%
  9  1     9    1  |1 1>+         0.01%    0.00%    9.95%    0.02%    0.01%    0.00%    0.00%    0.00%
 10  1    10    1  |1 1>+         8.40%    0.97%    0.01%   17.41%    0.78%    0.00%    0.00%    0.00%
 11  1    11    1  |1 1>+         0.98%    8.41%    0.00%    0.79%   17.42%    0.01%    0.00%    0.00%
 12  1    12    1  |1 1>+         0.00%    0.00%    0.00%    0.00%    0.00%    0.75%    0.00%    0.00%
 13  1     1    1  |1 0>          0.10%    0.00%    0.00%    0.10%    0.00%    0.00%    0.00%    0.00%
 14  1     2    1  |1 0>          0.00%    0.00%    0.10%    0.00%    0.00%    0.00%    0.00%    0.00%
 15  1     3    1  |1 0>          0.00%    0.00%    0.00%    0.00%    0.00%    0.10%    0.00%    0.00%
 16  1     4    1  |1 0>          0.40%   20.41%    0.00%    0.00%    4.17%    0.00%    0.13%   48.54%
 17  1     5    1  |1 0>          0.70%   32.27%    0.00%    0.00%    2.64%    0.00%    0.00%    0.85%
 18  1     6    1  |1 0>         13.13%    0.32%    0.00%    5.11%    0.00%    0.00%   47.60%    0.12%
 19  1     7    1  |1 0>          0.00%    0.00%   16.11%    0.00%    0.00%    0.00%    0.00%    0.00%
 20  1     8    1  |1 0>          0.00%    0.00%    0.01%    0.00%    0.00%    5.11%    0.00%    0.00%
 21  1     9    1  |1 0>          9.19%    0.18%    0.01%   18.19%    0.01%    0.01%    0.00%    0.00%
 22  1    10    1  |1 0>          0.01%    0.00%    8.49%    0.02%    0.00%    0.64%    0.00%    0.00%
 23  1    11    1  |1 0>          0.00%    0.00%    0.27%    0.00%    0.00%   17.57%    0.00%    0.00%
 24  1    12    1  |1 0>          0.00%    0.00%    0.00%    0.00%    0.75%    0.00%    0.00%    0.00%
 25  1     1    1  |1 1>-         0.00%    0.10%    0.00%    0.00%    0.10%    0.00%    0.00%    0.00%
 26  1     2    1  |1 1>-         0.00%    0.00%    0.00%    0.00%    0.00%    0.10%    0.00%    0.00%
 27  1     3    1  |1 1>-         0.00%    0.00%    0.00%    0.00%    0.00%    0.00%    0.00%    0.00%
 28  1     4    1  |1 1>-         7.10%    0.14%    0.00%    5.90%    0.00%    0.00%   51.50%    0.12%
 29  1     5    1  |1 1>-        45.70%    0.84%    0.00%    0.92%    0.00%    0.00%    0.33%    0.00%
 30  1     6    1  |1 1>-         0.20%   13.25%    0.00%    0.00%    5.11%    0.00%    0.12%   50.34%
 31  1     7    1  |1 1>-         0.00%    0.00%    0.00%    0.00%    0.00%    5.11%    0.00%    0.00%
 32  1     8    1  |1 1>-         0.00%    0.00%   53.61%    0.00%    0.00%    0.00%    0.00%    0.00%
 33  1     9    1  |1 1>-         0.18%    9.19%    0.00%    0.01%   18.20%    0.00%    0.00%    0.00%
 34  1    10    1  |1 1>-         0.00%    0.01%    0.01%    0.00%    0.01%   17.57%    0.00%    0.00%
 35  1    11    1  |1 1>-         0.00%    0.00%    0.03%    0.00%    0.00%    0.64%    0.00%    0.00%
 36  1    12    1  |1 1>-         0.00%    0.00%    0.00%    0.75%    0.00%    0.00%    0.00%    0.00%
 37  1     1    1  |0 0>          0.00%    0.00%    0.05%    0.00%    0.00%    0.00%    0.00%    0.00%
 38  1     2    1  |0 0>          0.01%    0.34%    0.00%    0.00%    0.00%    0.00%    0.00%    0.00%
 39  1     3    1  |0 0>          0.00%    0.00%    0.00%    0.00%    0.00%    0.00%    0.00%    0.00%
 40  1     4    1  |0 0>          0.00%    0.00%    0.30%    0.00%    0.00%    0.00%    0.00%    0.00%
 41  1     5    1  |0 0>          0.34%    0.01%    0.00%    0.00%    0.00%    0.00%    0.00%    0.00%
 42  1     6    1  |0 0>          0.00%    0.00%    0.00%    0.00%    0.00%    0.00%    0.00%    0.00%
 43  1     7    1  |0 0>          0.00%    0.00%    0.00%   45.57%    0.02%    0.00%    0.00%    0.00%
 44  1     8    1  |0 0>          0.00%    0.00%    0.00%    0.02%   45.55%    0.01%    0.00%    0.00%
 45  1     9    1  |0 0>          0.00%    0.00%    0.00%    0.00%    0.01%   45.57%    0.00%    0.00%

   Total
 Nr Sym  State Sym Spin / Nr.     33       34       35       36       37       38       39       40

  1  1     1    1  |1 1>+         0.00%    0.00%    0.00%    0.00%    0.00%    0.00%    0.00%    0.00%
  2  1     2    1  |1 1>+         0.00%    0.00%    0.00%    0.00%    0.00%    0.00%    0.00%    0.00%
  3  1     3    1  |1 1>+         0.00%    0.00%    0.00%    0.00%    0.00%    0.00%    0.00%    0.00%
  4  1     4    1  |1 1>+        29.24%    0.00%    0.00%    4.67%    0.00%    0.03%    0.01%    0.07%
  5  1     5    1  |1 1>+        12.04%    0.00%    0.00%   47.38%    0.00%    0.00%    0.00%    0.00%
  6  1     6    1  |1 1>+         0.00%    0.00%   33.33%    0.00%    0.00%    5.02%    0.27%    0.18%
  7  1     7    1  |1 1>+         0.00%   53.01%    0.00%    0.00%    0.00%    0.30%    1.59%    1.20%
  8  1     8    1  |1 1>+         0.00%    0.00%    0.00%    0.00%   53.31%    0.03%    1.22%    1.83%
  9  1     9    1  |1 1>+         0.00%    0.00%    0.00%    0.00%    0.00%   26.86%    3.62%    0.09%
 10  1    10    1  |1 1>+         0.00%    0.00%    0.00%    0.00%    0.00%    2.79%   14.67%   22.99%
 11  1    11    1  |1 1>+         0.00%    0.00%    0.00%    0.00%    0.00%    1.00%   22.37%   16.69%
 12  1    12    1  |1 1>+         0.00%    0.00%    0.00%    0.00%    0.00%    0.00%    0.00%    0.00%
 13  1     1    1  |1 0>          0.00%    0.00%    0.00%    0.00%    0.00%    0.00%    0.00%    0.00%
 14  1     2    1  |1 0>          0.00%    0.00%    0.00%    0.00%    0.00%    0.00%    0.00%    0.00%
 15  1     3    1  |1 0>          0.00%    0.00%    0.00%    0.00%    0.00%    0.00%    0.00%    0.00%
 16  1     4    1  |1 0>          0.00%    0.00%    0.00%    0.00%    1.01%    0.04%    1.86%    2.85%
 17  1     5    1  |1 0>          0.00%    0.00%    0.00%    0.00%   42.80%    0.07%    2.97%    4.48%
 18  1     6    1  |1 0>          0.00%    5.61%    0.00%    0.00%    0.00%    0.30%    1.57%    1.22%
 19  1     7    1  |1 0>          0.00%    0.00%   33.33%    0.00%    0.00%   10.56%    1.18%    0.18%
 20  1     8    1  |1 0>          5.74%    0.00%    0.00%   47.59%    0.00%    0.00%    0.00%    0.02%
 21  1     9    1  |1 0>          0.00%    0.00%    0.00%    0.00%    0.00%    4.17%   20.99%   15.38%
 22  1    10    1  |1 0>          0.00%    0.00%    0.00%    0.00%    0.00%    2.09%    0.02%    0.32%
 23  1    11    1  |1 0>          0.00%    0.00%    0.00%    0.00%    0.00%    0.00%    0.05%    0.28%
 24  1    12    1  |1 0>          0.00%    0.00%    0.00%    0.00%    0.00%    0.00%    0.00%    0.00%
 25  1     1    1  |1 1>-         0.00%    0.00%    0.00%    0.00%    0.00%    0.00%    0.00%    0.00%
 26  1     2    1  |1 1>-         0.00%    0.00%    0.00%    0.00%    0.00%    0.00%    0.00%    0.00%
 27  1     3    1  |1 1>-         0.00%    0.00%    0.00%    0.00%    0.00%    0.00%    0.00%    0.00%
 28  1     4    1  |1 1>-         0.00%    4.78%    0.00%    0.00%    0.00%    0.16%    0.87%    0.63%
 29  1     5    1  |1 1>-         0.00%   36.59%    0.00%    0.00%    0.00%    1.06%    5.62%    4.04%
 30  1     6    1  |1 1>-         0.00%    0.00%    0.00%    0.00%    2.87%    0.02%    1.15%    1.90%
 31  1     7    1  |1 1>-        52.98%    0.00%    0.00%    0.35%    0.00%    0.01%    0.00%    0.02%
 32  1     8    1  |1 1>-         0.00%    0.00%   33.33%    0.00%    0.00%    1.02%    0.32%    0.00%
 33  1     9    1  |1 1>-         0.00%    0.00%    0.00%    0.00%    0.00%    0.47%   15.45%   24.37%
 34  1    10    1  |1 1>-         0.00%    0.00%    0.00%    0.00%    0.00%    0.83%    0.12%    0.25%
 35  1    11    1  |1 1>-         0.00%    0.00%    0.00%    0.00%    0.00%   42.91%    3.84%    0.76%
 36  1    12    1  |1 1>-         0.00%    0.00%    0.00%    0.00%    0.00%    0.00%    0.00%    0.00%
 37  1     1    1  |0 0>          0.00%    0.00%    0.00%    0.00%    0.00%    0.12%    0.01%    0.00%
 38  1     2    1  |0 0>          0.00%    0.00%    0.00%    0.00%    0.00%    0.00%    0.10%    0.15%
 39  1     3    1  |0 0>          0.00%    0.00%    0.00%    0.00%    0.00%    0.00%    0.00%    0.00%
 40  1     4    1  |0 0>          0.00%    0.00%    0.00%    0.00%    0.00%    0.10%    0.02%    0.00%
 41  1     5    1  |0 0>          0.00%    0.00%    0.00%    0.00%    0.00%    0.02%    0.13%    0.10%
 42  1     6    1  |0 0>          0.00%    0.00%    0.00%    0.00%    0.00%    0.00%    0.00%    0.00%
 43  1     7    1  |0 0>          0.00%    0.00%    0.00%    0.00%    0.00%    0.00%    0.00%    0.00%
 44  1     8    1  |0 0>          0.00%    0.00%    0.00%    0.00%    0.00%    0.00%    0.00%    0.00%
 45  1     9    1  |0 0>          0.00%    0.00%    0.00%    0.00%    0.00%    0.00%    0.00%    0.00%

   Total
 Nr Sym  State Sym Spin / Nr.     41       42       43       44       45

  1  1     1    1  |1 1>+         0.00%    0.00%    0.00%    0.00%    0.00%
  2  1     2    1  |1 1>+         0.00%    0.00%    0.05%    0.00%    0.00%
  3  1     3    1  |1 1>+         0.00%    0.00%    0.00%    0.00%    0.05%
  4  1     4    1  |1 1>+         0.24%   11.79%    0.00%    0.00%    0.00%
  5  1     5    1  |1 1>+         0.00%    0.26%    0.00%    0.15%    0.00%
  6  1     6    1  |1 1>+         6.87%    0.08%    0.00%    0.00%    0.00%
  7  1     7    1  |1 1>+         0.00%    0.01%    0.11%    0.00%    0.00%
  8  1     8    1  |1 1>+         0.02%    0.01%    0.00%    0.00%    0.11%
  9  1     9    1  |1 1>+        22.56%    0.93%    0.01%    0.00%    0.00%
 10  1    10    1  |1 1>+         0.02%    0.11%    6.36%    0.00%    0.28%
 11  1    11    1  |1 1>+         0.41%    0.09%    0.28%    0.04%    6.33%
 12  1    12    1  |1 1>+         0.00%    0.00%    0.00%   69.97%    0.43%
 13  1     1    1  |1 0>          0.00%    0.00%    0.05%    0.00%    0.00%
 14  1     2    1  |1 0>          0.00%    0.00%    0.00%    0.00%    0.00%
 15  1     3    1  |1 0>          0.00%    0.00%    0.00%    0.05%    0.00%
 16  1     4    1  |1 0>          0.04%    0.02%    0.00%    0.00%    0.09%
 17  1     5    1  |1 0>          0.06%    0.03%    0.00%    0.00%    0.06%
 18  1     6    1  |1 0>          0.00%    0.01%    0.11%    0.00%    0.00%
 19  1     7    1  |1 0>          0.44%    0.06%    0.00%    0.00%    0.00%
 20  1     8    1  |1 0>          0.06%    3.02%    0.00%    0.11%    0.00%
 21  1     9    1  |1 0>          0.01%    0.02%    6.64%    0.00%    0.00%
 22  1    10    1  |1 0>         46.51%    4.66%    0.01%    0.23%    0.00%
 23  1    11    1  |1 0>          4.93%   35.78%    0.00%    6.38%    0.04%
 24  1    12    1  |1 0>          0.00%    0.00%    0.02%    0.43%   69.95%
 25  1     1    1  |1 1>-         0.00%    0.00%    0.00%    0.00%    0.05%
 26  1     2    1  |1 1>-         0.00%    0.00%    0.00%    0.05%    0.00%
 27  1     3    1  |1 1>-         0.00%    0.00%    0.00%    0.00%    0.00%
 28  1     4    1  |1 1>-         0.00%    0.00%    0.13%    0.00%    0.00%
 29  1     5    1  |1 1>-         0.00%    0.02%    0.02%    0.00%    0.00%
 30  1     6    1  |1 1>-         0.03%    0.01%    0.00%    0.00%    0.11%
 31  1     7    1  |1 1>-         0.07%    3.01%    0.00%    0.11%    0.00%
 32  1     8    1  |1 1>-        10.78%    0.30%    0.00%    0.00%    0.00%
 33  1     9    1  |1 1>-         0.24%    0.03%    0.00%    0.08%    6.56%
 34  1    10    1  |1 1>-         1.81%   38.02%    0.00%    6.33%    0.08%
 35  1    11    1  |1 1>-         4.62%    1.47%    0.00%    0.23%    0.00%
 36  1    12    1  |1 1>-         0.00%    0.00%   70.38%    0.00%    0.02%
 37  1     1    1  |0 0>          0.12%    0.00%    0.00%    0.00%    0.00%
 38  1     2    1  |0 0>          0.00%    0.00%    0.00%    0.00%    0.00%
 39  1     3    1  |0 0>          0.01%    0.25%    0.00%    0.00%    0.00%
 40  1     4    1  |0 0>          0.13%    0.00%    0.00%    0.00%    0.00%
 41  1     5    1  |0 0>          0.00%    0.00%    0.00%    0.00%    0.00%
 42  1     6    1  |0 0>          0.00%    0.00%    0.00%    0.00%    0.00%
 43  1     7    1  |0 0>          0.00%    0.00%   15.82%    0.00%    0.00%
 44  1     8    1  |0 0>          0.00%    0.00%    0.01%    0.10%   15.72%
 45  1     9    1  |0 0>          0.00%    0.00%    0.00%   15.72%    0.10%


 No matrix element <i|DMY|i> larger than 5E-7
 No matrix element <i|DMY|1> larger than 5E-7


 **********************************************************************************************************************************
 DATASETS  * FILE   NREC   LENGTH (MB)   RECORD NAMES
              1      21       86.94       500      610      700      900      950      970     1000      129      960     1100   
                                          VAR    BASINP    GEOM    SYMINP    ZMAT    AOBASIS   BASIS     P2S    ABASIS      S 
                                         1400     1410     1420     1200     1210     1080     1700     1600     1650     1380   
                                           T        V       ECP      H0       H01     AOSYM    OPER      SMH    MOLCAS    JKOP   
                                         1700(1)
                                         OPER   

              2       7     6898.47       700     1000      520     2100     2140     5201     5203   
                                         GEOM     BASIS   MCVARS     RHF     MCSCF    MRCI     MRCI   

 PROGRAMS   *        TOTAL        CI        CI        CI     MULTI   RHF-SCF       INT
 CPU TIMES  *    144077.05 112264.94   8397.36  23394.35      7.72      3.56      8.91
 REAL TIME  *    146264.75 SEC
 DISK USED  *         6.82 GB (local),       55.66 GB (total)
 SF USED    *        43.59 GB
 GA USED    *         0.00 MB       (max)       0.00 MB       (current)
 **********************************************************************************************************************************

 CI/aug-cc-pWCV5Z-PP energy=   -192.491200315076

              CI              CI           MULTI         RHF-SCF
   -192.44825344   -192.43818789   -191.67500845   -191.86439724
 **********************************************************************************************************************************
 Molpro calculation terminated with 1 warning(s)
